Title
29212
    1ASP      N    1   4.216   3.291   5.110  0.2969 -0.0567  0.1380
    1ASP    HT1    2   4.264   3.199   5.117  0.1151 -0.0552  1.5615
    1ASP    HT2    3   4.295   3.359   5.108  0.8849 -0.6266  1.9879
    1ASP    HT3    4   4.160   3.301   5.023 -0.2154  0.0782  0.4808
    1ASP     CA    5   4.119   3.308   5.226 -0.6219  0.6526 -0.1006
    1ASP     HA    6   4.043   3.231   5.227 -0.6749  0.7028  0.7909
    1ASP     CB    7   4.208   3.300   5.350 -0.4275  0.0698  0.4757
    1ASP    HB1    8   4.159   3.328   5.446 -1.1872 -0.2095  0.1756
    1ASP    HB2    9   4.297   3.367   5.345  0.0240 -0.5952 -0.6937
    1ASP     CG   10   4.242   3.152   5.372 -0.6979 -0.3582  0.4073
    1ASP    OD1   11   4.206   3.064   5.290  0.1683 -0.2261 -0.2393
    1ASP    OD2   12   4.302   3.111   5.473  0.2510 -0.0255 -0.8443
    1ASP      C   13   4.051   3.437   5.216 -0.4193 -0.1846  0.0556
    1ASP      O   14   4.059   3.511   5.114 -0.1794 -0.1638  0.1124
    2GLY      N   15   3.985   3.475   5.325 -0.0157  0.1095 -0.1090
    2GLY     HN   16   3.992   3.428   5.412 -0.8681 -1.3248 -0.7887
    2GLY     CA   17   3.895   3.592   5.317 -0.4642 -0.7245  0.2611
    2GLY    HA1   18   3.942   3.667   5.254  1.1869  0.1937  2.4841
    2GLY    HA2   19   3.887   3.622   5.420 -0.4062  0.6509 -0.1099
    2GLY      C   20   3.760   3.555   5.261  0.9017 -0.5756 -0.0868
    2GLY      O   21   3.727   3.441   5.218 -0.2445 -0.5583 -0.5051
    3ASP      N   22   3.659   3.641   5.283  0.9530  0.2402 -0.7945
    3ASP     HN   23   3.682   3.719   5.340  1.4583  0.4041 -1.2125
    3ASP     CA   24   3.524   3.629   5.236  0.4097 -0.1087  0.0874
    3ASP     HA   25   3.510   3.524   5.253  0.5164 -0.1068  0.1940
    3ASP     CB   26   3.411   3.715   5.305 -0.2400 -0.2834  0.3316
    3ASP    HB1   27   3.308   3.686   5.277 -0.9183  2.9279 -0.8259
    3ASP    HB2   28   3.420   3.824   5.290 -2.7751 -0.0240  0.4166
    3ASP     CG   29   3.413   3.688   5.460  0.4883  0.8662 -0.0547
    3ASP    OD1   30   3.443   3.579   5.513 -0.1246 -0.3291 -0.0272
    3ASP    OD2   31   3.356   3.775   5.534  0.0014 -0.1655 -0.1500
    3ASP      C   32   3.521   3.647   5.085 -0.0225  0.4538 -0.5037
    3ASP      O   33   3.606   3.712   5.020  0.4472 -0.4979 -0.1928
    4GLY      N   34   3.413   3.590   5.018  0.0632 -0.2109 -0.2167
    4GLY     HN   35   3.350   3.539   5.076  0.6235 -0.6383  0.0240
    4GLY     CA   36   3.382   3.598   4.877 -0.3289 -0.1634 -0.0257
    4GLY    HA1   37   3.378   3.705   4.859 -1.3588 -0.0223  1.0063
    4GLY    HA2   38   3.287   3.549   4.863 -0.0440 -0.9073  0.6059
    4GLY      C   39   3.484   3.541   4.778 -0.2407 -0.1360 -0.3701
    4GLY      O   40   3.563   3.464   4.830 -0.0208  0.6272  0.3826
    5PRO      N   41   3.480   3.570   4.649 -0.4190  0.5366  0.3467
    5PRO     CD   42   3.379   3.666   4.599 -0.1906 -0.0492 -0.2802
    5PRO    HD1   43   3.405   3.763   4.647  1.5909 -0.9125  0.5773
    5PRO    HD2   44   3.276   3.643   4.635  0.5507 -0.0661  2.0257
    5PRO     CA   45   3.594   3.551   4.553 -0.4654 -0.6775  0.3273
    5PRO     HA   46   3.579   3.447   4.525 -1.7686 -0.7273  1.1325
    5PRO     CB   47   3.551   3.650   4.437 -0.6932  0.2376 -0.1097
    5PRO    HB1   48   3.574   3.601   4.340  3.5372  1.6283 -0.0234
    5PRO    HB2   49   3.609   3.742   4.459  0.9803 -1.1356  1.6097
    5PRO     CG   50   3.398   3.679   4.451  0.0171 -0.3783 -0.6737
    5PRO    HG1   51   3.370   3.780   4.415 -0.9889 -1.0030 -1.7407
    5PRO    HG2   52   3.343   3.609   4.385  0.6054 -0.7529 -0.7751
    5PRO      C   53   3.734   3.569   4.598  0.0600 -0.0215 -0.0558
    5PRO      O   54   3.761   3.647   4.686  0.2567  0.3328  0.4174
    6GLY      N   55   3.831   3.483   4.546  0.3253  0.1360 -0.2020
    6GLY     HN   56   3.808   3.400   4.495  1.6684 -0.5006  0.1933
    6GLY     CA   57   3.976   3.502   4.558 -0.3988  0.2821 -0.1739
    6GLY    HA1   58   4.019   3.412   4.517 -0.3695  0.3794 -0.3566
    6GLY    HA2   59   4.008   3.521   4.659 -2.3272  2.6997  0.0939
    6GLY      C   60   4.034   3.615   4.482  0.1659  0.0907 -0.5169
    6GLY      O   61   3.962   3.708   4.468  0.0370 -0.3757 -0.2393
    7ASP      N   62   4.161   3.607   4.449 -0.8111 -0.0316 -0.2776
    7ASP     HN   63   4.215   3.526   4.470  1.6404  1.8969  1.4299
    7ASP     CA   64   4.227   3.703   4.360  0.1578  1.1728 -0.3901
    7ASP     HA   65   4.239   3.797   4.411 -1.0729 -0.0237  2.2955
    7ASP     CB   66   4.368   3.642   4.328 -0.0422  0.3272  0.0978
    7ASP    HB1   67   4.424   3.703   4.254 -0.4328  2.1420  1.2106
    7ASP    HB2   68   4.372   3.543   4.278  2.7512  0.7391 -0.6515
    7ASP     CG   69   4.458   3.643   4.452 -0.3363 -0.3034  0.3650
    7ASP    OD1   70   4.552   3.556   4.459  0.5279 -0.4346  0.4258
    7ASP    OD2   71   4.450   3.733   4.538  0.5074 -0.0148  0.6385
    7ASP      C   72   4.165   3.724   4.219  0.1672 -0.1167  0.2610
    7ASP      O   73   4.096   3.631   4.168 -0.1015 -0.8464 -0.2151
    8PRO      N   74   4.190   3.835   4.144 -0.3774 -0.0860  0.0348
    8PRO     CD   75   4.264   3.957   4.189 -0.2017 -0.4521 -0.0393
    8PRO    HD1   76   4.341   3.933   4.265  0.6433  1.2840 -0.3004
    8PRO    HD2   77   4.197   4.023   4.249  1.0697 -1.1728  2.2885
    8PRO     CA   78   4.172   3.839   4.000  0.2906 -0.1930 -0.1757
    8PRO     HA   79   4.074   3.814   3.962 -0.1955 -0.5834  1.2589
    8PRO     CB   80   4.218   3.982   3.958 -0.3762 -0.2779  0.4009
    8PRO    HB1   81   4.128   4.046   3.975 -0.0802  0.3884 -0.4381
    8PRO    HB2   82   4.255   3.998   3.855 -1.7739  1.7614  0.1543
    8PRO     CG   83   4.325   4.026   4.062 -0.0793 -0.3312  0.7000
    8PRO    HG1   84   4.430   3.997   4.040  0.4481  1.2216  1.0031
    8PRO    HG2   85   4.326   4.136   4.078 -0.6090 -0.2386  0.1320
    8PRO      C   86   4.258   3.733   3.928 -0.0153  0.3837 -0.1924
    8PRO      O   87   4.363   3.696   3.983  0.4520 -0.0962 -0.3801
    9GLY      N   88   4.206   3.699   3.809  0.3158  0.0002  0.2267
    9GLY     HN   89   4.122   3.741   3.776 -0.1014  0.1787  1.4469
    9GLY     CA   90   4.273   3.601   3.721 -0.2015  0.1250 -0.0469
    9GLY    HA1   91   4.230   3.504   3.742  0.8950 -0.1285  1.1631
    9GLY    HA2   92   4.381   3.605   3.731 -0.2077  2.2776 -0.4421
    9GLY      C   93   4.255   3.631   3.577  0.0759  0.2453  0.1505
    9GLY      O   94   4.187   3.725   3.538  0.1462 -0.3793 -0.0197
   10ASP      N   95   4.327   3.554   3.487 -0.7665  0.3970 -0.2046
   10ASP     HN   96   4.374   3.472   3.518 -0.1810 -0.0146 -2.0878
   10ASP     CA   97   4.315   3.565   3.348 -1.1914 -0.2451 -0.4964
   10ASP     HA   98   4.353   3.663   3.319  0.6162 -0.7695 -0.0052
   10ASP     CB   99   4.398   3.454   3.287  0.1252 -0.6745  0.1300
   10ASP    HB1  100   4.387   3.442   3.177  1.0678 -0.1093 -0.0351
   10ASP    HB2  101   4.363   3.358   3.331 -1.1348 -1.1310 -1.7356
   10ASP     CG  102   4.541   3.469   3.306 -0.7367 -0.2872 -0.1340
   10ASP    OD1  103   4.617   3.374   3.269  0.0984  0.0031  0.1782
   10ASP    OD2  104   4.585   3.576   3.341 -0.2815  0.0651 -0.3344
   10ASP      C  105   4.175   3.544   3.300  0.3204 -0.0273  0.2096
   10ASP      O  106   4.097   3.462   3.355  0.4250  0.2456 -0.1502
   11GLY      N  107   4.130   3.619   3.196 -1.0711  0.2514  0.1348
   11GLY     HN  108   4.199   3.666   3.142 -0.2238 -2.1064 -0.9711
   11GLY     CA  109   3.998   3.609   3.133 -0.7260  0.0323 -0.0041
   11GLY    HA1  110   3.962   3.508   3.131  0.8334 -0.5902  1.2067
   11GLY    HA2  111   4.013   3.645   3.032  0.4007 -2.6620 -0.8859
   11GLY      C  112   3.892   3.700   3.201 -0.1680 -0.1402 -0.1095
   11GLY    OT1  113   3.917   3.823   3.218 -0.0547  0.3086  0.3824
   11GLY    OT2  114   3.788   3.651   3.249  0.0700 -0.3950 -0.1585
   12LIT    LIT  115   2.781   4.426   1.581 -0.0777  0.7354 -1.1614
   13LIT    LIT  116   2.134   5.805   0.005  1.0594 -0.1856 -0.4083
   14LIT    LIT  117   5.109   0.670   1.159 -0.6212 -0.0788  0.8776
   15LIT    LIT  118   0.267   1.839   5.092 -0.4294  0.1598 -0.4658
   16LIT    LIT  119   3.820   3.810   3.381 -0.0570 -1.1269 -0.3032
   17LIT    LIT  120   2.101   5.401   5.350  0.3706  0.0898 -0.0254
   18LIT    LIT  121   5.466   3.751   1.262 -0.8199 -0.4549  1.1679
   19LIT    LIT  122   1.998   6.511   1.853  0.8165 -0.6823  0.8229
   20LIT    LIT  123   6.749   1.876   4.520 -0.5902 -0.2858  0.9067
   21LIT    LIT  124   4.426   5.061   5.425 -0.8019 -0.7029 -0.6412
   22LIT    LIT  125   2.383   5.643   4.988 -0.3553  0.5028 -0.9745
   23LIT    LIT  126   3.424   3.770   1.736 -0.2439  0.4898  0.1204
   24LIT    LIT  127   0.960   4.269   4.489  0.0824  0.0679  0.1041
   25LIT    LIT  128   4.586   3.635   4.621  0.1030 -0.6861  1.1161
   26LIT    LIT  129   4.614   3.288   3.101 -0.2190 -0.0450 -1.0015
   27LIT    LIT  130   3.396   2.238   4.049  0.3552  0.1308 -0.1016
   28LIT    LIT  131   3.931   6.047   0.878 -0.0893 -0.7464 -0.1368
   29LIT    LIT  132   4.777   3.482   3.313 -0.1767 -0.0639  0.2968
   30LIT    LIT  133   5.164   5.348   4.322 -0.4974 -0.1444  0.5967
   31LIT    LIT  134   6.444   4.719   3.155  0.5238  0.6123  0.2997
   32LIT    LIT  135   3.999   4.438   1.343  0.6082  0.3706  0.0904
   33LIT    LIT  136   4.943   2.795   0.729  0.0484 -0.1244 -0.4794
   34LIT    LIT  137   6.620   0.245   3.065  0.0403 -0.6879  0.1623
   35LIT    LIT  138   3.351   1.157   1.464  0.0639  0.2793  0.7527
   36LIT    LIT  139   2.166   0.447   0.303 -0.1676 -0.4914  0.0652
   37LIT    LIT  140   4.682   0.233   2.758 -0.2485 -0.1365 -0.4996
   38LIT    LIT  141   1.091   5.954   2.830 -0.7357  0.7150 -0.4868
   39LIT    LIT  142   4.239   2.943   5.485  1.1078  0.0315 -0.1216
   40LIT    LIT  143   0.892   3.893   1.945 -0.6253 -0.5452  0.4094
   41LIT    LIT  144   1.650   4.118   1.071  0.4443 -1.3381  0.6306
   42LIT    LIT  145   3.328   3.637   5.669  0.6234  0.3804 -0.0509
   43CLA    CLA  146   2.651   2.251   1.625 -0.5027 -0.3846  0.1291
   44CLA    CLA  147   1.634   5.508   3.321  0.2032 -0.0970 -0.3688
   45CLA    CLA  148   3.791   1.640   2.887  0.2268 -0.2672  0.1156
   46CLA    CLA  149   4.210   5.166   5.378 -0.1728  0.0107 -0.2765
   47CLA    CLA  150   4.740   0.257   2.284  0.0451 -0.0054  0.0140
   48CLA    CLA  151   1.655   1.580   5.876 -0.1853 -0.5005  0.0068
   49CLA    CLA  152   4.820   3.210   4.987 -0.0350  0.1122  0.1435
   50CLA    CLA  153   5.574   2.966   2.418 -0.6374  0.0871 -0.0600
   51CLA    CLA  154   0.894   3.626   1.544 -0.2024 -0.0270  0.0378
   52CLA    CLA  155   2.550   2.882   5.029  0.1074  0.3291 -0.5943
   53CLA    CLA  156   1.239   6.240   3.932  0.0505  0.0276 -0.4606
   54CLA    CLA  157   7.011   5.022   5.011 -0.2910 -0.0680  0.0748
   55CLA    CLA  158   2.922   1.001   2.455 -0.0203  0.0173 -0.0020
   56CLA    CLA  159   5.221   3.677   2.663  0.3379 -0.1808 -0.3753
   57CLA    CLA  160   0.767   1.882   4.562 -0.2373  0.4141  0.2022
   58CLA    CLA  161   0.791   2.428   1.367 -0.0633 -0.2395 -0.0005
   59CLA    CLA  162   4.998   1.250   1.038  0.7280 -0.2160  0.2863
   60CLA    CLA  163   0.467   1.265   5.156  0.4426  0.3444 -0.1632
   61CLA    CLA  164   6.997   3.612   3.070  0.1437 -0.3495  0.4553
   62CLA    CLA  165   6.016   3.012   5.816  0.2119  0.0616  0.0195
   63CLA    CLA  166   2.321   4.661   0.001 -0.2975 -0.1557  0.2880
   64CLA    CLA  167   3.755   5.327   1.262 -0.2054  0.0408  0.0923
   65CLA    CLA  168   2.788   0.495   0.782  0.2190 -0.0730  0.2203
   66CLA    CLA  169   3.650   6.146   1.989 -0.2071  0.0275 -0.0420
   67CLA    CLA  170   2.618   5.198   0.641  0.3426 -0.0647 -0.4847
   68CLA    CLA  171   0.524   2.544   5.111  0.2373  0.0166 -0.0657
   69CLA    CLA  172   1.238   0.963   0.623 -0.3732  0.0433  0.0395
   70TIP3   OH2  173   2.401   1.223   1.633 -0.0286  0.0207  0.5224
   70TIP3    H1  174   2.364   1.310   1.649  0.2165  0.2961 -0.3535
   70TIP3    H2  175   2.487   1.239   1.594  0.3074 -0.6184  0.9661
   71TIP3   OH2  176   4.856   3.662   3.253  0.4384  0.3688  0.1878
   71TIP3    H1  177   4.819   3.744   3.284  0.5219 -0.2407  2.0104
   71TIP3    H2  178   4.947   3.683   3.233 -0.0051  1.1135 -1.1218
   72TIP3   OH2  179   2.618   3.661   2.963 -0.1731 -0.1291 -0.1288
   72TIP3    H1  180   2.638   3.691   2.875 -0.4795 -0.3209 -0.2641
   72TIP3    H2  181   2.542   3.605   2.953 -1.1871  1.0727  0.4524
   73TIP3   OH2  182   3.698   1.401   2.682  0.8865  0.1729  0.1369
   73TIP3    H1  183   3.714   1.470   2.746 -3.2748  0.5162  1.0905
   73TIP3    H2  184   3.707   1.444   2.597  0.4357  1.3501  0.6675
   74TIP3   OH2  185   5.837   2.570   4.787 -0.5353 -0.3006 -0.1312
   74TIP3    H1  186   5.899   2.595   4.718 -1.8931 -0.3467 -1.4206
   74TIP3    H2  187   5.886   2.582   4.869  1.3919 -1.0270 -1.1208
   75TIP3   OH2  188   1.422   3.596   3.861 -0.0186  0.2127  0.4966
   75TIP3    H1  189   1.363   3.526   3.890  1.6009 -1.2915  0.3095
   75TIP3    H2  190   1.415   3.596   3.765 -0.1048  0.4018  0.5014
   76TIP3   OH2  191   1.100   0.286   3.283  0.5983  0.4258 -0.5332
   76TIP3    H1  192   1.088   0.233   3.361 -0.7892  0.1673 -0.8842
   76TIP3    H2  193   1.159   0.234   3.227  0.1304 -0.2453 -0.4168
   77TIP3   OH2  194   4.481   4.119   1.858  0.3019  0.5265 -0.4262
   77TIP3    H1  195   4.394   4.123   1.899  0.4930  1.9234 -0.1008
   77TIP3    H2  196   4.535   4.073   1.922 -0.0145  0.3712 -0.2675
   78TIP3   OH2  197   4.697   5.120   3.733 -0.5460 -0.1406 -0.0965
   78TIP3    H1  198   4.727   5.090   3.647 -0.3544 -0.3288  0.0338
   78TIP3    H2  199   4.603   5.105   3.732 -0.3485 -1.5785  0.2851
   79TIP3   OH2  200   5.399   2.355   1.045 -0.0978 -0.3171  0.5003
   79TIP3    H1  201   5.384   2.302   1.123 -1.4991 -0.6340  0.0512
   79TIP3    H2  202   5.436   2.437   1.077  0.8321 -1.0436  1.3374
   80TIP3   OH2  203   5.772   0.691   4.408 -0.4002  0.4550  0.4979
   80TIP3    H1  204   5.858   0.732   4.418  0.5473 -1.3105  0.0366
   80TIP3    H2  205   5.722   0.753   4.355  1.5030  0.3071 -1.5991
   81TIP3   OH2  206   0.424   1.654   2.546  0.5950 -0.8690 -0.2202
   81TIP3    H1  207   0.454   1.609   2.625 -0.8829 -0.2401  0.7539
   81TIP3    H2  208   0.421   1.747   2.570  2.5680 -0.3053 -1.8581
   82TIP3   OH2  209   2.097   2.294   5.322  0.0727  0.1841 -0.5920
   82TIP3    H1  210   2.077   2.322   5.233 -1.1061 -1.6943 -0.9872
   82TIP3    H2  211   2.081   2.199   5.321  0.0745  0.1074  1.6071
   83TIP3   OH2  212   3.383   6.529   3.403 -0.3373 -0.3523 -0.1217
   83TIP3    H1  213   3.394   6.507   3.495 -0.0750 -0.8406 -0.2645
   83TIP3    H2  214   3.375   6.624   3.402 -2.1317 -0.4581  0.5669
   84TIP3   OH2  215   0.430   1.818   1.469  0.2474 -0.6213 -0.3707
   84TIP3    H1  216   0.350   1.814   1.522  0.6247 -0.2514  0.2341
   84TIP3    H2  217   0.499   1.840   1.531  0.5128  1.0574 -1.2158
   85TIP3   OH2  218   5.228   5.689   2.947  0.6759  0.0711 -0.0081
   85TIP3    H1  219   5.175   5.767   2.930 -1.9665 -1.4303  0.7463
   85TIP3    H2  220   5.257   5.699   3.038 -1.0144 -0.4976  0.6304
   86TIP3   OH2  221   6.630   6.033   3.381 -0.5551 -0.3758  0.4449
   86TIP3    H1  222   6.631   5.946   3.340 -0.9833 -1.1495  2.0205
   86TIP3    H2  223   6.553   6.031   3.438 -1.5236  1.6313 -0.6862
   87TIP3   OH2  224   2.768   3.772   4.905 -0.2697 -0.0846 -0.0042
   87TIP3    H1  225   2.837   3.767   4.838  1.5598 -2.0711  1.8616
   87TIP3    H2  226   2.793   3.845   4.960  1.6579 -1.9746  1.8352
   88TIP3   OH2  227   5.868   4.971   0.629 -0.5432  0.3296  0.2343
   88TIP3    H1  228   5.784   5.010   0.651 -0.6947  0.1506 -0.0238
   88TIP3    H2  229   5.933   5.030   0.668 -0.7963  0.0617  1.0828
   89TIP3   OH2  230   3.316   3.306   1.119 -0.2553 -0.6257 -0.0335
   89TIP3    H1  231   3.368   3.361   1.177  2.0477 -0.7741 -1.8257
   89TIP3    H2  232   3.241   3.280   1.172 -1.1497  3.5606  1.1899
   90TIP3   OH2  233   6.346   0.795   2.532  0.4822  0.7705 -0.0950
   90TIP3    H1  234   6.401   0.800   2.454  2.1183  2.6071  1.0848
   90TIP3    H2  235   6.311   0.883   2.543 -2.8217 -0.3046 -0.7637
   91TIP3   OH2  236   1.172   4.969   5.162 -0.3614  0.3423 -0.2342
   91TIP3    H1  237   1.206   4.901   5.103 -0.2012  0.8402 -0.7276
   91TIP3    H2  238   1.080   4.944   5.175 -0.8488  1.0480 -1.9608
   92TIP3   OH2  239   4.469   1.174   0.923  0.4701  0.3911  0.2231
   92TIP3    H1  240   4.520   1.127   0.858  1.0747 -2.3307  2.4451
   92TIP3    H2  241   4.529   1.238   0.960  0.3559  1.3930 -1.2488
   93TIP3   OH2  242   3.310   5.520   5.422  0.5605  0.1744  0.7099
   93TIP3    H1  243   3.247   5.589   5.444 -0.2257 -0.4000  0.3042
   93TIP3    H2  244   3.262   5.438   5.435  0.2243 -0.2414 -2.4271
   94TIP3   OH2  245   6.549   1.283   0.070  0.5643  0.8585 -0.2565
   94TIP3    H1  246   6.639   1.313   0.057  0.8772 -0.8945 -2.6491
   94TIP3    H2  247   6.549   1.193   0.038 -1.3280 -0.3303  2.6900
   95TIP3   OH2  248   0.139   1.463   4.608  0.1571  0.2653  0.6786
   95TIP3    H1  249   0.208   1.481   4.544 -2.4993  2.4676 -1.8357
   95TIP3    H2  250   0.173   1.498   4.691  0.9400  4.2751 -1.1083
   96TIP3   OH2  251   6.929   4.356   2.036  0.3228  0.4358 -0.6847
   96TIP3    H1  252   6.880   4.380   1.958  0.0404 -0.0330 -0.6504
   96TIP3    H2  253   6.870   4.377   2.109  0.8488  1.5399 -0.5496
   97TIP3   OH2  254   1.694   0.767   1.458 -0.2183 -0.1411  0.3453
   97TIP3    H1  255   1.669   0.841   1.513  3.0970 -0.2962  2.3524
   97TIP3    H2  256   1.668   0.690   1.507  1.1077 -0.2701  0.8908
   98TIP3   OH2  257   4.653   0.846   3.703 -0.3354 -0.1475 -0.1956
   98TIP3    H1  258   4.659   0.777   3.769 -0.1898  1.8948  2.0606
   98TIP3    H2  259   4.574   0.824   3.653 -0.5065 -1.7016  0.6947
   99TIP3   OH2  260   6.464   5.982   1.739 -0.1343 -0.0863 -0.2108
   99TIP3    H1  261   6.507   6.055   1.693 -0.1564 -0.4824 -0.8784
   99TIP3    H2  262   6.436   5.923   1.669  0.6439 -1.1622  0.3545
  100TIP3   OH2  263   3.359   0.467   4.122  0.6082 -0.6207  0.8271
  100TIP3    H1  264   3.369   0.377   4.153  1.7894  0.1525  2.8911
  100TIP3    H2  265   3.267   0.488   4.138 -0.4058 -2.2031 -2.0895
  101TIP3   OH2  266   6.256   2.498   4.630 -0.2332  0.4737  0.2159
  101TIP3    H1  267   6.310   2.507   4.552  2.0852  0.3676  1.7083
  101TIP3    H2  268   6.311   2.531   4.701 -1.9302 -0.1950  1.9317
  102TIP3   OH2  269   2.821   3.381   3.147 -0.0967 -0.3323 -0.3606
  102TIP3    H1  270   2.783   3.462   3.183  0.3567 -0.1162 -0.3633
  102TIP3    H2  271   2.838   3.401   3.055  2.0646  0.3461  0.1177
  103TIP3   OH2  272   5.022   2.087   5.127  0.2193  0.2877 -0.0112
  103TIP3    H1  273   4.939   2.079   5.079  0.5918 -0.6794 -0.5125
  103TIP3    H2  274   5.043   2.180   5.122 -0.4954  0.4324 -0.4656
  104TIP3   OH2  275   6.185   2.132   2.566  0.0087 -0.3725 -0.4006
  104TIP3    H1  276   6.157   2.134   2.474  1.1708  0.2382 -0.7600
  104TIP3    H2  277   6.188   2.038   2.588 -2.7743 -0.4874 -0.1506
  105TIP3   OH2  278   6.601   1.919  -0.029  0.1992  0.3754 -0.4337
  105TIP3    H1  279   6.672   1.984  -0.023  0.7657 -0.2722 -0.0053
  105TIP3    H2  280   6.553   1.930   0.053 -0.6307  1.2787 -1.0087
  106TIP3   OH2  281   0.487   2.034   5.356  0.0202 -0.4312 -0.0988
  106TIP3    H1  282   0.572   2.006   5.391  0.4258 -0.1155 -0.8009
  106TIP3    H2  283   0.422   1.992   5.412  0.5943  2.2865  2.9095
  107TIP3   OH2  284   1.771   0.798   2.443  0.0619 -0.0421  0.6410
  107TIP3    H1  285   1.687   0.827   2.477 -0.2129 -0.0920  0.0107
  107TIP3    H2  286   1.818   0.765   2.520 -0.5003 -0.0405  0.9876
  108TIP3   OH2  287   6.991   5.754   0.110  0.2584 -0.4292  0.5853
  108TIP3    H1  288   6.966   5.833   0.157 -1.9027 -0.1310 -0.9372
  108TIP3    H2  289   7.013   5.785   0.021  1.5142 -1.3031  0.5652
  109TIP3   OH2  290   3.165   4.439   4.888  0.8283 -0.2911  1.1532
  109TIP3    H1  291   3.238   4.377   4.897  0.1910 -1.1976  0.1988
  109TIP3    H2  292   3.175   4.475   4.800 -0.2752 -0.9254  0.7667
  110TIP3   OH2  293   4.560   2.976   3.930 -0.1816 -0.2281 -0.3302
  110TIP3    H1  294   4.655   2.979   3.942  0.1246 -0.6932 -2.2676
  110TIP3    H2  295   4.528   2.921   4.001  0.9529  0.1581  0.5066
  111TIP3   OH2  296   1.927   2.662   0.902  0.1025  0.1838 -0.0449
  111TIP3    H1  297   1.856   2.656   0.966 -0.4894 -0.6060 -0.7471
  111TIP3    H2  298   1.963   2.574   0.898  0.6837  0.4264 -0.1856
  112TIP3   OH2  299   3.749   6.175   3.050  0.2769 -0.0342  0.1640
  112TIP3    H1  300   3.763   6.137   3.137  0.2587 -0.8109 -0.1593
  112TIP3    H2  301   3.833   6.161   3.005  0.5218  1.0054  0.2873
  113TIP3   OH2  302   7.030   5.435   1.414 -0.1451 -0.3503  0.1101
  113TIP3    H1  303   7.080   5.410   1.492 -2.2224 -0.4835  1.4668
  113TIP3    H2  304   7.024   5.355   1.363  1.2663 -0.2566 -0.2309
  114TIP3   OH2  305   4.708   5.886   3.159  0.2745  0.0830 -0.3284
  114TIP3    H1  306   4.787   5.940   3.165  0.8926 -0.8238 -0.0302
  114TIP3    H2  307   4.649   5.937   3.104  1.4719  0.3098 -1.4706
  115TIP3   OH2  308   3.470   4.667   2.074 -0.9740  0.2301  0.2410
  115TIP3    H1  309   3.524   4.745   2.088 -0.3886 -0.4514  2.0390
  115TIP3    H2  310   3.381   4.696   2.096 -0.7571  0.4125  0.9241
  116TIP3   OH2  311   6.529   4.400   3.406 -0.6905  0.0710 -0.1498
  116TIP3    H1  312   6.567   4.313   3.392  2.4870  1.7284 -3.5247
  116TIP3    H2  313   6.595   4.448   3.456 -1.0689  1.3129 -0.7932
  117TIP3   OH2  314   5.810   4.558   2.091  0.5572 -0.7350 -0.5826
  117TIP3    H1  315   5.879   4.498   2.066  0.5712 -1.2317  0.5873
  117TIP3    H2  316   5.824   4.574   2.185 -1.8442 -2.1542  0.1019
  118TIP3   OH2  317   5.735   2.017   0.541 -0.1677  0.3373  0.0155
  118TIP3    H1  318   5.694   2.038   0.457 -0.4685  1.1252  0.3501
  118TIP3    H2  319   5.801   2.085   0.553  0.4836 -0.2907  0.0006
  119TIP3   OH2  320   5.104   0.512   4.488 -0.2448  0.6912  0.0700
  119TIP3    H1  321   5.192   0.543   4.466 -0.1168 -0.4711 -1.1730
  119TIP3    H2  322   5.064   0.586   4.533  0.7706  1.8786 -0.8764
  120TIP3   OH2  323   1.171   0.635   1.326  0.1379 -0.4710  0.0899
  120TIP3    H1  324   1.200   0.550   1.295 -0.7658 -0.3788 -1.0700
  120TIP3    H2  325   1.076   0.636   1.310  0.2355  0.9970 -0.5607
  121TIP3   OH2  326   0.688   2.694   0.948  0.0776 -0.0877  0.2414
  121TIP3    H1  327   0.727   2.771   0.989 -0.6521  0.0837  0.6239
  121TIP3    H2  328   0.603   2.725   0.917 -0.3365 -0.8160  0.6454
  122TIP3   OH2  329   1.197   3.445   0.838 -0.2435  0.2577 -0.0986
  122TIP3    H1  330   1.121   3.425   0.783 -0.7067  0.3389  0.5053
  122TIP3    H2  331   1.179   3.531   0.875  0.4295  0.5493 -0.4304
  123TIP3   OH2  332   4.969   3.072   3.218 -0.1519 -0.4942  0.0382
  123TIP3    H1  333   5.012   3.066   3.133  0.6243 -1.5142  0.4838
  123TIP3    H2  334   5.015   3.009   3.273 -0.6720  0.1209  1.2111
  124TIP3   OH2  335   6.724   2.065   3.860 -0.0285 -0.1264 -0.2572
  124TIP3    H1  336   6.700   2.051   3.951 -0.3628 -1.2602 -0.5048
  124TIP3    H2  337   6.806   2.115   3.864 -0.9337  1.3704  0.6217
  125TIP3   OH2  338   3.680   4.583   4.815 -0.0604  0.4577 -0.1080
  125TIP3    H1  339   3.641   4.606   4.731  0.9018  0.8256 -0.4743
  125TIP3    H2  340   3.716   4.495   4.801 -0.1769  0.3899  0.0175
  126TIP3   OH2  341   4.154   6.672   5.050  0.6855 -0.3131  0.2942
  126TIP3    H1  342   4.118   6.617   4.981  0.8946 -0.2585  0.1424
  126TIP3    H2  343   4.174   6.755   5.008 -0.6030  0.2556  0.7446
  127TIP3   OH2  344   2.538   2.123   3.713 -0.0708  1.1277 -0.2836
  127TIP3    H1  345   2.611   2.170   3.674  0.3550  0.6102 -0.1186
  127TIP3    H2  346   2.503   2.184   3.779  1.1678  0.8094  0.7095
  128TIP3   OH2  347   0.485   5.168   4.563  0.2269  0.5364 -0.5321
  128TIP3    H1  348   0.541   5.210   4.498 -0.5496  1.5309 -0.5826
  128TIP3    H2  349   0.441   5.241   4.608  1.1135 -0.0792  1.4750
  129TIP3   OH2  350   7.045   0.640   4.224  0.0850 -0.1452 -0.0574
  129TIP3    H1  351   7.084   0.706   4.281 -0.2617  0.4545 -0.5006
  129TIP3    H2  352   7.055   0.558   4.271  0.5100  0.2281  0.5095
  130TIP3   OH2  353   0.814   3.698   3.749 -0.2368 -0.2192 -0.2921
  130TIP3    H1  354   0.822   3.777   3.802  5.1063 -0.1223 -0.7460
  130TIP3    H2  355   0.798   3.730   3.660  1.7663  0.4921 -0.4508
  131TIP3   OH2  356   3.766   1.300   3.687 -0.3057  0.3959  0.6216
  131TIP3    H1  357   3.827   1.306   3.761  0.3281 -3.1547  0.5370
  131TIP3    H2  358   3.700   1.236   3.715 -1.9567  1.4008 -0.7181
  132TIP3   OH2  359   0.306   0.869   2.551 -0.3768 -0.0396 -0.5140
  132TIP3    H1  360   0.288   0.780   2.523  1.2673 -0.1347 -1.4119
  132TIP3    H2  361   0.388   0.892   2.506 -0.1783  1.5203  0.5653
  133TIP3   OH2  362   2.865   2.012   1.686  0.0319 -0.0914  0.5028
  133TIP3    H1  363   2.950   2.042   1.655 -1.1248  0.8448 -2.0594
  133TIP3    H2  364   2.804   2.082   1.660 -1.8095 -1.6724  0.3341
  134TIP3   OH2  365   6.012   1.511   3.610  0.3896  0.4467  0.1155
  134TIP3    H1  366   5.935   1.569   3.614  0.0337 -0.0036 -0.0983
  134TIP3    H2  367   5.979   1.426   3.640  0.5418 -0.0233 -1.0143
  135TIP3   OH2  368   5.624   2.830   4.228 -0.1448 -0.0598 -0.5631
  135TIP3    H1  369   5.589   2.791   4.148  0.4966 -0.3040 -0.7322
  135TIP3    H2  370   5.631   2.757   4.290 -0.0696  0.0086 -0.4891
  136TIP3   OH2  371   4.312   2.904   4.274 -0.0421 -0.6258  0.1719
  136TIP3    H1  372   4.282   2.958   4.201  1.0919  1.4392  1.1628
  136TIP3    H2  373   4.407   2.912   4.273  0.0460 -1.2397  1.3774
  137TIP3   OH2  374   0.927   0.773   1.927 -0.3631 -0.1598  0.0530
  137TIP3    H1  375   1.013   0.807   1.901 -0.8200 -0.1553 -1.5841
  137TIP3    H2  376   0.941   0.733   2.012  1.4226 -0.8029 -0.5143
  138TIP3   OH2  377   1.173   5.567   2.168 -0.4098 -0.1502  0.2373
  138TIP3    H1  378   1.159   5.642   2.110  0.7669  1.2227  1.6332
  138TIP3    H2  379   1.267   5.550   2.162 -0.2457  0.0902  1.7823
  139TIP3   OH2  380   6.673   4.355   0.115 -0.0838  0.0516  0.5421
  139TIP3    H1  381   6.668   4.363   0.020  1.6261  4.1881  0.5839
  139TIP3    H2  382   6.583   4.363   0.145 -0.3375  2.7075 -0.6989
  140TIP3   OH2  383   6.483   2.262   3.623  0.0002  0.2248 -0.4337
  140TIP3    H1  384   6.482   2.170   3.648 -0.6222  0.0052 -1.2424
  140TIP3    H2  385   6.576   2.282   3.608 -0.0226 -0.9264 -2.5379
  141TIP3   OH2  386   3.146   2.835   2.014 -0.3059 -0.0902  0.1375
  141TIP3    H1  387   3.146   2.927   1.989 -0.5499  0.0493  0.6408
  141TIP3    H2  388   3.093   2.792   1.946 -0.5368  0.2021  0.1290
  142TIP3   OH2  389   5.316   0.177   1.436  0.3794 -0.1030 -0.3233
  142TIP3    H1  390   5.355   0.250   1.484 -0.1403 -0.0626  0.0549
  142TIP3    H2  391   5.226   0.205   1.418  0.5263 -0.1747 -1.2171
  143TIP3   OH2  392   4.496   1.986   2.384 -0.4854 -0.2302 -0.2543
  143TIP3    H1  393   4.443   1.963   2.308 -1.0223 -0.2864  0.1375
  143TIP3    H2  394   4.495   1.907   2.439 -0.2479 -0.1264 -0.0962
  144TIP3   OH2  395   1.566   0.213   2.859  0.5745 -0.1583 -0.0216
  144TIP3    H1  396   1.509   0.188   2.786 -2.2706  0.3687  1.8767
  144TIP3    H2  397   1.539   0.302   2.881  1.9612  0.0056  1.1643
  145TIP3   OH2  398   1.541   2.498   1.718  0.8374  0.1203 -0.0417
  145TIP3    H1  399   1.580   2.487   1.631 -1.0754  0.3089 -0.9648
  145TIP3    H2  400   1.563   2.417   1.765 -1.3146 -1.7485 -2.0244
  146TIP3   OH2  401   3.489   4.453   2.392  0.0143 -0.0719  0.1015
  146TIP3    H1  402   3.457   4.543   2.400  0.1735 -0.0855  0.8977
  146TIP3    H2  403   3.584   4.462   2.386 -0.0088 -0.1508 -0.4982
  147TIP3   OH2  404   1.601   5.443   1.078  0.6857  0.9552 -0.0297
  147TIP3    H1  405   1.614   5.349   1.060 -1.8498  0.9125 -2.3469
  147TIP3    H2  406   1.679   5.485   1.041  0.4877 -0.0863 -1.7913
  148TIP3   OH2  407   5.280   0.976   4.518 -0.0369  0.1069  0.5843
  148TIP3    H1  408   5.299   1.053   4.572  0.7815  0.6876 -0.4892
  148TIP3    H2  409   5.265   0.906   4.581 -0.2728  1.0223  1.5830
  149TIP3   OH2  410   4.842   4.497   1.100  0.2698 -0.4861 -0.0527
  149TIP3    H1  411   4.778   4.426   1.095 -1.7997  1.2717 -0.1889
  149TIP3    H2  412   4.875   4.495   1.190  0.4781 -1.7565 -0.1387
  150TIP3   OH2  413   2.325   4.234   3.655  0.5670 -0.0566 -0.1893
  150TIP3    H1  414   2.354   4.297   3.589  0.4316  0.6993  0.4705
  150TIP3    H2  415   2.253   4.187   3.612  0.1658  0.7468 -0.4181
  151TIP3   OH2  416   2.035   1.015   3.496  0.2985 -0.2032  0.2944
  151TIP3    H1  417   2.104   1.051   3.553  3.4586  0.8264 -3.7006
  151TIP3    H2  418   1.987   1.092   3.464 -0.2782 -0.5903  0.2089
  152TIP3   OH2  419   4.774   0.709   3.444  0.9656 -0.1852  0.0723
  152TIP3    H1  420   4.709   0.780   3.442  1.6647  0.4589 -1.1530
  152TIP3    H2  421   4.788   0.688   3.352  2.0373 -0.7405  0.3599
  153TIP3   OH2  422   0.867   1.570   1.630  0.3637 -0.2990 -0.7748
  153TIP3    H1  423   0.937   1.622   1.669 -1.2834  1.6681 -0.2357
  153TIP3    H2  424   0.860   1.604   1.540  0.4457 -0.8669 -0.9995
  154TIP3   OH2  425   4.490   0.489   5.112  0.3255 -0.9721 -0.1999
  154TIP3    H1  426   4.490   0.400   5.148  0.7800 -0.4353  1.1674
  154TIP3    H2  427   4.401   0.502   5.080 -0.2602 -1.2710  1.2575
  155TIP3   OH2  428   2.746   4.023   3.946 -0.1648 -0.1618 -0.0395
  155TIP3    H1  429   2.735   3.929   3.938  0.7465 -0.2971  0.2857
  155TIP3    H2  430   2.709   4.045   4.031  0.6640 -0.3958  0.3862
  156TIP3   OH2  431   5.160   5.532   5.075  0.2052  0.3826 -0.3676
  156TIP3    H1  432   5.129   5.622   5.069 -1.1144  0.1016  1.4274
  156TIP3    H2  433   5.204   5.527   5.159 -0.2559 -0.7937 -0.1765
  157TIP3   OH2  434   0.239   5.850   5.283 -0.1951 -0.0063 -0.1984
  157TIP3    H1  435   0.206   5.768   5.246  2.6169 -0.1708 -2.7562
  157TIP3    H2  436   0.287   5.824   5.362  0.3418 -0.8150 -0.7747
  158TIP3   OH2  437   0.423   4.065   4.586  0.1241  0.4682 -0.2728
  158TIP3    H1  438   0.421   4.116   4.505 -0.7920  1.6183  0.4405
  158TIP3    H2  439   0.500   4.096   4.633 -1.0290  2.0558  0.6560
  159TIP3   OH2  440   1.038   1.337   1.111  0.0569 -0.5341  0.4613
  159TIP3    H1  441   0.968   1.308   1.170  0.5883 -0.7079  1.0167
  159TIP3    H2  442   1.107   1.368   1.169  0.2383  0.1276 -0.0938
  160TIP3   OH2  443   1.881   4.936   5.225  0.6981  0.3375  0.0062
  160TIP3    H1  444   1.788   4.957   5.214  0.7387  0.8550  0.5435
  160TIP3    H2  445   1.907   4.986   5.303  1.7309  1.2143 -0.8611
  161TIP3   OH2  446   0.996   2.658   2.824 -0.1974  0.0417 -0.0232
  161TIP3    H1  447   1.074   2.694   2.782 -1.3103  0.9562 -1.4201
  161TIP3    H2  448   0.927   2.668   2.758 -1.0801 -2.6136  0.3852
  162TIP3   OH2  449   2.537   4.822   2.348 -0.3120 -0.6963 -0.2744
  162TIP3    H1  450   2.612   4.873   2.379 -0.8921 -0.7912  1.3352
  162TIP3    H2  451   2.465   4.847   2.406 -0.8938 -2.4768 -0.1875
  163TIP3   OH2  452   6.948   6.148   5.757 -0.1809  0.6282 -0.2086
  163TIP3    H1  453   6.863   6.156   5.713  0.2839  0.0071 -1.2691
  163TIP3    H2  454   7.000   6.092   5.699  0.8637  0.7614  0.5625
  164TIP3   OH2  455   0.551   1.566   2.773 -0.1947 -0.5804 -0.1997
  164TIP3    H1  456   0.554   1.639   2.835  1.5256  0.4300 -1.3625
  164TIP3    H2  457   0.629   1.514   2.793  1.0044  0.3687 -2.1129
  165TIP3   OH2  458   2.922   4.799   5.646  0.2113 -0.2111 -0.6460
  165TIP3    H1  459   2.945   4.792   5.739 -0.1147  0.1872 -0.5295
  165TIP3    H2  460   2.854   4.733   5.633 -0.3525  0.3066 -0.3922
  166TIP3   OH2  461   1.117   4.769   4.766 -0.1989 -0.1310 -0.3384
  166TIP3    H1  462   1.052   4.833   4.735 -0.7530  0.2219  1.4026
  166TIP3    H2  463   1.143   4.721   4.688 -2.8292 -0.5097 -1.0788
  167TIP3   OH2  464   6.783   1.642   1.445  0.0961 -0.2597 -0.4597
  167TIP3    H1  465   6.730   1.677   1.517  0.0184 -0.0904 -0.5971
  167TIP3    H2  466   6.721   1.628   1.374  0.0550 -1.0903 -0.2655
  168TIP3   OH2  467   0.571   4.930   4.902  0.0157 -0.2672  0.2557
  168TIP3    H1  468   0.475   4.923   4.904  0.0019  0.0920  0.8851
  168TIP3    H2  469   0.594   4.901   4.814 -0.5717 -1.6119  0.5167
  169TIP3   OH2  470   2.411   2.663   2.943 -0.5376 -0.1684  0.0688
  169TIP3    H1  471   2.420   2.756   2.920 -0.6167 -0.2975 -0.5198
  169TIP3    H2  472   2.335   2.634   2.893  0.4894 -0.9522 -1.1295
  170TIP3   OH2  473   5.814   2.641   3.983 -0.2252 -0.1134 -0.3033
  170TIP3    H1  474   5.875   2.567   3.984 -1.3376 -1.0608 -0.7617
  170TIP3    H2  475   5.833   2.688   3.902  1.0233  0.5894  0.3724
  171TIP3   OH2  476   0.100   4.269   4.342 -0.0201 -0.1764 -0.4062
  171TIP3    H1  477   0.029   4.310   4.392 -0.4313 -1.2513 -0.0778
  171TIP3    H2  478   0.061   4.190   4.304  1.7261 -2.7492  2.5773
  172TIP3   OH2  479   6.027   2.281   1.454 -0.7153 -0.1572 -0.1235
  172TIP3    H1  480   6.040   2.359   1.401  0.0292 -0.1024  0.1348
  172TIP3    H2  481   5.986   2.313   1.534 -0.7979 -0.0925 -0.1910
  173TIP3   OH2  482   6.795   5.717   5.684  0.3032  0.7186  0.2222
  173TIP3    H1  483   6.739   5.654   5.728  1.0298 -0.7046 -0.8095
  173TIP3    H2  484   6.849   5.755   5.753 -2.1619  2.4802  1.3191
  174TIP3   OH2  485   3.269   5.636   3.579  0.4517  0.3625 -0.1762
  174TIP3    H1  486   3.184   5.678   3.590  1.1856  1.4576  1.8328
  174TIP3    H2  487   3.328   5.705   3.549  1.0835  0.1432  0.5174
  175TIP3   OH2  488   5.629   0.225   1.746  0.2891 -0.0795 -0.3068
  175TIP3    H1  489   5.600   0.188   1.662  0.2668 -0.4512 -0.1375
  175TIP3    H2  490   5.722   0.243   1.733 -0.0232  1.2762 -0.9098
  176TIP3   OH2  491   3.408   5.312   1.215  0.2259  0.0573 -0.2182
  176TIP3    H1  492   3.448   5.226   1.202  0.0116  0.1007 -1.2655
  176TIP3    H2  493   3.439   5.364   1.141 -1.4290  0.2061 -0.8493
  177TIP3   OH2  494   2.129   5.000   5.787  0.0444 -0.4402  0.0292
  177TIP3    H1  495   2.044   5.026   5.821  0.4980 -1.8227  2.4157
  177TIP3    H2  496   2.188   5.070   5.813 -0.1426 -0.0311 -0.6283
  178TIP3   OH2  497   1.147   0.259   0.503  0.2589  0.1665 -0.3264
  178TIP3    H1  498   1.232   0.272   0.546  0.4439  1.3922 -1.0102
  178TIP3    H2  499   1.123   0.169   0.525  1.7861 -0.2536 -0.1976
  179TIP3   OH2  500   2.001   3.034   5.535 -0.3086 -0.4529 -0.2410
  179TIP3    H1  501   1.941   3.003   5.467 -0.8619 -1.0252  0.5017
  179TIP3    H2  502   2.068   2.966   5.541 -1.0531 -1.1193  0.7854
  180TIP3   OH2  503   6.806   6.630   0.764  0.3723 -0.0666 -0.3416
  180TIP3    H1  504   6.888   6.677   0.777  0.9021 -1.1601  0.4647
  180TIP3    H2  505   6.740   6.682   0.810  0.1377  1.9472 -2.7061
  181TIP3   OH2  506   5.329   2.136   2.746 -0.0247 -0.7864 -0.1686
  181TIP3    H1  507   5.325   2.041   2.737  0.7629 -0.7030 -1.7160
  181TIP3    H2  508   5.421   2.158   2.730 -0.2322  0.2584 -0.0077
  182TIP3   OH2  509   2.347   3.228   4.715 -0.0648  0.0678 -0.6519
  182TIP3    H1  510   2.366   3.300   4.775  0.7409 -0.6478 -0.0306
  182TIP3    H2  511   2.287   3.266   4.650  1.0067  1.5210 -0.8332
  183TIP3   OH2  512   4.895   3.355   3.204  0.3568  0.3916 -0.4131
  183TIP3    H1  513   4.898   3.260   3.189 -1.9765  0.4558 -1.9017
  183TIP3    H2  514   4.949   3.392   3.135 -0.8083  0.1950 -1.4717
  184TIP3   OH2  515   0.060   5.813   0.309  0.0111 -0.2529  0.4266
  184TIP3    H1  516   0.028   5.867   0.381  2.0440 -0.3443  1.4639
  184TIP3    H2  517  -0.007   5.744   0.298 -0.2611 -0.3229  2.3231
  185TIP3   OH2  518   2.695   2.356   3.314 -0.3117 -0.7523 -0.0223
  185TIP3    H1  519   2.761   2.305   3.267  0.1418  0.6384 -0.9698
  185TIP3    H2  520   2.643   2.397   3.245 -1.5668 -1.0611  0.7123
  186TIP3   OH2  521   5.674   4.093   0.089  0.1523 -0.0578 -0.5766
  186TIP3    H1  522   5.712   4.180   0.096 -0.2496  0.1014 -0.3098
  186TIP3    H2  523   5.749   4.033   0.093  0.4472  0.2778 -0.9526
  187TIP3   OH2  524   7.064   1.621   2.360  0.1916 -0.2381  0.2479
  187TIP3    H1  525   7.158   1.611   2.370  0.2604  1.7217  2.4988
  187TIP3    H2  526   7.026   1.577   2.436 -0.7564 -1.2089 -0.7517
  188TIP3   OH2  527   3.479   0.408   4.693  0.0893 -0.5458  0.2197
  188TIP3    H1  528   3.490   0.474   4.625  0.3381 -0.7183  0.0909
  188TIP3    H2  529   3.412   0.444   4.751 -0.1363 -0.4078 -0.1258
  189TIP3   OH2  530   2.441   4.724   3.123 -0.1726 -0.4578  0.3662
  189TIP3    H1  531   2.364   4.692   3.076  0.1561  1.0567 -1.2936
  189TIP3    H2  532   2.457   4.657   3.189 -1.9851 -1.5789 -0.2399
  190TIP3   OH2  533   4.549   0.140   3.740  0.0663  0.4908  0.0102
  190TIP3    H1  534   4.572   0.202   3.809  0.6473 -0.4165  0.6510
  190TIP3    H2  535   4.569   0.055   3.777 -0.3241 -0.0593 -1.0151
  191TIP3   OH2  536   6.197   1.222   3.600 -0.4801 -0.2598 -0.1628
  191TIP3    H1  537   6.273   1.254   3.552 -2.1554  1.5330 -1.7843
  191TIP3    H2  538   6.226   1.139   3.638  1.9586 -0.1221 -1.5215
  192TIP3   OH2  539   6.420   0.249   1.208 -0.0880  0.3543  0.1703
  192TIP3    H1  540   6.436   0.305   1.284  0.7575  1.8940 -1.0866
  192TIP3    H2  541   6.507   0.219   1.181 -0.2619  0.6993 -0.8153
  193TIP3   OH2  542   0.063   1.763   3.353  0.2680 -0.3541 -0.2677
  193TIP3    H1  543  -0.030   1.769   3.372  0.5286 -0.6225  1.1822
  193TIP3    H2  544   0.071   1.790   3.261 -0.9750  1.7807  0.1921
  194TIP3   OH2  545   7.200   1.022   5.596 -0.1031 -0.3268 -0.1360
  194TIP3    H1  546   7.182   1.087   5.665 -1.7261 -0.4469 -0.3946
  194TIP3    H2  547   7.148   0.945   5.622 -0.4280 -0.5071 -1.2789
  195TIP3   OH2  548   3.427   2.720   4.574  0.2602 -0.7623  0.3985
  195TIP3    H1  549   3.333   2.725   4.591  0.5840  2.1899  1.9365
  195TIP3    H2  550   3.443   2.628   4.552 -2.7277 -1.6561  1.5474
  196TIP3   OH2  551   5.275   4.624   1.544 -0.9054 -0.3617  0.6402
  196TIP3    H1  552   5.278   4.713   1.511 -0.8922 -1.0200 -1.2820
  196TIP3    H2  553   5.362   4.588   1.524 -1.0064 -0.8868  1.1168
  197TIP3   OH2  554   1.710   1.284   5.126  0.2557  0.5203  0.2003
  197TIP3    H1  555   1.663   1.246   5.052  1.8040  1.1812 -1.1622
  197TIP3    H2  556   1.709   1.214   5.192 -2.9163  0.6318  0.4527
  198TIP3   OH2  557   1.095   3.353   5.212 -0.4544  0.0919  0.0974
  198TIP3    H1  558   1.050   3.275   5.246  1.1407 -0.7871  0.2703
  198TIP3    H2  559   1.088   3.417   5.283 -1.1779 -0.1090  0.2232
  199TIP3   OH2  560   5.125   6.524   4.163 -0.1061 -0.8048  0.3694
  199TIP3    H1  561   5.044   6.566   4.135  0.1544 -1.1154 -0.9048
  199TIP3    H2  562   5.151   6.571   4.242 -1.7889 -1.0266  1.1029
  200TIP3   OH2  563   1.566   6.286   0.576  1.0566  0.4322  0.7586
  200TIP3    H1  564   1.530   6.342   0.506  0.4876 -0.7099  0.1152
  200TIP3    H2  565   1.499   6.219   0.589  2.7633 -1.5613 -0.2422
  201TIP3   OH2  566   5.908   3.886   4.393  0.1447 -0.1681  0.0822
  201TIP3    H1  567   5.926   3.805   4.440  1.1619  0.8185  1.4939
  201TIP3    H2  568   5.820   3.912   4.421  0.4818  0.0645  0.9742
  202TIP3   OH2  569   5.094   0.784   5.425  0.1630 -0.0185 -0.1032
  202TIP3    H1  570   5.077   0.691   5.413  1.6216 -0.1305 -1.6687
  202TIP3    H2  571   5.015   0.818   5.467 -0.3489 -1.9663  0.6096
  203TIP3   OH2  572   4.751   3.564   2.505  0.3825  0.1142  0.0493
  203TIP3    H1  573   4.671   3.543   2.554 -0.5645  1.2748 -0.9194
  203TIP3    H2  574   4.737   3.526   2.418  1.6513 -1.1376  0.3520
  204TIP3   OH2  575   0.292   5.853   0.511  0.3455 -0.0600 -0.1347
  204TIP3    H1  576   0.258   5.936   0.477 -0.0834  1.3739  3.4151
  204TIP3    H2  577   0.214   5.804   0.535  0.6481 -0.0963  0.7913
  205TIP3   OH2  578   0.441   2.421   0.753 -0.0108  0.3636 -0.3729
  205TIP3    H1  579   0.506   2.357   0.724 -0.1891  0.3917 -0.8597
  205TIP3    H2  580   0.455   2.430   0.847 -0.1939 -0.6386 -0.2401
  206TIP3   OH2  581   6.866   3.129   0.786 -0.3366 -0.5975  0.4608
  206TIP3    H1  582   6.938   3.077   0.822 -0.4745 -0.8769  0.3406
  206TIP3    H2  583   6.792   3.068   0.784 -1.0202  0.1263  2.0721
  207TIP3   OH2  584   0.299   4.238   5.379 -0.0562  0.4320 -0.4089
  207TIP3    H1  585   0.343   4.320   5.359  0.8771 -0.3006 -1.5164
  207TIP3    H2  586   0.239   4.224   5.305  0.6128 -0.4157 -0.8106
  208TIP3   OH2  587   6.478   6.413   0.368 -0.3920  0.3173  0.0123
  208TIP3    H1  588   6.394   6.410   0.415 -0.3455  3.0801  0.4286
  208TIP3    H2  589   6.535   6.464   0.424  1.4824 -1.0773 -0.5196
  209TIP3   OH2  590   6.787   6.242   2.973  0.6175 -0.0929  0.1777
  209TIP3    H1  591   6.876   6.206   2.980  0.4963 -0.2037  1.4622
  209TIP3    H2  592   6.794   6.330   3.012  0.0256 -0.3720  0.9364
  210TIP3   OH2  593   3.916   6.745   4.191 -0.3685 -0.0905 -0.5633
  210TIP3    H1  594   3.840   6.793   4.158 -0.1611  1.3170  0.8766
  210TIP3    H2  595   3.920   6.768   4.284  1.9871  0.1140 -0.6694
  211TIP3   OH2  596   4.336   1.372   5.550  0.0337  0.5237  0.7076
  211TIP3    H1  597   4.368   1.428   5.621  0.8603  0.4112  0.4349
  211TIP3    H2  598   4.408   1.311   5.533  0.0924  0.9472 -0.6456
  212TIP3   OH2  599   4.839   0.973   3.506 -0.3812  0.2759 -0.5718
  212TIP3    H1  600   4.853   0.879   3.515  0.4680  0.3686 -0.8583
  212TIP3    H2  601   4.817   1.002   3.595 -1.1626 -0.2659 -0.5755
  213TIP3   OH2  602   5.174   4.800   3.565 -0.4894 -0.0744  0.1507
  213TIP3    H1  603   5.115   4.780   3.638 -1.4468 -0.1054 -0.6114
  213TIP3    H2  604   5.138   4.751   3.491  0.2879  0.1968 -0.4183
  214TIP3   OH2  605   4.418   2.684   3.187 -0.4573 -0.1454  0.2632
  214TIP3    H1  606   4.338   2.649   3.148 -1.0788 -0.3605  1.6813
  214TIP3    H2  607   4.409   2.779   3.178  0.0107 -0.2109 -1.2237
  215TIP3   OH2  608   6.553   2.560   2.431  0.0644  0.1503  0.4580
  215TIP3    H1  609   6.576   2.578   2.340 -0.4891 -0.3495  0.2186
  215TIP3    H2  610   6.630   2.515   2.467 -0.3694 -1.1492 -0.2231
  216TIP3   OH2  611   3.530   2.581   5.724 -0.1403  0.2929  0.1624
  216TIP3    H1  612   3.529   2.593   5.629 -2.1467 -2.9328 -0.4159
  216TIP3    H2  613   3.491   2.661   5.759 -1.0745  0.8332 -1.9282
  217TIP3   OH2  614   6.485   2.597   2.163 -0.4828  0.2733 -0.7534
  217TIP3    H1  615   6.517   2.685   2.181 -1.6755  0.3288  1.4067
  217TIP3    H2  616   6.393   2.609   2.139 -2.3425 -0.5072  4.5980
  218TIP3   OH2  617   4.776   5.030   3.253  0.2299  0.1018  0.2628
  218TIP3    H1  618   4.697   5.082   3.241 -0.7976 -0.1345  4.5133
  218TIP3    H2  619   4.756   4.945   3.212 -0.0554  1.2497 -2.1609
  219TIP3   OH2  620   5.230   3.288   0.349  0.3547  0.2197 -0.2048
  219TIP3    H1  621   5.267   3.324   0.268  2.0753  1.8144  1.2117
  219TIP3    H2  622   5.305   3.260   0.401 -0.7998 -3.3288 -0.1525
  220TIP3   OH2  623   2.611   3.895   5.673 -0.3028 -0.0571  0.4491
  220TIP3    H1  624   2.663   3.925   5.747  0.9422  0.0875 -0.4496
  220TIP3    H2  625   2.674   3.853   5.614 -1.6037 -2.3953  0.5758
  221TIP3   OH2  626   5.785   4.796   5.536 -0.5283 -1.0177 -0.3677
  221TIP3    H1  627   5.773   4.709   5.574 -2.1979 -0.2217  1.0656
  221TIP3    H2  628   5.738   4.792   5.453  0.7938 -1.9386 -1.1126
  222TIP3   OH2  629   0.349   0.613   2.751 -0.3872  0.2034  0.5813
  222TIP3    H1  630   0.409   0.688   2.752 -2.8094  2.3427 -1.1879
  222TIP3    H2  631   0.345   0.585   2.843 -0.9015  3.6434  1.7887
  223TIP3   OH2  632   5.902   3.838   5.898 -0.1107  0.8076  0.0733
  223TIP3    H1  633   5.821   3.808   5.939  0.8624 -2.5478 -0.1596
  223TIP3    H2  634   5.910   3.785   5.819  3.1773 -0.4079  1.0521
  224TIP3   OH2  635   5.912   2.584   2.332 -0.3527  0.6133  0.6520
  224TIP3    H1  636   5.878   2.533   2.406  1.3719  0.2022  1.2202
  224TIP3    H2  637   5.923   2.519   2.262 -1.6288  0.9317  0.1415
  225TIP3   OH2  638   1.235   0.785   2.099  0.8803 -0.1417 -0.3508
  225TIP3    H1  639   1.216   0.785   2.193  1.7612  1.6170 -0.1281
  225TIP3    H2  640   1.324   0.820   2.093  1.0850 -0.8430 -1.8179
  226TIP3   OH2  641   0.289   0.938   3.598 -0.2376  0.3211 -0.2192
  226TIP3    H1  642   0.313   0.925   3.690  0.3248  1.2851 -0.2063
  226TIP3    H2  643   0.235   0.863   3.575  0.4763 -0.4606  0.6068
  227TIP3   OH2  644   4.066   5.126   2.797 -0.2112  0.4437 -0.6050
  227TIP3    H1  645   4.046   5.186   2.725 -1.3430 -0.1310 -0.7859
  227TIP3    H2  646   4.161   5.126   2.802 -0.1741  3.1024  0.1020
  228TIP3   OH2  647   6.856   5.480   0.514  0.3369 -0.2321 -0.8379
  228TIP3    H1  648   6.902   5.478   0.430 -0.6683 -2.2808 -1.4180
  228TIP3    H2  649   6.781   5.537   0.499 -0.8485 -1.9806 -1.9813
  229TIP3   OH2  650   4.572   1.562   4.161 -0.4441  0.1559  0.4650
  229TIP3    H1  651   4.629   1.607   4.223  1.1061  0.1150 -0.8821
  229TIP3    H2  652   4.522   1.633   4.120 -0.5969  0.2861  0.8605
  230TIP3   OH2  653   1.525   3.043   0.298 -0.2620  0.0103 -0.4451
  230TIP3    H1  654   1.473   2.989   0.358  0.2874 -0.1084 -0.0659
  230TIP3    H2  655   1.461   3.098   0.253 -0.8089 -0.7575 -0.6356
  231TIP3   OH2  656   3.736   2.127   2.641  0.0124  0.3017  0.3531
  231TIP3    H1  657   3.829   2.148   2.640  0.3201 -1.0125  0.3611
  231TIP3    H2  658   3.722   2.085   2.726 -0.0898 -1.5614 -0.5385
  232TIP3   OH2  659   7.154   0.330   0.670  0.2633 -0.0675 -0.4672
  232TIP3    H1  660   7.072   0.287   0.647 -0.3385  1.4645 -1.2995
  232TIP3    H2  661   7.147   0.347   0.764  0.3347 -1.3394 -0.2075
  233TIP3   OH2  662   1.343   5.805   3.114 -0.0497  0.8414  0.0243
  233TIP3    H1  663   1.420   5.846   3.152  0.1065 -0.1127  0.7461
  233TIP3    H2  664   1.334   5.722   3.159 -1.6216  1.0160  0.0943
  234TIP3   OH2  665   0.248   1.075   5.192 -0.0957  0.0071 -0.7434
  234TIP3    H1  666   0.315   1.138   5.166  1.0205 -0.4435  0.8818
  234TIP3    H2  667   0.232   1.092   5.284 -0.1808 -1.6819 -0.3997
  235TIP3   OH2  668   3.133   2.111   2.433 -0.4016  0.3862 -0.4013
  235TIP3    H1  669   3.137   2.118   2.338  1.6531 -0.9511 -0.4769
  235TIP3    H2  670   3.040   2.112   2.453 -1.1475 -3.0120 -2.7985
  236TIP3   OH2  671   2.756   6.193   4.081  0.7700  0.1990  0.8359
  236TIP3    H1  672   2.719   6.189   3.993  2.0935 -0.5803  0.2857
  236TIP3    H2  673   2.850   6.201   4.068  0.9452  0.7293  2.1908
  237TIP3   OH2  674   0.377   1.049   0.697  0.2455  0.2331  0.1021
  237TIP3    H1  675   0.391   0.973   0.753 -1.5883  0.1227  0.4796
  237TIP3    H2  676   0.371   1.123   0.758  2.5370  0.8199 -0.2955
  238TIP3   OH2  677   5.300   2.398   5.327  0.2981  0.3060 -0.2455
  238TIP3    H1  678   5.248   2.320   5.346 -1.3871  0.6670 -2.8300
  238TIP3    H2  679   5.384   2.364   5.297 -0.5571 -0.6115 -1.7403
  239TIP3   OH2  680   5.588   2.178   2.664 -0.4319 -0.3452 -0.0735
  239TIP3    H1  681   5.608   2.267   2.691 -0.4445  0.3719 -2.2974
  239TIP3    H2  682   5.667   2.128   2.686  0.7206  0.8116 -1.3647
  240TIP3   OH2  683   5.536   5.459   1.005 -0.0427  0.1527  0.1184
  240TIP3    H1  684   5.529   5.412   0.922  0.0637 -2.4300  1.4714
  240TIP3    H2  685   5.629   5.481   1.013  0.3032 -1.3541  0.4254
  241TIP3   OH2  686   1.122   1.947   5.164  0.0790 -0.2990  0.0203
  241TIP3    H1  687   1.048   2.000   5.192  1.3268  0.9344  1.1345
  241TIP3    H2  688   1.178   2.007   5.115  0.7219 -1.0093 -0.1434
  242TIP3   OH2  689   5.656   4.509   5.319 -0.2551 -0.1393  0.5900
  242TIP3    H1  690   5.669   4.602   5.302 -0.3214 -0.3648 -0.8635
  242TIP3    H2  691   5.732   4.466   5.278 -0.9503 -0.8159 -0.0147
  243TIP3   OH2  692   0.841   1.618   5.873  0.0769 -0.0288  0.3015
  243TIP3    H1  693   0.792   1.564   5.935  0.0508 -1.0772 -0.5857
  243TIP3    H2  694   0.816   1.584   5.787  0.7079  0.8617 -0.2518
  244TIP3   OH2  695   1.250   3.848   3.676 -0.1867  0.4030 -0.3504
  244TIP3    H1  696   1.170   3.866   3.627 -0.1152 -1.3071 -1.1571
  244TIP3    H2  697   1.226   3.779   3.737  0.6174  0.0341 -0.4341
  245TIP3   OH2  698   6.400   3.246   3.904  0.3596 -0.5098 -0.3079
  245TIP3    H1  699   6.395   3.341   3.915  1.2846 -0.6557  1.8460
  245TIP3    H2  700   6.309   3.217   3.911  0.3000 -0.0040  2.3943
  246TIP3   OH2  701   0.329   4.684   3.244  0.4287 -0.0094  0.2428
  246TIP3    H1  702   0.245   4.679   3.290  0.3378  2.2520  0.4361
  246TIP3    H2  703   0.383   4.739   3.301  2.6137 -2.6059  0.8676
  247TIP3   OH2  704   5.632   4.317   3.701 -0.2288  1.1168  0.1658
  247TIP3    H1  705   5.714   4.353   3.736  0.9446  0.6449 -1.9416
  247TIP3    H2  706   5.660   4.258   3.630 -2.3221 -0.4714  0.5752
  248TIP3   OH2  707   0.175   5.866   2.808 -0.3386 -0.3240  0.1904
  248TIP3    H1  708   0.253   5.811   2.818 -0.6847 -0.7418  0.6222
  248TIP3    H2  709   0.162   5.904   2.894 -0.6718 -0.3286  0.1411
  249TIP3   OH2  710   3.576   5.723   2.392 -0.2781  0.4372 -0.2806
  249TIP3    H1  711   3.639   5.793   2.380 -0.4815  0.5266 -0.8372
  249TIP3    H2  712   3.619   5.645   2.357 -0.8388  0.6826 -1.5785
  250TIP3   OH2  713   0.628   5.195   1.149  0.2082 -0.0493  0.2854
  250TIP3    H1  714   0.687   5.235   1.214  0.3080 -0.4207  0.4302
  250TIP3    H2  715   0.654   5.234   1.066 -0.1822  0.7248  0.5225
  251TIP3   OH2  716   6.082   4.249   4.564  0.3325 -0.2068 -0.4578
  251TIP3    H1  717   6.079   4.312   4.636  0.1963 -1.4962  0.6941
  251TIP3    H2  718   6.176   4.239   4.545  0.3216  0.9896 -1.2687
  252TIP3   OH2  719   1.293   4.130   2.778  0.4332 -0.0403 -0.1409
  252TIP3    H1  720   1.199   4.114   2.767  0.4896 -0.7703  0.3592
  252TIP3    H2  721   1.301   4.166   2.866  0.6222  0.0204 -0.1824
  253TIP3   OH2  722   4.251   0.378   0.224 -0.6691 -0.0376  0.3101
  253TIP3    H1  723   4.263   0.472   0.234  1.7091 -0.0894 -1.2651
  253TIP3    H2  724   4.206   0.350   0.304  0.1328  2.1633  1.6070
  254TIP3   OH2  725   1.284   2.383   4.378 -0.1252  0.1729  0.1342
  254TIP3    H1  726   1.350   2.315   4.392  1.3900  1.8030  1.3180
  254TIP3    H2  727   1.201   2.343   4.404  0.4932 -1.6546 -0.5839
  255TIP3   OH2  728   1.374   5.872   5.139  0.6472 -0.0995  0.1543
  255TIP3    H1  729   1.412   5.866   5.051  0.3171 -1.0386  0.0668
  255TIP3    H2  730   1.292   5.824   5.132  1.1378 -1.1413  1.2579
  256TIP3   OH2  731   5.123   1.996   1.699  0.2094  0.4040  0.5195
  256TIP3    H1  732   5.205   2.012   1.652  0.7854  0.9979  1.6601
  256TIP3    H2  733   5.115   1.901   1.702  2.0916  0.2143  2.3337
  257TIP3   OH2  734   2.767   3.654   4.161  0.3816  0.5258  0.0340
  257TIP3    H1  735   2.765   3.714   4.235  1.8918 -0.5105  0.9735
  257TIP3    H2  736   2.674   3.636   4.142 -0.0554  0.1559  2.2507
  258TIP3   OH2  737   3.277   1.709   4.495  0.5847 -0.4924  0.3574
  258TIP3    H1  738   3.344   1.739   4.433  0.5387 -3.1638 -1.1416
  258TIP3    H2  739   3.242   1.790   4.533  2.5947  1.1297 -0.9844
  259TIP3   OH2  740   5.760   1.307   2.849  0.1877 -0.1897  0.0092
  259TIP3    H1  741   5.810   1.258   2.913 -0.8743  0.4957  1.4323
  259TIP3    H2  742   5.752   1.395   2.887  0.1722  0.4576 -1.4283
  260TIP3   OH2  743   2.449   3.147   1.916  0.0295 -0.0746  0.0996
  260TIP3    H1  744   2.514   3.192   1.969 -0.2153 -1.6012  1.8059
  260TIP3    H2  745   2.372   3.141   1.972  0.0566 -2.5378  0.0136
  261TIP3   OH2  746   0.717   6.138   3.950  0.1808 -0.0077  0.2204
  261TIP3    H1  747   0.777   6.112   4.020 -0.5703  0.8008  1.2032
  261TIP3    H2  748   0.773   6.151   3.873  0.8051 -2.8451  0.0784
  262TIP3   OH2  749   3.931   2.763   3.719 -0.0883  0.3533  0.1898
  262TIP3    H1  750   3.890   2.782   3.635 -0.2199 -0.4111  0.0754
  262TIP3    H2  751   3.974   2.679   3.707  1.6862  1.2043  0.2528
  263TIP3   OH2  752   4.759   1.137   2.047 -0.2289 -0.6252 -0.3521
  263TIP3    H1  753   4.789   1.203   1.984 -1.4633  2.1086  1.6873
  263TIP3    H2  754   4.665   1.127   2.028 -0.2967 -0.8880  0.1076
  264TIP3   OH2  755   0.418   4.180   2.630  0.2878  0.5751  0.8637
  264TIP3    H1  756   0.439   4.120   2.558  0.0517 -0.4876  1.6485
  264TIP3    H2  757   0.364   4.248   2.590  0.6861  0.3504 -0.0847
  265TIP3   OH2  758   3.737   2.600   1.403  0.4310 -0.2695  0.2810
  265TIP3    H1  759   3.691   2.671   1.358  2.0776  0.8350  0.2776
  265TIP3    H2  760   3.669   2.558   1.456 -0.6794  0.9945 -0.0848
  266TIP3   OH2  761   0.427   5.832  -0.009  0.5031 -0.7814 -0.2722
  266TIP3    H1  762   0.521   5.847  -0.018  0.2957  0.6677 -0.2635
  266TIP3    H2  763   0.414   5.818   0.084  0.3593  2.1965  0.2686
  267TIP3   OH2  764   3.530   5.498   3.369  0.1382 -0.1607  0.7197
  267TIP3    H1  765   3.480   5.555   3.311 -1.7790  0.3806  2.7756
  267TIP3    H2  766   3.504   5.410   3.344  0.1450  0.0142  0.0769
  268TIP3   OH2  767   3.376   1.819   0.545 -0.0206 -0.3474 -0.6678
  268TIP3    H1  768   3.451   1.848   0.597  0.0100  2.0924 -1.9425
  268TIP3    H2  769   3.324   1.767   0.606  1.7752 -0.6056  0.7600
  269TIP3   OH2  770   6.003   0.850   4.432  0.0221 -0.0405  0.3902
  269TIP3    H1  771   6.070   0.861   4.500  0.0517 -0.6063  0.4609
  269TIP3    H2  772   5.927   0.897   4.466  0.6210  1.3198 -0.0654
  270TIP3   OH2  773   3.637   4.857   0.979 -0.2076  0.0723  0.0882
  270TIP3    H1  774   3.677   4.944   0.986 -1.3775  0.6366  0.0546
  270TIP3    H2  775   3.569   4.867   0.913  1.3243 -1.5533 -1.8486
  271TIP3   OH2  776   3.888   5.387   2.093 -0.0954  0.3795  0.3666
  271TIP3    H1  777   3.944   5.433   2.031  1.2641 -1.5093  0.1066
  271TIP3    H2  778   3.824   5.342   2.039  0.1099 -0.0047  0.4414
  272TIP3   OH2  779   4.051   2.173   1.734 -0.5085 -0.1489 -0.1509
  272TIP3    H1  780   4.009   2.191   1.818  0.7346  1.7492  0.1232
  272TIP3    H2  781   3.998   2.223   1.671 -1.3035 -1.3878 -0.4928
  273TIP3   OH2  782   5.275   0.463   3.726  0.0619 -0.3301  0.4861
  273TIP3    H1  783   5.289   0.556   3.706  0.8671 -0.7709 -1.2159
  273TIP3    H2  784   5.180   0.453   3.728 -0.0297  0.4420  0.2036
  274TIP3   OH2  785   1.812   6.316   0.686  0.0666 -0.0692  0.2551
  274TIP3    H1  786   1.727   6.293   0.649  0.7947 -1.8038 -0.4626
  274TIP3    H2  787   1.792   6.352   0.772 -1.4094 -0.1833 -0.0142
  275TIP3   OH2  788   4.306   0.402   1.086 -0.2815  0.9694 -0.1495
  275TIP3    H1  789   4.310   0.399   1.181 -2.7755 -0.5461 -0.0001
  275TIP3    H2  790   4.244   0.472   1.066 -0.3202  0.8102 -0.6168
  276TIP3   OH2  791   2.875   6.464   4.496 -0.2810 -0.7611  0.4653
  276TIP3    H1  792   2.806   6.453   4.430 -0.3168  0.6290  0.2413
  276TIP3    H2  793   2.925   6.540   4.466  0.0509 -0.4497  1.7441
  277TIP3   OH2  794   4.445   3.889   1.439 -0.3277  0.2819 -0.5414
  277TIP3    H1  795   4.506   3.958   1.411 -1.3964  1.1043 -0.8959
  277TIP3    H2  796   4.360   3.933   1.446 -0.8079 -0.7410  0.3915
  278TIP3   OH2  797   7.220   2.767   1.677 -0.8096  0.1343  0.2920
  278TIP3    H1  798   7.173   2.810   1.749 -1.5471  1.0605 -0.6995
  278TIP3    H2  799   7.163   2.694   1.652 -1.5196  0.9721 -0.5980
  279TIP3   OH2  800   6.173   6.019   5.520  0.1261  0.4603  0.2479
  279TIP3    H1  801   6.121   6.094   5.549 -1.6776 -1.1316  1.3760
  279TIP3    H2  802   6.109   5.958   5.483  1.6204 -0.3025 -1.1954
  280TIP3   OH2  803   5.323   6.729   0.663 -0.3787 -0.1257 -0.0200
  280TIP3    H1  804   5.240   6.728   0.614  0.3131 -1.2906 -1.2318
  280TIP3    H2  805   5.334   6.639   0.692  0.7212 -0.1046 -0.3344
  281TIP3   OH2  806   1.595   5.913   4.212  0.5790  0.3080  0.0812
  281TIP3    H1  807   1.545   5.988   4.179  0.6234 -0.6161 -2.2944
  281TIP3    H2  808   1.617   5.936   4.302  0.5719  3.1423 -0.5540
  282TIP3   OH2  809   1.310   5.593   5.476 -0.2996 -0.6704  0.1485
  282TIP3    H1  810   1.244   5.584   5.407 -0.3171 -0.8625  0.1915
  282TIP3    H2  811   1.300   5.514   5.530  0.1924 -0.8599 -0.0372
  283TIP3   OH2  812   7.195   5.226   1.218 -0.0969 -0.1137 -0.5065
  283TIP3    H1  813   7.271   5.261   1.264  0.0856 -1.1610  0.0338
  283TIP3    H2  814   7.178   5.142   1.261 -1.4519  0.0164 -0.7278
  284TIP3   OH2  815   0.488   0.267   0.972 -0.3163 -0.2056  0.1190
  284TIP3    H1  816   0.453   0.305   1.052 -0.1539 -0.4419  0.3046
  284TIP3    H2  817   0.488   0.172   0.988  1.6618 -0.1691  0.6739
  285TIP3   OH2  818   2.412   4.958   3.890 -0.1994  0.2370  0.4577
  285TIP3    H1  819   2.493   4.992   3.929 -0.1462  0.2605  0.3282
  285TIP3    H2  820   2.423   4.972   3.796 -0.4235  0.3830  0.4529
  286TIP3   OH2  821   1.845   1.187   1.334 -0.6367 -0.4480 -0.7502
  286TIP3    H1  822   1.754   1.183   1.364 -0.5585 -0.2434 -0.4770
  286TIP3    H2  823   1.855   1.111   1.277 -0.7609 -0.9157 -0.1613
  287TIP3   OH2  824   3.468   5.752   5.387  0.1106 -0.4279 -0.2251
  287TIP3    H1  825   3.443   5.660   5.383  0.2226 -0.4959  0.5129
  287TIP3    H2  826   3.562   5.752   5.371  0.4558 -0.6431  1.5899
  288TIP3   OH2  827   2.676   2.208   2.313 -0.0186 -0.9409  0.5162
  288TIP3    H1  828   2.608   2.167   2.259 -0.4036 -0.9680  1.0145
  288TIP3    H2  829   2.628   2.259   2.377  0.4616  0.1676  0.0127
  289TIP3   OH2  830   3.151   2.973   2.360 -0.5916 -0.3416  0.3100
  289TIP3    H1  831   3.228   2.940   2.406 -0.7031 -0.3171  0.5125
  289TIP3    H2  832   3.174   3.063   2.337 -0.1193 -0.6824 -0.6163
  290TIP3   OH2  833   4.890   2.451   4.261  0.1384 -0.4416 -0.2085
  290TIP3    H1  834   4.894   2.415   4.349  1.2750  0.2447  0.0357
  290TIP3    H2  835   4.831   2.525   4.268 -0.7368 -1.1126 -0.3074
  291TIP3   OH2  836   0.609   6.190   2.590 -0.5883  0.5120 -0.2116
  291TIP3    H1  837   0.607   6.281   2.622 -0.5765  0.5748 -0.3870
  291TIP3    H2  838   0.615   6.137   2.669  1.0461  0.7214 -0.1632
  292TIP3   OH2  839   5.362   5.455   2.680  0.0549 -0.3199  0.0953
  292TIP3    H1  840   5.399   5.430   2.595 -0.9055  0.3855 -0.5539
  292TIP3    H2  841   5.377   5.549   2.686 -0.4733 -0.2502  0.3923
  293TIP3   OH2  842   6.289   0.446   4.630 -0.0006  0.8563  0.4367
  293TIP3    H1  843   6.336   0.402   4.559  0.8630 -1.2226  2.1497
  293TIP3    H2  844   6.358   0.481   4.686 -0.6344  1.6941  0.7070
  294TIP3   OH2  845   3.371   2.205   5.277  0.2583  0.1437 -0.0472
  294TIP3    H1  846   3.443   2.169   5.224  0.9619  0.9395  0.3393
  294TIP3    H2  847   3.411   2.223   5.362 -0.4935  0.2829  0.2846
  295TIP3   OH2  848   4.125   4.347   5.484  0.2332 -0.1005  0.3787
  295TIP3    H1  849   4.034   4.368   5.462 -0.0907  0.4737  2.1061
  295TIP3    H2  850   4.145   4.269   5.433 -0.4110  1.1402 -1.9148
  296TIP3   OH2  851   7.137   5.523   5.436  0.3843  0.1521  0.0294
  296TIP3    H1  852   7.090   5.529   5.520  0.5018  2.5200 -0.0168
  296TIP3    H2  853   7.225   5.554   5.456  1.3594 -2.1230 -0.3859
  297TIP3   OH2  854   5.942   4.839   1.415  0.3558  1.1470 -0.3764
  297TIP3    H1  855   5.967   4.812   1.327  1.7092 -1.7672  0.7685
  297TIP3    H2  856   6.021   4.879   1.452  0.5738  0.1799  0.2526
  298TIP3   OH2  857   6.883   0.704   1.341 -0.4215 -0.4128  0.3760
  298TIP3    H1  858   6.861   0.793   1.313 -0.7379 -0.2391  1.1471
  298TIP3    H2  859   6.802   0.670   1.380  0.6813  0.4510  3.8369
  299TIP3   OH2  860   4.452   5.346   1.275 -0.4165 -0.1197 -0.3191
  299TIP3    H1  861   4.393   5.419   1.290  1.7133  1.6092  0.1639
  299TIP3    H2  862   4.494   5.365   1.191  0.0096 -0.9116 -0.3007
  300TIP3   OH2  863   2.429   3.731   4.154 -0.1555  0.3440 -0.1969
  300TIP3    H1  864   2.423   3.655   4.211 -0.7649  1.4753  1.2854
  300TIP3    H2  865   2.346   3.778   4.166  0.1248  1.1516 -1.2279
  301TIP3   OH2  866   5.423   3.543   4.181  0.6749 -0.2531 -1.1931
  301TIP3    H1  867   5.358   3.606   4.148  0.9397  0.6877 -0.0016
  301TIP3    H2  868   5.506   3.574   4.144  0.7155 -0.2712 -1.1170
  302TIP3   OH2  869   1.453   5.301   2.871 -0.3927 -0.5012  0.0673
  302TIP3    H1  870   1.509   5.264   2.803 -2.0433 -1.4559 -0.8656
  302TIP3    H2  871   1.473   5.395   2.871 -0.3919 -0.4691 -1.8013
  303TIP3   OH2  872   4.552   0.016   2.013  0.1768 -0.1283 -0.2151
  303TIP3    H1  873   4.504  -0.002   1.932 -0.3764  0.1946  0.0356
  303TIP3    H2  874   4.639   0.043   1.983 -0.2941  0.8633 -0.7475
  304TIP3   OH2  875   6.253   4.227   2.172  0.9144  1.0035  0.4711
  304TIP3    H1  876   6.290   4.189   2.092  1.6758  1.4545  0.5994
  304TIP3    H2  877   6.326   4.226   2.235  0.3434  0.7136  1.1470
  305TIP3   OH2  878   4.601   5.806   3.852  0.3041  0.5274  0.6742
  305TIP3    H1  879   4.645   5.891   3.856 -1.2009  1.4125 -0.3534
  305TIP3    H2  880   4.537   5.808   3.923 -1.5175  1.3761 -0.9066
  306TIP3   OH2  881   5.087   4.917   5.003 -0.0629 -0.0774  0.9525
  306TIP3    H1  882   5.143   4.895   4.928 -0.5503  2.8356 -0.3902
  306TIP3    H2  883   5.147   4.954   5.067  0.1264 -1.0927  1.3801
  307TIP3   OH2  884   3.989   4.021   1.781 -0.8130 -0.4999  0.3913
  307TIP3    H1  885   3.961   4.110   1.758 -0.2819 -0.5428 -0.4813
  307TIP3    H2  886   3.992   4.020   1.876  0.9021  0.9617  0.3886
  308TIP3   OH2  887   3.442   5.492   4.128  0.0689 -0.2949  0.3632
  308TIP3    H1  888   3.418   5.400   4.127  0.4478 -0.3978  0.4149
  308TIP3    H2  889   3.409   5.525   4.212  1.0279 -0.6944  0.9239
  309TIP3   OH2  890   4.319   1.392   2.312 -0.6777  0.4145 -0.5652
  309TIP3    H1  891   4.354   1.480   2.326  0.9995  0.1089 -2.4027
  309TIP3    H2  892   4.315   1.354   2.400  1.9583  1.1272 -0.0451
  310TIP3   OH2  893   2.627   1.577   3.256  0.7149 -0.0151  0.7192
  310TIP3    H1  894   2.670   1.516   3.316  0.1173 -1.7574 -0.5451
  310TIP3    H2  895   2.693   1.595   3.189  0.8301  0.6041  0.9951
  311TIP3   OH2  896   1.076   2.733   3.237  0.6952  0.2865  0.1624
  311TIP3    H1  897   1.097   2.809   3.182  0.0802 -1.0878 -2.1230
  311TIP3    H2  898   0.983   2.742   3.255  0.7549  0.4023  0.4056
  312TIP3   OH2  899   2.826   2.966   4.276  0.2237 -0.1342  0.3365
  312TIP3    H1  900   2.897   2.998   4.331 -0.8115 -0.5201  1.9642
  312TIP3    H2  901   2.768   2.919   4.336 -0.1098 -2.0550 -1.3658
  313TIP3   OH2  902   1.906   0.808   3.347 -0.4453  0.1471  0.0124
  313TIP3    H1  903   1.972   0.741   3.330 -0.4402  0.4476 -1.2588
  313TIP3    H2  904   1.952   0.875   3.398 -0.2160 -0.3796  0.5148
  314TIP3   OH2  905   0.896   0.331   0.644  0.0269  0.3793  0.2296
  314TIP3    H1  906   0.866   0.241   0.655  0.1811  0.2802 -0.1624
  314TIP3    H2  907   0.905   0.343   0.550  2.3177  0.0194  0.3381
  315TIP3   OH2  908   2.371   2.632   0.584  0.0312 -0.7079 -0.8582
  315TIP3    H1  909   2.305   2.698   0.603  1.4061  0.7310 -0.9133
  315TIP3    H2  910   2.332   2.550   0.615 -1.9621 -0.0070 -1.3416
  316TIP3   OH2  911   2.522   5.980   0.778  0.4709  0.1342  0.5563
  316TIP3    H1  912   2.444   5.986   0.723  1.0750 -0.2572 -0.3604
  316TIP3    H2  913   2.544   5.887   0.781  0.4342  0.1387  1.5012
  317TIP3   OH2  914   4.328   3.690   0.068  0.2394 -0.0249  0.2075
  317TIP3    H1  915   4.367   3.617   0.021  0.2004 -1.7296  2.6265
  317TIP3    H2  916   4.401   3.750   0.084  0.6183 -0.3134 -0.4107
  318TIP3   OH2  917   1.380   4.012   5.468 -0.4313 -0.4361  0.0463
  318TIP3    H1  918   1.434   3.933   5.476 -1.3773 -1.8261 -4.3053
  318TIP3    H2  919   1.443   4.084   5.471  0.8313 -1.5294  1.3673
  319TIP3   OH2  920   6.158   4.201   3.707 -0.2652 -0.8654 -0.1809
  319TIP3    H1  921   6.169   4.189   3.613 -1.5367 -0.5604 -0.3819
  319TIP3    H2  922   6.175   4.114   3.744  3.4938 -0.3297 -0.3145
  320TIP3   OH2  923   2.999   6.276   0.343  0.1784  0.4563 -0.3717
  320TIP3    H1  924   3.031   6.255   0.431  1.3202  1.9146 -0.3988
  320TIP3    H2  925   3.028   6.202   0.290 -0.9844 -0.7057  0.5330
  321TIP3   OH2  926   6.752   3.765   5.594  0.2362 -0.5150 -0.4644
  321TIP3    H1  927   6.659   3.789   5.588  0.4800  0.7917  0.4519
  321TIP3    H2  928   6.774   3.778   5.686  1.4662 -0.2711 -0.7741
  322TIP3   OH2  929   6.667   0.834   3.983 -0.2596 -0.3215 -0.4123
  322TIP3    H1  930   6.667   0.822   4.078  2.6163  2.5994  0.1227
  322TIP3    H2  931   6.697   0.750   3.949  0.5101 -0.8576  1.4338
  323TIP3   OH2  932   0.334   3.505   2.881 -0.1399  0.7300 -0.0922
  323TIP3    H1  933   0.312   3.577   2.823 -1.6348 -0.7186 -1.4409
  323TIP3    H2  934   0.419   3.473   2.849  0.5355  1.8436  0.5204
  324TIP3   OH2  935   1.659   6.371   1.009  0.1444 -0.5154 -0.3301
  324TIP3    H1  936   1.649   6.284   0.972 -1.5201 -0.9504  1.0175
  324TIP3    H2  937   1.628   6.363   1.099  1.4503  1.1236  0.3314
  325TIP3   OH2  938   1.753   4.167   0.524 -0.3748 -0.0000  0.5202
  325TIP3    H1  939   1.801   4.178   0.605  1.2650  0.3492 -0.4467
  325TIP3    H2  940   1.805   4.103   0.474  1.0106  2.7984 -1.9203
  326TIP3   OH2  941   6.584   2.559   0.255 -0.3484 -1.4635 -0.0211
  326TIP3    H1  942   6.646   2.630   0.267 -0.5836 -1.5854  2.1971
  326TIP3    H2  943   6.499   2.603   0.250 -0.2882 -1.4415 -1.1253
  327TIP3   OH2  944   5.006   4.630   0.758  0.3497 -0.1869 -0.3021
  327TIP3    H1  945   4.938   4.697   0.755  0.7175  0.2105  0.1271
  327TIP3    H2  946   5.047   4.634   0.671 -0.8427 -1.1542 -0.9440
  328TIP3   OH2  947   6.027   0.741   4.924  0.1749  0.2961 -0.1424
  328TIP3    H1  948   6.026   0.714   4.833  0.3293  0.2239 -0.1225
  328TIP3    H2  949   6.119   0.743   4.948  0.1651  0.7557 -0.1177
  329TIP3   OH2  950   6.628   5.589   3.797 -0.4256  0.4448  0.2246
  329TIP3    H1  951   6.656   5.501   3.820 -0.7742  0.3270  0.2040
  329TIP3    H2  952   6.667   5.645   3.863 -0.1783  0.2773  0.2202
  330TIP3   OH2  953   3.850   0.558   5.534  0.1108  0.1077  0.0510
  330TIP3    H1  954   3.933   0.598   5.558  0.4138  0.6411 -1.7544
  330TIP3    H2  955   3.804   0.626   5.484 -0.1609 -1.1441 -1.4667
  331TIP3   OH2  956   1.302   6.189   2.411 -0.6831 -0.2598 -0.1871
  331TIP3    H1  957   1.390   6.154   2.401  0.1947  1.1230  1.9934
  331TIP3    H2  958   1.301   6.269   2.358  0.9767  2.1575  3.0643
  332TIP3   OH2  959   2.968   3.566   4.642  0.2088 -0.1398 -0.0208
  332TIP3    H1  960   3.048   3.513   4.644  1.0169  0.9717 -1.3137
  332TIP3    H2  961   2.897   3.502   4.657  1.2805 -1.2298  0.5979
  333TIP3   OH2  962   4.763   1.019   2.471 -0.2723 -0.6881 -0.0858
  333TIP3    H1  963   4.722   1.096   2.432 -1.2266 -1.4228 -0.5791
  333TIP3    H2  964   4.726   0.945   2.423  2.0202 -1.3878 -0.9055
  334TIP3   OH2  965   7.089   6.629   3.425 -0.1459 -0.2888  0.3528
  334TIP3    H1  966   7.082   6.616   3.520 -0.3201  0.8128  0.5007
  334TIP3    H2  967   7.133   6.549   3.394 -0.5836 -0.9184  1.2761
  335TIP3   OH2  968   4.245   6.436   4.288  0.2144 -0.0693 -0.5690
  335TIP3    H1  969   4.284   6.519   4.261  1.0639 -0.6687 -1.2596
  335TIP3    H2  970   4.198   6.456   4.369 -0.3059  1.2572 -1.1781
  336TIP3   OH2  971   4.370   2.523   2.163 -0.5163 -0.2246  0.0802
  336TIP3    H1  972   4.333   2.435   2.171  1.9824 -1.2589  1.1749
  336TIP3    H2  973   4.331   2.558   2.083 -1.1427 -2.5451 -0.7066
  337TIP3   OH2  974   5.831   3.252   5.457 -0.2626  0.6220  0.3871
  337TIP3    H1  975   5.769   3.325   5.463  0.2430  1.1632 -0.7796
  337TIP3    H2  976   5.820   3.219   5.368  0.6470  0.2892  0.3934
  338TIP3   OH2  977   7.021   0.420   4.397 -0.3464 -0.5090  0.1026
  338TIP3    H1  978   7.015   0.421   4.493 -1.1250  2.1774  0.0951
  338TIP3    H2  979   7.076   0.344   4.378  0.6820 -0.5416  2.7374
  339TIP3   OH2  980   1.893   4.442   2.518 -0.3612  0.5255 -0.5070
  339TIP3    H1  981   1.848   4.519   2.484 -0.8895 -0.5407 -2.3568
  339TIP3    H2  982   1.844   4.418   2.596 -0.2231  1.9938  0.0609
  340TIP3   OH2  983   3.542   5.532   0.190  0.1420  0.6014 -0.5107
  340TIP3    H1  984   3.577   5.460   0.242  0.9723  1.8429  0.7176
  340TIP3    H2  985   3.506   5.490   0.111  0.7739 -1.1099  0.0755
  341TIP3   OH2  986   5.248   4.190   1.726  0.0576 -0.4745 -0.1485
  341TIP3    H1  987   5.208   4.257   1.671  0.3377 -1.1440 -1.2098
  341TIP3    H2  988   5.197   4.111   1.708  0.4278 -0.7995  0.2200
  342TIP3   OH2  989   0.563   1.284   5.702 -0.0996  0.0482  0.2358
  342TIP3    H1  990   0.528   1.249   5.619  0.3837 -1.9615  0.8344
  342TIP3    H2  991   0.485   1.305   5.753 -0.4028  1.0217 -0.5997
  343TIP3   OH2  992   6.711   0.747   3.556 -0.1711 -0.7811  0.0444
  343TIP3    H1  993   6.777   0.769   3.622 -1.5816  1.7915  0.7273
  343TIP3    H2  994   6.677   0.662   3.585  0.5853 -0.6231  1.5211
  344TIP3   OH2  995   6.391   0.736   4.029  0.0463 -0.0564 -0.2364
  344TIP3    H1  996   6.348   0.688   3.958  0.0019 -0.7299  0.2383
  344TIP3    H2  997   6.421   0.817   3.988  0.8385 -0.8385 -1.2482
  345TIP3   OH2  998   1.757   4.816   0.938 -0.2742  0.0586  0.2711
  345TIP3    H1  999   1.807   4.873   0.880 -1.4033  1.4285  0.5863
  345TIP3    H2 1000   1.671   4.808   0.896 -0.2896 -1.0445  0.4767
  346TIP3   OH2 1001   3.953   0.483   1.950 -0.1695 -0.4225 -0.0602
  346TIP3    H1 1002   3.897   0.415   1.915 -3.1226  0.8116  1.8782
  346TIP3    H2 1003   4.012   0.438   2.011 -0.4115 -1.5090 -0.6202
  347TIP3   OH2 1004   4.840   1.581   3.096  0.2037  0.0744  0.1339
  347TIP3    H1 1005   4.810   1.602   3.007 -0.0146  0.6861  0.3438
  347TIP3    H2 1006   4.842   1.486   3.099 -0.4583  0.0418 -0.3075
  348TIP3   OH2 1007   0.446   1.404   3.192  0.0929  0.6703  0.2263
  348TIP3    H1 1008   0.439   1.397   3.287  0.6076 -1.6956  0.1374
  348TIP3    H2 1009   0.362   1.373   3.159  0.1506  0.8683 -0.1129
  349TIP3   OH2 1010   0.034   2.199   1.013  0.4727  0.0523  0.0529
  349TIP3    H1 1011   0.119   2.215   1.054  1.0571 -1.7058 -0.3521
  349TIP3    H2 1012   0.052   2.200   0.919  0.2299 -1.0455 -0.0257
  350TIP3   OH2 1013   5.937   2.057   2.019  0.3866  0.1633  0.3288
  350TIP3    H1 1014   6.000   2.113   2.064  2.2408 -0.7525 -0.9977
  350TIP3    H2 1015   5.937   2.089   1.929  1.7573 -2.0683 -0.5485
  351TIP3   OH2 1016   2.784   0.720   0.183 -0.2362 -0.3323  0.1919
  351TIP3    H1 1017   2.785   0.796   0.241  0.3845  0.1129 -0.3762
  351TIP3    H2 1018   2.739   0.750   0.104  0.1345 -0.5128 -0.0920
  352TIP3   OH2 1019   5.423   5.213   1.525  0.4442  0.0625  0.3108
  352TIP3    H1 1020   5.513   5.244   1.525  0.2142  0.7862  1.1556
  352TIP3    H2 1021   5.390   5.235   1.612 -1.0702  1.3864 -0.5258
  353TIP3   OH2 1022   4.442   0.209   5.765 -0.0218  0.0539 -0.4132
  353TIP3    H1 1023   4.467   0.298   5.740 -0.8021 -0.3648 -3.0706
  353TIP3    H2 1024   4.525   0.166   5.787  0.3240  1.4807  1.2498
  354TIP3   OH2 1025   4.175   3.497   2.103 -0.3869 -0.5517  0.2105
  354TIP3    H1 1026   4.166   3.524   2.194 -0.4316 -4.1587  1.4339
  354TIP3    H2 1027   4.085   3.479   2.075 -0.3154 -0.0179 -0.3945
  355TIP3   OH2 1028   0.114   4.511   2.538  0.0598  0.4726 -0.2019
  355TIP3    H1 1029   0.139   4.484   2.626 -0.9594  0.1475  0.0028
  355TIP3    H2 1030   0.169   4.459   2.480  0.4758  0.4198  0.2425
  356TIP3   OH2 1031   5.773   1.077   2.285  0.4032 -0.2165 -0.1227
  356TIP3    H1 1032   5.847   1.086   2.345  0.0584  0.1263  0.2562
  356TIP3    H2 1033   5.793   1.138   2.214  0.0861  0.5141  0.3956
  357TIP3   OH2 1034   3.800   1.839   5.631 -0.1025  0.1823 -0.1154
  357TIP3    H1 1035   3.749   1.813   5.708 -2.8172  3.7835 -0.4244
  357TIP3    H2 1036   3.783   1.770   5.567 -0.6464 -1.1143  1.3503
  358TIP3   OH2 1037   3.551   0.426   2.647  0.2739 -0.1501 -0.4245
  358TIP3    H1 1038   3.498   0.504   2.663  0.5323 -0.0635  0.0023
  358TIP3    H2 1039   3.640   0.453   2.667  0.2170 -0.9228  1.0068
  359TIP3   OH2 1040   4.400   5.789   1.574 -0.0140 -0.1240  0.2363
  359TIP3    H1 1041   4.382   5.878   1.605  0.7383 -0.2138  0.9732
  359TIP3    H2 1042   4.386   5.734   1.651  1.7328 -0.3732  0.4091
  360TIP3   OH2 1043   6.717   1.292   2.602  0.0996  0.2967 -0.2584
  360TIP3    H1 1044   6.798   1.293   2.653 -0.0972  0.2953  0.0556
  360TIP3    H2 1045   6.746   1.289   2.511  0.4520 -0.1377 -0.1359
  361TIP3   OH2 1046   1.755   4.878   2.186 -0.4294 -0.4272 -0.0941
  361TIP3    H1 1047   1.769   4.889   2.092 -2.2284  0.3168 -0.3156
  361TIP3    H2 1048   1.755   4.967   2.221 -1.2863 -0.5825  0.3425
  362TIP3   OH2 1049   3.140   5.362   4.224 -0.0771 -0.3768  0.2017
  362TIP3    H1 1050   3.168   5.283   4.177 -2.4217 -1.0549 -0.1754
  362TIP3    H2 1051   3.112   5.331   4.310 -0.0792  0.1987  0.4143
  363TIP3   OH2 1052   1.214   4.644   2.780 -0.3382  0.0225 -1.0272
  363TIP3    H1 1053   1.127   4.673   2.807  0.1423  1.6993 -1.1631
  363TIP3    H2 1054   1.203   4.552   2.756 -1.3597 -0.7931  2.1493
  364TIP3   OH2 1055   5.483   6.435   2.946  0.3160  0.0429  0.1437
  364TIP3    H1 1056   5.564   6.384   2.938 -0.2158 -0.6357 -1.3270
  364TIP3    H2 1057   5.486   6.496   2.873 -0.3335  0.2642  0.2914
  365TIP3   OH2 1058   5.836   0.248   4.522 -0.5637 -1.1512  0.5576
  365TIP3    H1 1059   5.885   0.253   4.604  0.1002  1.0145  0.1144
  365TIP3    H2 1060   5.901   0.265   4.454 -1.4613 -0.7919 -0.2477
  366TIP3   OH2 1061   5.074   3.404   4.898 -0.3908  0.6267 -0.4818
  366TIP3    H1 1062   5.030   3.480   4.936  0.2862 -0.2903  2.4298
  366TIP3    H2 1063   5.021   3.329   4.924  0.6079 -0.1399 -0.5487
  367TIP3   OH2 1064   2.969   3.539   2.643 -0.1440 -0.1836 -0.5431
  367TIP3    H1 1065   2.979   3.535   2.548  0.4457 -2.3392 -0.4375
  367TIP3    H2 1066   3.056   3.520   2.677 -0.5480 -0.3011  0.4453
  368TIP3   OH2 1067   4.699   3.992   1.365 -0.2937 -0.1098 -0.5611
  368TIP3    H1 1068   4.727   4.083   1.348 -0.2426  0.1247  0.6970
  368TIP3    H2 1069   4.711   3.948   1.281  0.0594  0.9567 -1.0953
  369TIP3   OH2 1070   2.653   6.214   0.886  0.0958 -0.1912  0.2353
  369TIP3    H1 1071   2.660   6.196   0.980  1.9851 -1.0120 -0.0116
  369TIP3    H2 1072   2.615   6.134   0.850  2.4337 -1.2823 -0.0416
  370TIP3   OH2 1073   1.006   2.268   4.770 -0.2200 -0.0787 -0.4166
  370TIP3    H1 1074   1.099   2.284   4.755 -0.0553  0.2827  0.8314
  370TIP3    H2 1075   0.983   2.327   4.842 -1.5958  0.3801 -1.1829
  371TIP3   OH2 1076   2.148   4.351   4.059  0.0907 -0.5572  0.0312
  371TIP3    H1 1077   2.095   4.385   4.131 -1.0776 -2.5725  0.1955
  371TIP3    H2 1078   2.197   4.279   4.098  0.8148 -0.5274 -0.7952
  372TIP3   OH2 1079   5.884   1.273   4.574 -0.2228  0.1084 -0.4313
  372TIP3    H1 1080   5.808   1.218   4.555  0.1337 -0.5866  0.0753
  372TIP3    H2 1081   5.954   1.236   4.521  0.9604 -2.2946  2.5131
  373TIP3   OH2 1082   0.715   2.584   4.869 -0.0566 -0.1323 -0.1976
  373TIP3    H1 1083   0.687   2.662   4.821  0.3778 -0.6358 -1.3039
  373TIP3    H2 1084   0.645   2.568   4.932  0.8900  2.4651  1.6826
  374TIP3   OH2 1085   4.573   0.755   2.942 -0.2099 -0.7363  0.3567
  374TIP3    H1 1086   4.598   0.714   3.025  0.2339  2.5285  2.0048
  374TIP3    H2 1087   4.655   0.791   2.909 -1.0718  2.0211  1.0023
  375TIP3   OH2 1088   4.103   2.535   2.536  0.1199 -0.4919  0.5191
  375TIP3    H1 1089   4.036   2.566   2.476 -0.1320  2.4125  2.1068
  375TIP3    H2 1090   4.185   2.547   2.490 -0.2339 -1.5358 -0.4354
  376TIP3   OH2 1091   4.795   2.673   1.326 -0.3479  0.0884  0.3704
  376TIP3    H1 1092   4.876   2.723   1.339 -0.7040  0.7525  0.0734
  376TIP3    H2 1093   4.751   2.677   1.410 -0.1337 -0.1799  0.5000
  377TIP3   OH2 1094   2.115   4.184   3.500  0.1474 -0.0168 -0.3200
  377TIP3    H1 1095   2.119   4.092   3.474 -1.2830  0.0045 -0.7243
  377TIP3    H2 1096   2.152   4.232   3.426  0.1975 -0.2195 -0.4268
  378TIP3   OH2 1097   0.565   3.988   1.619 -0.6772 -0.3250  0.2408
  378TIP3    H1 1098   0.544   3.927   1.549  1.3373  0.6749 -1.3165
  378TIP3    H2 1099   0.537   4.074   1.586  2.3854  0.5104 -0.4271
  379TIP3   OH2 1100   3.605   2.672   3.888 -0.3221  0.1000 -0.4242
  379TIP3    H1 1101   3.669   2.679   3.960  0.4495  2.8805 -1.2544
  379TIP3    H2 1102   3.523   2.701   3.927 -0.0323  1.0422 -0.4918
  380TIP3   OH2 1103   2.296   0.497   2.839 -0.2071  0.5956  0.2176
  380TIP3    H1 1104   2.351   0.441   2.894 -1.1177 -0.5716 -0.0315
  380TIP3    H2 1105   2.333   0.584   2.850  1.3504 -0.0700  0.4820
  381TIP3   OH2 1106   7.183   0.921   1.426  0.6520  0.3871  0.2418
  381TIP3    H1 1107   7.164   0.829   1.410 -0.9907  0.8982 -1.0263
  381TIP3    H2 1108   7.254   0.942   1.366  1.6260 -0.2335  1.1468
  382TIP3   OH2 1109   6.015   3.658   4.501 -0.5960  0.2255  0.3281
  382TIP3    H1 1110   5.958   3.610   4.560 -1.3693  1.8713  0.9937
  382TIP3    H2 1111   6.096   3.670   4.549 -0.6230  0.1154  0.3999
  383TIP3   OH2 1112   1.677   3.201   1.874 -0.3225  0.4911 -0.3606
  383TIP3    H1 1113   1.633   3.131   1.922  1.0138  1.6970  2.8994
  383TIP3    H2 1114   1.759   3.160   1.843 -1.5981 -0.5452 -2.6161
  384TIP3   OH2 1115   2.257   0.755   3.215 -0.1515  0.0456 -0.0371
  384TIP3    H1 1116   2.253   0.674   3.265  0.0160  0.7795  1.2269
  384TIP3    H2 1117   2.259   0.728   3.123 -2.0870 -1.3080  0.2682
  385TIP3   OH2 1118   6.886   3.589   3.732  0.5863  0.0071 -0.0077
  385TIP3    H1 1119   6.923   3.598   3.645  0.4623  0.6005 -0.0025
  385TIP3    H2 1120   6.849   3.675   3.752  0.6085 -0.1220  0.6255
  386TIP3   OH2 1121   0.061   2.328   2.279 -0.1199 -0.5542  0.6745
  386TIP3    H1 1122  -0.027   2.362   2.263  0.7235  2.3823  1.5635
  386TIP3    H2 1123   0.074   2.338   2.373  1.6048  0.3973  0.3744
  387TIP3   OH2 1124   2.425   2.301   5.100 -0.3764 -0.2601 -0.3223
  387TIP3    H1 1125   2.430   2.353   5.180  0.4086  0.7010 -0.9645
  387TIP3    H2 1126   2.434   2.365   5.029 -0.7835 -1.1186 -1.1746
  388TIP3   OH2 1127   5.557   0.920   0.922 -0.2638 -0.0082  0.5714
  388TIP3    H1 1128   5.621   0.870   0.972 -0.2931 -0.1717  0.4471
  388TIP3    H2 1129   5.519   0.982   0.984 -1.2658 -1.1007  1.0808
  389TIP3   OH2 1130   0.026   6.325   4.086 -0.2014 -0.6052  0.4886
  389TIP3    H1 1131  -0.055   6.326   4.034  0.0473  1.4320  0.0446
  389TIP3    H2 1132   0.061   6.237   4.074 -2.4708 -1.6354  0.9102
  390TIP3   OH2 1133   6.211   1.867   5.238  0.1834 -0.8935 -0.5030
  390TIP3    H1 1134   6.288   1.901   5.284  0.3564  0.1205 -1.4932
  390TIP3    H2 1135   6.151   1.839   5.308 -0.3183  2.2307  0.4875
  391TIP3   OH2 1136   5.742   5.851   5.791 -0.0235 -0.0091  0.0104
  391TIP3    H1 1137   5.730   5.801   5.872  2.2330 -2.2454 -0.9254
  391TIP3    H2 1138   5.666   5.829   5.737 -1.4576  1.3626  1.3522
  392TIP3   OH2 1139   4.635   2.976   0.910 -0.0043 -0.3560 -0.5339
  392TIP3    H1 1140   4.597   3.063   0.917  2.1407  0.5762  0.4587
  392TIP3    H2 1141   4.616   2.934   0.994  0.1644 -0.3211 -0.4783
  393TIP3   OH2 1142   3.640   0.579   4.943  0.2328  0.0388 -0.1543
  393TIP3    H1 1143   3.699   0.506   4.927 -0.0476 -0.6076  1.5280
  393TIP3    H2 1144   3.682   0.654   4.901  1.5671 -0.6722 -0.1398
  394TIP3   OH2 1145   6.509   3.403   0.505  0.0861 -0.2503  0.5993
  394TIP3    H1 1146   6.584   3.461   0.491 -0.6131  0.4948 -0.2058
  394TIP3    H2 1147   6.492   3.365   0.419 -0.7485 -0.0448  0.6610
  395TIP3   OH2 1148   4.786   3.978   2.645 -0.2580 -0.6925  0.4868
  395TIP3    H1 1149   4.749   4.023   2.570  1.2720  0.3881  0.3403
  395TIP3    H2 1150   4.807   3.890   2.613 -1.9497 -1.0968  0.3899
  396TIP3   OH2 1151   3.520   1.484   3.771 -0.4593  0.1587 -0.3063
  396TIP3    H1 1152   3.453   1.543   3.807  0.0682  0.1382  0.7749
  396TIP3    H2 1153   3.533   1.514   3.681 -0.4930  1.4614  0.0952
  397TIP3   OH2 1154   3.519   5.351   5.839 -0.1448  0.1528  0.6180
  397TIP3    H1 1155   3.444   5.405   5.814  0.8627  2.6057  2.4698
  397TIP3    H2 1156   3.586   5.373   5.773 -0.3061 -0.2857  0.3017
  398TIP3   OH2 1157   1.103   5.803   5.903 -0.0582 -0.6730 -0.4057
  398TIP3    H1 1158   1.111   5.724   5.957 -1.8700 -0.1232  0.7458
  398TIP3    H2 1159   1.089   5.770   5.815 -0.8413 -1.6627  0.0654
  399TIP3   OH2 1160   0.221   2.402   5.109 -0.2383  0.2101  0.0485
  399TIP3    H1 1161   0.309   2.439   5.119 -0.1838  0.4593 -1.1856
  399TIP3    H2 1162   0.221   2.325   5.165  1.7112 -1.3798 -1.9802
  400TIP3   OH2 1163   7.021   3.080   3.072  0.2566 -0.0763 -0.4268
  400TIP3    H1 1164   6.989   3.154   3.124 -1.2350 -1.8943  1.4224
  400TIP3    H2 1165   6.945   3.054   3.020  0.7782 -0.3236 -1.0803
  401TIP3   OH2 1166   3.054   6.322   2.319  0.1332  0.1396  0.6323
  401TIP3    H1 1167   3.108   6.400   2.308  0.8534 -0.2372  1.3391
  401TIP3    H2 1168   3.071   6.269   2.242  0.3980  0.2419  0.6210
  402TIP3   OH2 1169   6.908   1.066   0.496  0.1714  0.2646 -0.2399
  402TIP3    H1 1170   6.815   1.048   0.506  0.1493  0.3857 -0.2269
  402TIP3    H2 1171   6.948   1.030   0.576  0.2935 -0.8890 -0.7943
  403TIP3   OH2 1172   6.938   5.234   5.422 -0.2712 -0.1354 -0.1031
  403TIP3    H1 1173   7.015   5.184   5.394 -0.1813 -0.8481  1.3692
  403TIP3    H2 1174   6.973   5.308   5.470 -0.5009 -0.8853  1.2568
  404TIP3   OH2 1175   0.440   2.062   1.042  0.0245 -0.2033  0.2324
  404TIP3    H1 1176   0.521   2.113   1.041 -0.6785  0.9538 -0.3018
  404TIP3    H2 1177   0.413   2.058   0.950 -1.6166  1.2795  0.5987
  405TIP3   OH2 1178   1.856   5.601   4.581 -0.5002 -0.1345  0.0629
  405TIP3    H1 1179   1.858   5.669   4.513  1.2639 -0.7536 -0.5455
  405TIP3    H2 1180   1.943   5.563   4.580 -0.9532 -1.3164  1.5419
  406TIP3   OH2 1181   6.643   5.346   0.590 -0.2025 -0.1108 -0.0510
  406TIP3    H1 1182   6.730   5.386   0.582 -0.6766  0.6558 -1.9314
  406TIP3    H2 1183   6.591   5.389   0.522 -1.4104 -2.2620 -0.5778
  407TIP3   OH2 1184   4.833   3.021   1.495 -0.2837  0.1825  0.4636
  407TIP3    H1 1185   4.841   3.020   1.590 -0.4142  4.4668  0.6776
  407TIP3    H2 1186   4.831   3.113   1.471 -5.2545 -0.4656 -3.2902
  408TIP3   OH2 1187   6.329   4.748   2.991  0.0113 -0.3024 -0.5491
  408TIP3    H1 1188   6.234   4.760   2.987 -0.4898 -2.7130  1.4835
  408TIP3    H2 1189   6.350   4.693   2.916 -0.3713 -0.5031 -0.5112
  409TIP3   OH2 1190   3.726   4.791   0.649 -0.1723 -0.1942 -0.9900
  409TIP3    H1 1191   3.677   4.771   0.570 -2.8961 -0.0309  0.5319
  409TIP3    H2 1192   3.681   4.867   0.687  0.8164 -0.4763  0.8767
  410TIP3   OH2 1193   7.100   0.219   5.898 -0.1315  0.4321  0.2526
  410TIP3    H1 1194   7.059   0.305   5.891 -2.8697 -0.7732  0.5218
  410TIP3    H2 1195   7.091   0.180   5.811  1.4550  0.4998  0.0164
  411TIP3   OH2 1196   0.988   4.454   5.565  0.1704  0.7136 -0.5663
  411TIP3    H1 1197   1.068   4.504   5.548  0.8723 -0.8162 -2.1596
  411TIP3    H2 1198   1.018   4.378   5.616 -0.2128  0.0472 -1.3091
  412TIP3   OH2 1199   3.430   4.434   0.870  0.2271 -0.0513  0.0292
  412TIP3    H1 1200   3.429   4.503   0.936 -1.2090  0.3615 -0.3911
  412TIP3    H2 1201   3.522   4.412   0.861  0.6821  1.4913  0.5118
  413TIP3   OH2 1202   5.183   0.221   5.359  0.1532 -0.5483 -0.2400
  413TIP3    H1 1203   5.099   0.189   5.391 -0.3524  0.9111  0.0031
  413TIP3    H2 1204   5.231   0.143   5.334 -0.3160 -1.6316  1.9498
  414TIP3   OH2 1205   1.062   4.617   1.084 -0.1211 -0.7627  0.1303
  414TIP3    H1 1206   1.112   4.697   1.102 -0.5192  0.0506 -2.0618
  414TIP3    H2 1207   1.003   4.641   1.013 -0.2633 -3.0306 -0.6013
  415TIP3   OH2 1208   4.688   4.127   5.001  0.6255  0.0873 -0.0451
  415TIP3    H1 1209   4.598   4.125   5.036 -0.0714  1.0323 -1.6684
  415TIP3    H2 1210   4.743   4.133   5.079 -0.7797  0.6969  0.9612
  416TIP3   OH2 1211   6.483   4.818   5.072 -0.0696  0.0741 -0.1364
  416TIP3    H1 1212   6.566   4.858   5.046 -0.8875  1.5081 -0.6605
  416TIP3    H2 1213   6.500   4.784   5.160  1.3022 -0.4004 -0.5612
  417TIP3   OH2 1214   6.112   2.800   1.142  0.4928  0.0227 -0.1167
  417TIP3    H1 1215   6.068   2.884   1.125 -3.0917 -1.9502 -1.8420
  417TIP3    H2 1216   6.122   2.797   1.238 -0.9607  1.7036  0.1440
  418TIP3   OH2 1217   2.228   5.056   4.280  0.0110 -0.3708 -0.3444
  418TIP3    H1 1218   2.307   5.005   4.302  1.2441  0.3970 -2.6192
  418TIP3    H2 1219   2.259   5.146   4.272 -1.4904  0.2463  0.4723
  419TIP3   OH2 1220   1.356   5.525   3.199 -0.1082  0.4431 -0.1087
  419TIP3    H1 1221   1.310   5.507   3.280  0.9687 -0.6591  0.2868
  419TIP3    H2 1222   1.446   5.542   3.225  0.2161  0.2674 -1.0540
  420TIP3   OH2 1223   5.211   2.534   0.085  0.2146 -0.3235 -0.3600
  420TIP3    H1 1224   5.183   2.561  -0.002  0.0882 -2.0255 -0.8998
  420TIP3    H2 1225   5.266   2.457   0.070 -0.8542 -1.4399  1.1102
  421TIP3   OH2 1226   4.195   4.817   2.520 -0.0403  0.3550  0.0817
  421TIP3    H1 1227   4.192   4.725   2.495 -0.6956  0.5716 -0.6911
  421TIP3    H2 1228   4.103   4.843   2.528  0.1185  1.1773 -0.6116
  422TIP3   OH2 1229   7.092   6.616   3.738  0.9579 -0.0127 -0.0118
  422TIP3    H1 1230   7.169   6.577   3.779  1.2827  0.6013 -0.0340
  422TIP3    H2 1231   7.018   6.572   3.779  1.3103 -2.2976 -1.6326
  423TIP3   OH2 1232   6.940   5.872   2.834 -0.4393  0.1316 -0.7987
  423TIP3    H1 1233   6.929   5.837   2.923  0.3617  0.8948 -0.3847
  423TIP3    H2 1234   7.019   5.925   2.839 -0.8806  0.9085 -1.7500
  424TIP3   OH2 1235   0.968   1.092   4.278 -0.1216 -0.2639  0.5714
  424TIP3    H1 1236   1.038   1.104   4.341  1.3898 -1.5545 -0.7868
  424TIP3    H2 1237   1.009   1.049   4.203 -1.7446  1.4567 -1.4718
  425TIP3   OH2 1238   3.661   5.710   0.955  0.2274 -0.2586  0.4243
  425TIP3    H1 1239   3.596   5.769   0.993 -0.5080 -1.0860  0.4763
  425TIP3    H2 1240   3.739   5.722   1.009  0.7853  2.1925 -0.8200
  426TIP3   OH2 1241   4.538   2.394   4.004 -0.2107  0.4307  0.3054
  426TIP3    H1 1242   4.481   2.454   4.052  0.1728  0.2496  0.9961
  426TIP3    H2 1243   4.480   2.324   3.975 -0.6925  1.2005 -0.6415
  427TIP3   OH2 1244   0.353   6.778   2.512 -0.0850  0.2504 -0.8731
  427TIP3    H1 1245   0.372   6.870   2.526 -0.0479 -0.0159  1.0755
  427TIP3    H2 1246   0.308   6.750   2.591  0.1849 -1.4891 -1.2844
  428TIP3   OH2 1247   1.654   3.691   5.032  0.2103 -0.2634 -0.0534
  428TIP3    H1 1248   1.674   3.697   5.125  0.9339 -1.9968 -0.0550
  428TIP3    H2 1249   1.703   3.615   5.002  2.4573  1.9599 -2.5298
  429TIP3   OH2 1250   3.023   2.279   4.843 -0.1296 -0.0711  0.2458
  429TIP3    H1 1251   3.082   2.295   4.917 -0.2786 -0.9303  0.5717
  429TIP3    H2 1252   3.012   2.183   4.843  0.2205 -0.1228 -1.1580
  430TIP3   OH2 1253   5.042   2.524   5.526 -0.2642 -0.4955  0.1431
  430TIP3    H1 1254   5.017   2.462   5.594  0.4459 -0.7283  0.2046
  430TIP3    H2 1255   5.136   2.510   5.514 -0.5207 -1.0768 -1.4890
  431TIP3   OH2 1256   0.971   1.109   2.630 -0.0158  0.1925  0.0152
  431TIP3    H1 1257   1.053   1.101   2.583 -0.3978 -0.7418 -0.5333
  431TIP3    H2 1258   0.915   1.040   2.593 -0.8996  0.5329  0.6620
  432TIP3   OH2 1259   5.946   5.098   1.887 -0.1662 -0.5403 -0.1138
  432TIP3    H1 1260   5.939   5.053   1.802  0.0997 -0.0274 -0.4095
  432TIP3    H2 1261   6.022   5.057   1.929  0.1248 -0.3214 -0.4164
  433TIP3   OH2 1262   4.597   5.380   4.298  0.5107 -0.0848 -0.4182
  433TIP3    H1 1263   4.611   5.411   4.208 -1.5990 -0.3962 -0.9171
  433TIP3    H2 1264   4.502   5.387   4.311  0.9116  1.5649  2.4156
  434TIP3   OH2 1265   4.175   5.656   3.469 -0.0306  0.6811 -0.4630
  434TIP3    H1 1266   4.150   5.612   3.551  0.3545  2.9642  0.9756
  434TIP3    H2 1267   4.100   5.643   3.411 -1.3866  1.0428  1.1269
  435TIP3   OH2 1268   4.684   5.236   1.679  0.4965  0.2695  0.1083
  435TIP3    H1 1269   4.702   5.271   1.767  1.1860  0.8557 -0.2656
  435TIP3    H2 1270   4.718   5.302   1.619 -1.2097  0.5447 -0.6278
  436TIP3   OH2 1271   4.573   2.224   5.385 -0.3393 -0.4511 -0.8285
  436TIP3    H1 1272   4.662   2.240   5.353  0.1030  0.3638  0.7098
  436TIP3    H2 1273   4.533   2.311   5.388 -0.3134 -0.4579  0.8722
  437TIP3   OH2 1274   3.754   1.090   0.817  0.0122 -0.4000 -0.2284
  437TIP3    H1 1275   3.827   1.117   0.762  1.6836 -1.4934  1.3620
  437TIP3    H2 1276   3.790   1.089   0.905 -2.1946 -0.1112  0.7372
  438TIP3   OH2 1277   4.985   4.126   1.204 -0.2232 -0.5827 -0.2922
  438TIP3    H1 1278   5.031   4.080   1.273 -0.4802  0.2761  0.4719
  438TIP3    H2 1279   4.900   4.148   1.242 -1.9613 -3.4534 -2.1531
  439TIP3   OH2 1280   1.812   3.838   5.510  0.2992  0.1200  0.2953
  439TIP3    H1 1281   1.894   3.790   5.506  0.3326  0.2325 -0.4840
  439TIP3    H2 1282   1.756   3.786   5.568  0.3947 -0.7768 -0.3929
  440TIP3   OH2 1283   6.217   3.578   2.779 -0.0830  0.1399  0.3803
  440TIP3    H1 1284   6.239   3.541   2.864  1.1360 -0.0704 -0.0069
  440TIP3    H2 1285   6.224   3.505   2.718 -2.5808 -0.0994  0.3014
  441TIP3   OH2 1286   3.562   1.646   4.401  0.3093 -0.8800  0.1469
  441TIP3    H1 1287   3.631   1.713   4.410 -0.5601  0.1822 -0.8689
  441TIP3    H2 1288   3.534   1.629   4.491 -1.0800  1.8907  0.3322
  442TIP3   OH2 1289   0.466   3.307   0.735  0.4967 -0.1391  0.2862
  442TIP3    H1 1290   0.509   3.282   0.817 -0.6854 -0.0286  0.9679
  442TIP3    H2 1291   0.532   3.356   0.687  0.9302  0.6295  1.6082
  443TIP3   OH2 1292   6.104   5.988   4.151  0.0641 -0.4504  0.2126
  443TIP3    H1 1293   6.021   6.030   4.176  0.1912  0.3615 -0.6855
  443TIP3    H2 1294   6.171   6.051   4.180  0.5759 -2.1893  3.2416
  444TIP3   OH2 1295   0.001   6.003   5.228 -0.0328  0.7237 -0.0916
  444TIP3    H1 1296  -0.017   6.041   5.142 -1.0979  0.5883  0.0541
  444TIP3    H2 1297   0.077   5.947   5.214 -0.3125  0.5505 -0.9951
  445TIP3   OH2 1298   3.693   3.237   4.473  0.5016  0.4680  0.1273
  445TIP3    H1 1299   3.753   3.166   4.450 -1.3214 -1.5203  1.1345
  445TIP3    H2 1300   3.628   3.238   4.402  0.3379  0.9324  0.2796
  446TIP3   OH2 1301   2.015   3.850   2.840 -0.6447  0.1079  0.4252
  446TIP3    H1 1302   2.108   3.850   2.863  0.4830  0.7112 -3.4436
  446TIP3    H2 1303   1.977   3.781   2.894  1.9965 -0.0502  2.2381
  447TIP3   OH2 1304   1.272   0.838   1.481  0.3568  0.2049  0.0060
  447TIP3    H1 1305   1.243   0.780   1.411  0.7326  0.4868 -0.3857
  447TIP3    H2 1306   1.235   0.799   1.561  0.4022 -0.4296 -0.2763
  448TIP3   OH2 1307   1.287   4.048   0.447 -0.1124  0.2058  0.4853
  448TIP3    H1 1308   1.312   4.125   0.395 -0.9073  0.1131 -0.0414
  448TIP3    H2 1309   1.346   4.051   0.522  0.0019  1.2228  0.3756
  449TIP3   OH2 1310   6.557   2.523   0.728 -0.4937 -0.2234 -0.6824
  449TIP3    H1 1311   6.629   2.537   0.790  0.2022 -1.1653 -1.2615
  449TIP3    H2 1312   6.558   2.429   0.711 -0.8359 -0.0128 -1.9411
  450TIP3   OH2 1313   2.503   0.575   3.425  0.3210 -0.1341  0.1473
  450TIP3    H1 1314   2.512   0.489   3.466 -0.0478 -1.0397 -1.5745
  450TIP3    H2 1315   2.472   0.557   3.337 -1.0345  1.8508  0.1416
  451TIP3   OH2 1316   0.324   5.837   1.523 -0.3882 -0.2418 -0.3235
  451TIP3    H1 1317   0.359   5.893   1.592 -2.7932  1.7859 -0.5925
  451TIP3    H2 1318   0.348   5.882   1.441  1.0676 -1.7801 -0.7977
  452TIP3   OH2 1319   6.827   3.807   4.898 -0.7192  0.8275  0.1417
  452TIP3    H1 1320   6.903   3.864   4.907  1.3396 -1.4988 -1.1328
  452TIP3    H2 1321   6.844   3.735   4.958 -0.0322 -1.4711 -2.5749
  453TIP3   OH2 1322   0.340   2.663   4.772  0.7209 -0.2617 -0.6519
  453TIP3    H1 1323   0.415   2.708   4.732 -0.2918  1.7238 -0.4465
  453TIP3    H2 1324   0.337   2.696   4.861 -1.3679  1.0746 -1.1309
  454TIP3   OH2 1325   7.003   4.209   1.808  0.2488 -0.3982  0.3416
  454TIP3    H1 1326   6.993   4.133   1.751 -0.2389 -0.5150  0.5767
  454TIP3    H2 1327   6.927   4.264   1.790  0.7499  0.1886 -0.0414
  455TIP3   OH2 1328   3.630   6.243   0.828  0.6155 -0.0010  0.5715
  455TIP3    H1 1329   3.608   6.258   0.920 -0.9409 -0.9570  0.3894
  455TIP3    H2 1330   3.653   6.329   0.795 -1.7677  0.9323  1.1261
  456TIP3   OH2 1331   3.727   6.140   5.770 -0.1853 -0.0006  0.3237
  456TIP3    H1 1332   3.690   6.121   5.684 -1.6549 -1.0087  1.1299
  456TIP3    H2 1333   3.795   6.073   5.782  0.2685  0.3635 -0.1892
  457TIP3   OH2 1334   3.389   1.981   3.321 -0.0168  0.6359 -0.3776
  457TIP3    H1 1335   3.453   2.037   3.366 -0.2537  2.2068 -1.8505
  457TIP3    H2 1336   3.415   1.985   3.229 -0.2909 -1.4298 -0.5865
  458TIP3   OH2 1337   2.700   3.610   3.632 -0.0920  0.3553  0.5247
  458TIP3    H1 1338   2.752   3.530   3.642  0.9966  1.0748  0.7784
  458TIP3    H2 1339   2.655   3.599   3.548  0.6314 -0.2018  0.1957
  459TIP3   OH2 1340   5.032   1.764   4.817  0.0341  0.3436  0.0163
  459TIP3    H1 1341   5.053   1.736   4.906 -1.4963  1.5680  0.8127
  459TIP3    H2 1342   5.080   1.846   4.806  0.8851 -0.2271 -0.6166
  460TIP3   OH2 1343   1.103   0.968   5.827  0.2628  0.2495  0.2893
  460TIP3    H1 1344   1.043   1.039   5.806 -0.8511 -0.9861 -0.9778
  460TIP3    H2 1345   1.163   0.964   5.753  1.5647  1.0764  1.2611
  461TIP3   OH2 1346   4.479   4.167   1.149 -0.0364 -0.2738 -0.1642
  461TIP3    H1 1347   4.432   4.189   1.229  1.2726 -1.1543  0.8860
  461TIP3    H2 1348   4.411   4.149   1.085 -1.1430  2.3682  0.1328
  462TIP3   OH2 1349   1.436   4.010   4.063 -0.0228  0.2907 -0.1656
  462TIP3    H1 1350   1.460   3.925   4.099 -0.1495 -0.4463 -1.7540
  462TIP3    H2 1351   1.355   3.994   4.014  0.8588  0.9237 -1.9240
  463TIP3   OH2 1352   3.071   1.029   4.201  0.2977  0.5011 -0.2531
  463TIP3    H1 1353   3.122   0.948   4.197  1.3167  1.0627  0.7463
  463TIP3    H2 1354   3.090   1.074   4.118 -1.1828 -0.7712 -1.3297
  464TIP3   OH2 1355   2.630   5.368   0.323 -0.1749  0.0456 -0.0710
  464TIP3    H1 1356   2.681   5.436   0.366 -1.7155  1.6655 -0.6813
  464TIP3    H2 1357   2.587   5.321   0.395 -0.3537  0.7712  0.3073
  465TIP3   OH2 1358   3.155   0.889   3.268  0.9240  0.2722  0.5220
  465TIP3    H1 1359   3.137   0.978   3.236  0.6835  0.3148  0.7733
  465TIP3    H2 1360   3.219   0.854   3.206  0.0434  0.1567 -0.3505
  466TIP3   OH2 1361   4.901   2.794   3.973  0.0618  0.9467 -0.1677
  466TIP3    H1 1362   4.885   2.720   4.031  0.2119  2.0048  1.2653
  466TIP3    H2 1363   4.844   2.777   3.897  1.2384 -1.4042 -0.6462
  467TIP3   OH2 1364   4.852   0.398   1.054  0.3722 -0.1746 -0.4008
  467TIP3    H1 1365   4.830   0.463   0.987  0.4862  0.3217  0.0364
  467TIP3    H2 1366   4.931   0.433   1.096 -0.0104 -0.2148  0.3577
  468TIP3   OH2 1367   5.611   0.903   2.125 -0.2321 -0.3480  0.5054
  468TIP3    H1 1368   5.656   0.960   2.188 -0.2618 -0.0619  0.2684
  468TIP3    H2 1369   5.622   0.948   2.041 -1.2918 -0.0789  0.5018
  469TIP3   OH2 1370   7.078   4.463   2.683  0.3698  0.5959 -0.4632
  469TIP3    H1 1371   7.065   4.369   2.684 -2.0470  0.8657 -1.2548
  469TIP3    H2 1372   7.152   4.477   2.623  1.8876 -0.8384  0.9816
  470TIP3   OH2 1373   4.110   4.574   4.092  0.1951  0.3791 -0.2206
  470TIP3    H1 1374   4.171   4.505   4.118 -1.8043 -0.5116  2.6751
  470TIP3    H2 1375   4.042   4.529   4.042 -0.6862  0.3188  0.9735
  471TIP3   OH2 1376   1.841   4.504   2.136 -0.0810 -0.1643  0.2190
  471TIP3    H1 1377   1.855   4.432   2.197  0.4946  1.1396  1.7169
  471TIP3    H2 1378   1.776   4.560   2.180 -0.3480  0.3450 -0.8013
  472TIP3   OH2 1379   4.380   0.030   5.090 -0.3580  0.1164 -0.0788
  472TIP3    H1 1380   4.365  -0.021   5.170 -0.2067 -0.0616 -0.1640
  472TIP3    H2 1381   4.420   0.111   5.121 -0.7365  0.2464  0.0716
  473TIP3   OH2 1382   6.753   3.138   1.446  0.1271  0.5032 -0.1097
  473TIP3    H1 1383   6.664   3.152   1.415 -0.4203 -0.2094  1.0840
  473TIP3    H2 1384   6.791   3.077   1.382  0.2438  1.8929 -1.3989
  474TIP3   OH2 1385   2.729   6.707   4.326 -0.5814 -0.1008  0.2344
  474TIP3    H1 1386   2.665   6.722   4.395 -0.8017  1.6110 -0.3020
  474TIP3    H2 1387   2.786   6.784   4.327  0.0111 -0.4893 -0.8402
  475TIP3   OH2 1388   1.616   1.426   0.485 -0.3779 -0.4710  0.1964
  475TIP3    H1 1389   1.591   1.389   0.400 -2.8498 -1.1638  1.1118
  475TIP3    H2 1390   1.536   1.469   0.516  0.5960  0.1592  1.9675
  476TIP3   OH2 1391   2.288   5.699   0.040 -0.1204 -0.1091  0.3667
  476TIP3    H1 1392   2.345   5.717   0.115  1.2584 -2.0563 -0.1602
  476TIP3    H2 1393   2.281   5.604   0.037 -0.6301 -0.0497 -1.6204
  477TIP3   OH2 1394   0.462   5.556   2.522  0.1974 -0.0063 -0.0256
  477TIP3    H1 1395   0.448   5.536   2.615  1.6023 -0.1960  0.1722
  477TIP3    H2 1396   0.390   5.513   2.477 -0.5874  0.1979  0.9788
  478TIP3   OH2 1397   4.406   3.486   5.096 -0.2168 -0.2922 -0.0630
  478TIP3    H1 1398   4.407   3.520   5.186  1.6406  0.0116 -0.1539
  478TIP3    H2 1399   4.498   3.488   5.069 -0.4312 -2.4664 -1.1873
  479TIP3   OH2 1400   5.157   5.297   4.965  0.8280  0.0699  0.0383
  479TIP3    H1 1401   5.174   5.297   4.871  0.5964  2.3962 -0.0826
  479TIP3    H2 1402   5.166   5.389   4.991 -1.0546 -0.1788  1.9082
  480TIP3   OH2 1403   6.503   0.552   5.276  0.0012  0.1359  0.2957
  480TIP3    H1 1404   6.585   0.519   5.314 -1.0950 -1.4574  1.4259
  480TIP3    H2 1405   6.525   0.572   5.185  1.4658 -0.9688  0.3686
  481TIP3   OH2 1406   1.566   4.883   0.359  0.4289 -0.0505 -0.6330
  481TIP3    H1 1407   1.554   4.978   0.361 -1.5693 -0.2758 -0.4418
  481TIP3    H2 1408   1.610   4.866   0.275 -0.2099  0.9429 -1.1850
  482TIP3   OH2 1409   0.288   3.113   1.560  0.4882  0.3792 -0.0289
  482TIP3    H1 1410   0.259   3.197   1.596  0.4092  0.3444 -0.0130
  482TIP3    H2 1411   0.218   3.087   1.500  0.3988  0.2041  0.1508
  483TIP3   OH2 1412   6.517   4.501   4.848 -0.2059 -0.3504  0.1144
  483TIP3    H1 1413   6.518   4.424   4.791  1.1125 -0.6348  0.4766
  483TIP3    H2 1414   6.439   4.550   4.822  1.2113  0.4244 -3.1350
  484TIP3   OH2 1415   6.141   5.458   0.131  0.3395 -0.3952 -0.2092
  484TIP3    H1 1416   6.152   5.474   0.225  2.1639  1.2271 -0.6371
  484TIP3    H2 1417   6.217   5.499   0.090 -0.7327 -0.4774 -2.4676
  485TIP3   OH2 1418   5.261   6.444   0.332 -0.0606 -0.3997 -0.8042
  485TIP3    H1 1419   5.270   6.533   0.297 -1.2641  0.5312  1.0739
  485TIP3    H2 1420   5.298   6.388   0.264 -0.9001  1.3776 -2.8663
  486TIP3   OH2 1421   5.538   4.266   2.239 -0.2167 -0.2007  0.2630
  486TIP3    H1 1422   5.515   4.183   2.280  4.0130 -0.8770  1.7070
  486TIP3    H2 1423   5.570   4.241   2.152 -0.3556  0.1337  0.1131
  487TIP3   OH2 1424   6.083   5.077   3.507 -0.0902  0.1098  1.0926
  487TIP3    H1 1425   6.165   5.069   3.459  0.0256  0.2898  1.2597
  487TIP3    H2 1426   6.057   4.987   3.526 -0.2092  0.0326  0.5700
  488TIP3   OH2 1427   1.613   1.617   3.473 -0.6669 -0.5412  0.4112
  488TIP3    H1 1428   1.565   1.536   3.459 -0.2214 -0.6287 -0.6836
  488TIP3    H2 1429   1.701   1.589   3.496 -0.8427 -0.3640  1.3707
  489TIP3   OH2 1430   0.472   0.746   5.652 -0.2075 -0.5353  0.6047
  489TIP3    H1 1431   0.482   0.841   5.648  0.0341 -0.5591  0.6059
  489TIP3    H2 1432   0.551   0.712   5.610 -0.6962 -0.7299 -0.1832
  490TIP3   OH2 1433   5.151   4.094   2.331 -0.2689  0.2740  1.0789
  490TIP3    H1 1434   5.172   4.017   2.384 -0.9155 -1.3339 -0.8404
  490TIP3    H2 1435   5.062   4.117   2.357 -0.1251  0.2918  1.5696
  491TIP3   OH2 1436   0.321   0.947   4.841 -0.1750  0.3385  0.5644
  491TIP3    H1 1437   0.406   0.981   4.869  0.2648 -0.3759  0.1255
  491TIP3    H2 1438   0.340   0.895   4.763 -0.6173 -1.9249  1.8918
  492TIP3   OH2 1439   3.947   4.162   2.366 -0.0072  0.0574 -0.0936
  492TIP3    H1 1440   3.976   4.201   2.448  0.7139 -1.5896  0.4852
  492TIP3    H2 1441   3.871   4.110   2.390 -0.2918  0.2119 -0.6363
  493TIP3   OH2 1442   2.523   3.652   5.830 -0.1235 -0.4196  0.4520
  493TIP3    H1 1443   2.428   3.638   5.827 -0.4984  1.7591  0.4129
  493TIP3    H2 1444   2.543   3.700   5.750  0.8600 -0.0504  0.8980
  494TIP3   OH2 1445   7.218   3.889   2.983  0.9190 -0.1499  0.2569
  494TIP3    H1 1446   7.208   3.796   2.960  1.5389 -0.4054  0.9647
  494TIP3    H2 1447   7.150   3.905   3.048  0.4710  0.0391 -0.2502
  495TIP3   OH2 1448   6.696   0.077   3.858 -0.1128 -0.4216  0.0030
  495TIP3    H1 1449   6.647   0.065   3.939 -1.2630  1.7142 -0.2943
  495TIP3    H2 1450   6.786   0.095   3.887 -0.5207  0.3544  0.8439
  496TIP3   OH2 1451   1.288   5.322   4.686 -0.6948  0.4921 -0.0284
  496TIP3    H1 1452   1.332   5.273   4.756  0.5322 -0.1899 -1.2129
  496TIP3    H2 1453   1.203   5.279   4.676 -0.0549 -0.7536 -0.3303
  497TIP3   OH2 1454   1.673   1.710   4.982  0.5846  0.3258  0.1041
  497TIP3    H1 1455   1.693   1.623   4.949  0.0956  0.1728  0.2105
  497TIP3    H2 1456   1.683   1.702   5.077  0.5014  0.3784  0.1170
  498TIP3   OH2 1457   0.154   3.932   0.263 -0.5741 -0.4541 -0.0865
  498TIP3    H1 1458   0.186   3.866   0.201 -0.3703  0.6040 -1.1624
  498TIP3    H2 1459   0.183   4.015   0.225 -0.6195  0.2389  1.3557
  499TIP3   OH2 1460   5.608   6.244   5.770 -0.4382 -0.0418  0.0680
  499TIP3    H1 1461   5.523   6.283   5.790 -1.2480 -1.1185 -1.1292
  499TIP3    H2 1462   5.587   6.166   5.719  1.2718 -0.4509 -0.0623
  500TIP3   OH2 1463   2.844   1.893   3.007  0.0933  0.1952 -0.1572
  500TIP3    H1 1464   2.922   1.932   3.047 -0.4308  0.4524  0.6295
  500TIP3    H2 1465   2.795   1.968   2.972  0.0448  0.0627 -0.3733
  501TIP3   OH2 1466   6.714   0.889   4.909 -1.4174 -0.1975 -0.3501
  501TIP3    H1 1467   6.701   0.958   4.974 -0.5396 -0.3313 -0.0208
  501TIP3    H2 1468   6.715   0.935   4.825  1.6405  0.5807  0.0104
  502TIP3   OH2 1469   2.480   2.827   5.527  0.3832  0.8166 -0.1201
  502TIP3    H1 1470   2.440   2.835   5.614  1.0903 -0.0138  0.3032
  502TIP3    H2 1471   2.408   2.803   5.469  0.4312 -2.5461  0.9448
  503TIP3   OH2 1472   6.279   5.811   1.598  0.3833 -0.0174  0.0291
  503TIP3    H1 1473   6.291   5.759   1.518 -0.8199 -1.0148  0.4566
  503TIP3    H2 1474   6.203   5.771   1.641  0.6122  0.9064  1.3515
  504TIP3   OH2 1475   6.021   0.735  -0.007  0.5066 -0.2457 -0.1863
  504TIP3    H1 1476   6.046   0.725   0.084  0.0145 -1.3639 -0.1564
  504TIP3    H2 1477   6.096   0.777  -0.048  0.2582  1.3955  0.9517
  505TIP3   OH2 1478   3.712   1.118   1.572 -0.7667 -0.5096  0.3003
  505TIP3    H1 1479   3.643   1.151   1.629 -1.6501 -1.2769 -0.3091
  505TIP3    H2 1480   3.722   1.026   1.597  1.0309 -0.0882  1.3429
  506TIP3   OH2 1481   4.575   3.261   5.809  0.1196  0.5040  0.0949
  506TIP3    H1 1482   4.631   3.332   5.841 -0.9894  1.2675  0.4240
  506TIP3    H2 1483   4.636   3.195   5.777  1.2016  1.2980  0.4384
  507TIP3   OH2 1484   7.101   4.301   4.108  0.3640  0.6081 -0.4731
  507TIP3    H1 1485   7.138   4.356   4.177  0.0447 -1.0360  1.0870
  507TIP3    H2 1486   7.006   4.302   4.124  0.3573 -0.4392 -0.3342
  508TIP3   OH2 1487   2.039   5.765   4.815 -0.0103  0.4027 -0.0784
  508TIP3    H1 1488   1.966   5.764   4.878  0.1684  0.9470  0.1470
  508TIP3    H2 1489   2.024   5.844   4.763  1.1581  1.2945  0.8758
  509TIP3   OH2 1490   0.195   5.572   3.096 -0.0191 -0.1757 -0.0803
  509TIP3    H1 1491   0.116   5.522   3.118 -0.9794  1.7217  1.0498
  509TIP3    H2 1492   0.266   5.525   3.141 -0.9233 -0.3723  1.1940
  510TIP3   OH2 1493   3.704   6.327   2.222 -0.2663  0.0785 -0.2533
  510TIP3    H1 1494   3.675   6.253   2.168 -0.7180 -0.5211  0.7906
  510TIP3    H2 1495   3.790   6.301   2.255 -1.1038 -0.7052  1.4089
  511TIP3   OH2 1496   2.111   3.930   2.040 -0.5905  0.6282  0.2669
  511TIP3    H1 1497   2.085   3.981   1.963  0.2630  0.1968 -0.3118
  511TIP3    H2 1498   2.089   3.840   2.018 -0.1199  0.4736  0.4351
  512TIP3   OH2 1499   4.064   0.434   2.608 -0.1145 -0.2126 -0.2868
  512TIP3    H1 1500   4.013   0.503   2.567 -0.7257  0.1486  1.0224
  512TIP3    H2 1501   4.130   0.410   2.543 -1.1761  0.1758 -1.5312
  513TIP3   OH2 1502   5.963   0.575   1.243  0.1955  0.3658 -0.1058
  513TIP3    H1 1503   5.969   0.484   1.216 -1.0031  0.2015  0.1254
  513TIP3    H2 1504   6.039   0.589   1.299  2.0056  0.3441 -2.3801
  514TIP3   OH2 1505   1.794   2.083   4.084  0.9791  0.0448  0.3773
  514TIP3    H1 1506   1.756   1.996   4.071 -0.9028  1.2059 -3.6134
  514TIP3    H2 1507   1.776   2.103   4.176 -2.5575 -2.0987  0.3585
  515TIP3   OH2 1508   2.365   0.096   1.229  0.3147  0.3612  0.3708
  515TIP3    H1 1509   2.274   0.117   1.250  0.2881 -0.3145  0.9590
  515TIP3    H2 1510   2.366   0.086   1.134 -0.9693 -2.8699  0.5774
  516TIP3   OH2 1511   1.395   3.598   5.000  0.0296  0.0559  0.6190
  516TIP3    H1 1512   1.488   3.621   5.001  0.2590 -0.1771 -2.6653
  516TIP3    H2 1513   1.356   3.662   4.940 -1.5843 -0.8535  0.6585
  517TIP3   OH2 1514   7.166   4.520   1.983 -0.2549 -0.0898  0.4589
  517TIP3    H1 1515   7.209   4.488   1.903  0.2746  1.3464  0.1378
  517TIP3    H2 1516   7.080   4.479   1.983 -1.0990  1.4927 -1.9858
  518TIP3   OH2 1517   1.619   4.270   4.915 -0.1175 -0.0854  0.2155
  518TIP3    H1 1518   1.602   4.226   4.998 -0.0191 -0.3542  0.0942
  518TIP3    H2 1519   1.559   4.229   4.853 -0.2597  0.1831  0.1749
  519TIP3   OH2 1520   3.054   0.889   0.125  0.3560  0.2652  0.0129
  519TIP3    H1 1521   2.997   0.853   0.057 -2.1788  0.0889  2.1026
  519TIP3    H2 1522   3.045   0.829   0.199  3.3648  0.2159  0.4683
  520TIP3   OH2 1523   5.311   2.438   2.311  0.3690  0.3382  0.1418
  520TIP3    H1 1524   5.384   2.382   2.285  0.4779  0.5787 -0.0736
  520TIP3    H2 1525   5.233   2.387   2.288  0.4655  0.3790 -0.2915
  521TIP3   OH2 1526   1.736   0.395   0.812 -0.0537  0.1447  0.2564
  521TIP3    H1 1527   1.830   0.379   0.822 -0.4424 -1.0265  3.1072
  521TIP3    H2 1528   1.719   0.474   0.864 -0.8611 -0.6855  1.3147
  522TIP3   OH2 1529   1.102   2.632   0.340 -0.7220 -0.0640 -0.1042
  522TIP3    H1 1530   1.015   2.634   0.380 -0.9825 -0.7393 -0.6150
  522TIP3    H2 1531   1.155   2.580   0.400 -0.8950 -0.3788 -0.2239
  523TIP3   OH2 1532   4.441   3.258   1.416  0.3165  0.6311 -0.5968
  523TIP3    H1 1533   4.360   3.308   1.422 -0.4476 -0.6862  0.7120
  523TIP3    H2 1534   4.507   3.322   1.387 -0.9662  1.9488 -0.7131
  524TIP3   OH2 1535   4.815   0.435   3.781  0.1584  0.3792  0.3761
  524TIP3    H1 1536   4.875   0.362   3.764  0.6339  0.5621  1.1963
  524TIP3    H2 1537   4.851   0.508   3.731 -0.0093  0.1938 -0.0149
  525TIP3   OH2 1538   7.181   2.069   4.327 -0.1883 -0.4021 -0.2476
  525TIP3    H1 1539   7.159   2.070   4.420  0.8590  1.0111  0.0124
  525TIP3    H2 1540   7.258   2.125   4.320 -1.1169  0.7062 -2.1870
  526TIP3   OH2 1541   2.821   3.106   5.694 -0.2875 -0.3558 -0.7893
  526TIP3    H1 1542   2.755   3.164   5.731  2.6097  1.5319  1.9398
  526TIP3    H2 1543   2.852   3.151   5.616  0.7380  1.0335  0.3688
  527TIP3   OH2 1544   1.802   0.508   1.133 -0.6700  0.2088 -0.3106
  527TIP3    H1 1545   1.714   0.490   1.168 -1.3282  0.8626 -1.5578
  527TIP3    H2 1546   1.849   0.425   1.142 -0.9877  0.1861  1.5272
  528TIP3   OH2 1547   4.533   0.347   1.574  0.8196  0.1571 -0.4744
  528TIP3    H1 1548   4.528   0.441   1.592  1.5616 -0.0895  1.1742
  528TIP3    H2 1549   4.469   0.308   1.633  2.3709 -0.5721  0.7947
  529TIP3   OH2 1550   3.347   6.716   5.147 -0.3464  0.0486  0.0826
  529TIP3    H1 1551   3.324   6.808   5.133 -1.1908 -0.1455  0.1915
  529TIP3    H2 1552   3.440   6.711   5.124 -0.1705  1.0268  0.5466
  530TIP3   OH2 1553   0.391   6.022   4.679 -0.1224  0.0265  0.1419
  530TIP3    H1 1554   0.448   6.083   4.727  0.8049  0.0681 -0.9568
  530TIP3    H2 1555   0.377   6.065   4.595 -0.6183 -0.6427 -0.1190
  531TIP3   OH2 1556   4.856   4.280   4.051 -0.1422 -0.3206 -0.2371
  531TIP3    H1 1557   4.773   4.255   4.093  0.7303  0.0101  1.7984
  531TIP3    H2 1558   4.844   4.372   4.027 -0.1257 -0.0571  0.7273
  532TIP3   OH2 1559   2.642   5.766   1.809  0.2917 -0.7224  0.0181
  532TIP3    H1 1560   2.653   5.845   1.861 -0.0678  0.1264 -1.1491
  532TIP3    H2 1561   2.678   5.696   1.864 -3.1241 -0.4805  2.8809
  533TIP3   OH2 1562   1.013   2.315   5.170  0.4960  0.1706  0.5777
  533TIP3    H1 1563   0.957   2.363   5.108  0.4719 -0.3961  0.1601
  533TIP3    H2 1564   1.093   2.298   5.122 -0.2257 -1.9390  0.0161
  534TIP3   OH2 1565   6.793   2.532   1.271 -0.9998  0.0216 -0.2289
  534TIP3    H1 1566   6.781   2.616   1.226  0.8016  0.8549  0.7525
  534TIP3    H2 1567   6.871   2.494   1.231  0.8851  0.9567  2.3236
  535TIP3   OH2 1568   1.133   5.824   1.115  0.3379  0.4349  0.3562
  535TIP3    H1 1569   1.072   5.898   1.112  1.0346  0.9969 -1.1840
  535TIP3    H2 1570   1.161   5.812   1.024  1.2491 -0.8850  0.7739
  536TIP3   OH2 1571   4.076   2.350   0.018  0.3102  0.0679  0.0860
  536TIP3    H1 1572   3.992   2.363  -0.027  0.9217  1.1304 -0.7948
  536TIP3    H2 1573   4.109   2.438   0.033  1.2784 -0.3415  0.4103
  537TIP3   OH2 1574   3.533   6.312   1.082  0.5139 -0.3048  0.0464
  537TIP3    H1 1575   3.605   6.330   1.143  1.0784  0.0059 -0.6934
  537TIP3    H2 1576   3.456   6.303   1.138  0.8447  0.9319  0.7386
  538TIP3   OH2 1577   4.580   0.676   4.506  0.4896  0.1978  0.1473
  538TIP3    H1 1578   4.608   0.744   4.444  1.0040  0.7814  0.9915
  538TIP3    H2 1579   4.550   0.725   4.582  0.4320 -0.5259  0.5948
  539TIP3   OH2 1580   4.560   5.509   3.959  0.4385 -0.2306  0.0676
  539TIP3    H1 1581   4.597   5.514   3.870  1.2077  0.0265  0.3886
  539TIP3    H2 1582   4.544   5.416   3.973  0.2896 -0.2719 -0.3471
  540TIP3   OH2 1583   6.670   6.118   3.937  0.3739 -0.0421  0.1816
  540TIP3    H1 1584   6.579   6.145   3.952  0.7768  1.7939 -0.4053
  540TIP3    H2 1585   6.663   6.032   3.895 -1.0542 -0.2661  0.8049
  541TIP3   OH2 1586   0.379   0.380   1.230  0.1173  0.1450 -0.1473
  541TIP3    H1 1587   0.399   0.372   1.324  1.0696 -0.1579 -0.3662
  541TIP3    H2 1588   0.287   0.355   1.224  0.9470 -3.7914  0.2481
  542TIP3   OH2 1589   3.297   2.703   0.534 -0.0514  0.0691  0.7997
  542TIP3    H1 1590   3.334   2.656   0.461  0.8052  2.4882 -0.4300
  542TIP3    H2 1591   3.229   2.758   0.495  0.9222  1.9565  1.6365
  543TIP3   OH2 1592   5.181   2.108   3.073  0.3859 -0.1244 -0.2344
  543TIP3    H1 1593   5.165   2.036   3.011  0.2055  0.5399 -0.9687
  543TIP3    H2 1594   5.207   2.064   3.154  0.1333 -1.0265 -0.6297
  544TIP3   OH2 1595   6.143   1.874   4.077 -0.2694 -0.1928 -0.1581
  544TIP3    H1 1596   6.058   1.890   4.035 -0.6667 -2.5445 -0.4152
  544TIP3    H2 1597   6.197   1.838   4.007  0.4198 -0.2366  0.3913
  545TIP3   OH2 1598   0.458   5.192   5.439  0.2414 -0.7734 -0.3288
  545TIP3    H1 1599   0.533   5.234   5.396 -0.0524  1.0815  0.8487
  545TIP3    H2 1600   0.395   5.264   5.453  0.2354 -1.2569  2.9568
  546TIP3   OH2 1601   3.983   5.847   2.627 -0.4942  0.1166 -0.6065
  546TIP3    H1 1602   4.024   5.922   2.670 -0.4988  0.5546 -1.3519
  546TIP3    H2 1603   4.031   5.838   2.545  0.7041 -1.7979  0.2304
  547TIP3   OH2 1604   0.609   0.065   3.912  1.1454  0.2115  0.6259
  547TIP3    H1 1605   0.703   0.047   3.916  1.2491  0.7231  0.5924
  547TIP3    H2 1606   0.591   0.116   3.991  0.3053 -2.3841  2.2435
  548TIP3   OH2 1607   6.916   1.596   0.208 -0.2976  0.0159  0.4677
  548TIP3    H1 1608   6.955   1.528   0.153  1.3877  1.4655 -0.1919
  548TIP3    H2 1609   6.970   1.597   0.287 -0.4978  0.4184  0.6012
  549TIP3   OH2 1610   6.707   4.458   4.416  0.6799 -1.1720  0.0681
  549TIP3    H1 1611   6.687   4.551   4.424  3.1196 -0.6407  0.9683
  549TIP3    H2 1612   6.733   4.432   4.505  1.2646 -2.3688 -0.4293
  550TIP3   OH2 1613   6.166   0.587   1.432  0.0394 -0.4530 -0.2127
  550TIP3    H1 1614   6.207   0.659   1.480  0.9654  0.5851 -2.3888
  550TIP3    H2 1615   6.236   0.522   1.421  0.4037  0.1248 -1.6173
  551TIP3   OH2 1616   2.950   1.714   3.364  0.0121 -0.2484 -0.1254
  551TIP3    H1 1617   2.911   1.801   3.372  1.3551  0.2984  0.8529
  551TIP3    H2 1618   2.880   1.653   3.389 -1.0217  0.5148 -1.0812
  552TIP3   OH2 1619   3.314   1.915   3.583  0.4588 -0.4780 -0.1619
  552TIP3    H1 1620   3.229   1.886   3.616 -0.7218  1.8946 -0.8608
  552TIP3    H2 1621   3.305   1.913   3.488  1.4346 -0.8289 -0.2583
  553TIP3   OH2 1622   1.654   5.173   1.061  0.3001  0.0861  0.3385
  553TIP3    H1 1623   1.653   5.083   1.031 -0.3596 -0.4786  1.9670
  553TIP3    H2 1624   1.741   5.184   1.101  0.0085 -0.1574  1.0525
  554TIP3   OH2 1625   3.411   5.834   3.442  0.6360 -0.6102 -0.3179
  554TIP3    H1 1626   3.376   5.922   3.426 -0.2800 -0.9045  0.0261
  554TIP3    H2 1627   3.391   5.786   3.362 -0.4830 -0.9970  0.1724
  555TIP3   OH2 1628   0.817   6.693   5.392  0.5538 -0.3500  0.6165
  555TIP3    H1 1629   0.862   6.609   5.402 -1.4168 -1.4224  0.9094
  555TIP3    H2 1630   0.773   6.686   5.307  0.4692  0.4407  0.5882
  556TIP3   OH2 1631   5.632   6.364   4.848  0.5169 -0.2994  0.0560
  556TIP3    H1 1632   5.582   6.331   4.773  1.2991  2.1490 -1.6963
  556TIP3    H2 1633   5.694   6.426   4.809 -0.6641  3.0115  2.9437
  557TIP3   OH2 1634   1.537   4.465   4.604  0.6618 -0.1671  0.4241
  557TIP3    H1 1635   1.460   4.423   4.643  0.9612 -0.2815  0.9013
  557TIP3    H2 1636   1.581   4.394   4.556  0.0591  0.0702 -0.5007
  558TIP3   OH2 1637   2.912   4.970   4.704 -0.3411 -0.2036  0.5375
  558TIP3    H1 1638   2.977   4.942   4.769  0.5547  1.0256  0.2066
  558TIP3    H2 1639   2.905   5.064   4.717 -0.6655 -0.0471 -0.7039
  559TIP3   OH2 1640   1.043   4.155   2.701 -0.4749 -0.9378  0.3576
  559TIP3    H1 1641   0.995   4.185   2.624  0.2894  0.6493  0.4630
  559TIP3    H2 1642   0.992   4.187   2.775 -0.0798 -0.5950  0.4835
  560TIP3   OH2 1643   2.215   6.165   4.318 -0.1825  0.5781 -0.4201
  560TIP3    H1 1644   2.287   6.156   4.256  1.4672 -0.7437  1.5300
  560TIP3    H2 1645   2.150   6.102   4.290  1.1283 -0.9856 -0.0937
  561TIP3   OH2 1646   1.764   3.223   0.765 -0.3303  0.7014 -0.4365
  561TIP3    H1 1647   1.786   3.236   0.857  3.0388 -0.9444 -0.8594
  561TIP3    H2 1648   1.796   3.135   0.745 -0.7406  1.1001 -3.2381
  562TIP3   OH2 1649   2.268   6.165   0.918  0.2683  0.4689  0.1448
  562TIP3    H1 1650   2.299   6.100   0.856 -1.6405 -0.0367 -0.3264
  562TIP3    H2 1651   2.308   6.247   0.889 -0.6323  0.2604 -1.8251
  563TIP3   OH2 1652   4.236   5.244   3.288  0.9572 -0.2225 -0.1425
  563TIP3    H1 1653   4.250   5.153   3.263  3.0380  0.2194 -0.7710
  563TIP3    H2 1654   4.218   5.290   3.206  0.0770 -0.0400  0.1486
  564TIP3   OH2 1655   1.251   2.948   4.720  0.3552  0.1774  0.0926
  564TIP3    H1 1656   1.305   2.881   4.763  0.9880 -0.0607 -1.0452
  564TIP3    H2 1657   1.164   2.908   4.715  0.5388 -0.2340  0.1437
  565TIP3   OH2 1658   2.970   1.267   4.689  0.1883 -0.0668  0.0684
  565TIP3    H1 1659   3.047   1.258   4.745  0.4915  1.2212 -0.0935
  565TIP3    H2 1660   2.921   1.186   4.701  1.1348 -0.5432  0.8402
  566TIP3   OH2 1661   4.447   0.997   3.973  0.5698 -0.5508  0.6233
  566TIP3    H1 1662   4.390   1.038   4.038 -0.2176  0.1089 -0.4418
  566TIP3    H2 1663   4.396   0.921   3.942  0.6260 -0.4472  0.2721
  567TIP3   OH2 1664   6.235   3.127   2.194 -0.4287 -0.1734 -0.0020
  567TIP3    H1 1665   6.241   3.066   2.267  2.3604 -1.7030 -1.3125
  567TIP3    H2 1666   6.272   3.208   2.227 -0.8597 -0.2874  0.7748
  568TIP3   OH2 1667   0.826   5.800   1.272 -0.2043  0.2767 -0.0176
  568TIP3    H1 1668   0.798   5.766   1.187  0.8183  1.2680 -0.7850
  568TIP3    H2 1669   0.871   5.726   1.314 -0.8931 -0.2778 -0.2395
  569TIP3   OH2 1670   0.685   5.427   5.380 -0.0505 -0.4149 -0.1697
  569TIP3    H1 1671   0.650   5.429   5.469 -0.9740 -0.9655 -0.5061
  569TIP3    H2 1672   0.615   5.463   5.326  1.4125  2.2931 -0.4362
  570TIP3   OH2 1673   3.955   5.709   1.098  0.3501 -0.5244 -0.2591
  570TIP3    H1 1674   3.973   5.620   1.071  0.6950 -1.1310  1.7711
  570TIP3    H2 1675   3.895   5.700   1.172 -1.0479  1.0325 -1.1426
  571TIP3   OH2 1676   1.048   0.634   5.410 -0.5921 -0.3820  0.1748
  571TIP3    H1 1677   1.070   0.603   5.322  1.9158 -1.5633  1.1196
  571TIP3    H2 1678   1.101   0.580   5.468 -2.0334  0.4957  2.4349
  572TIP3   OH2 1679   5.806   3.998   2.229  0.2516 -0.0281 -0.2879
  572TIP3    H1 1680   5.777   3.961   2.312 -1.7992  1.0453 -0.4384
  572TIP3    H2 1681   5.886   4.046   2.250  0.6462 -1.0883  0.7159
  573TIP3   OH2 1682   0.699   3.025   4.739  0.2218 -0.2223  0.1797
  573TIP3    H1 1683   0.694   3.076   4.657 -0.9688  0.7087  0.8067
  573TIP3    H2 1684   0.618   2.975   4.741 -0.6108  1.1019  1.6174
  574TIP3   OH2 1685   0.958   5.799   2.424 -0.6929  0.0838 -0.3263
  574TIP3    H1 1686   0.886   5.822   2.483 -2.0186 -1.1452 -1.4015
  574TIP3    H2 1687   1.007   5.732   2.471 -1.2465 -0.2834 -0.2658
  575TIP3   OH2 1688   3.147   2.571   4.622 -0.0818 -0.2541 -0.6997
  575TIP3    H1 1689   3.115   2.527   4.543  0.7456 -0.5174 -0.8910
  575TIP3    H2 1690   3.199   2.505   4.668 -0.6516 -0.1454  0.1415
  576TIP3   OH2 1691   5.539   3.866   3.125  0.0285  0.1240  0.2854
  576TIP3    H1 1692   5.599   3.806   3.080 -0.5030 -1.1666  1.2295
  576TIP3    H2 1693   5.470   3.809   3.160  1.1305  0.7895  3.9436
  577TIP3   OH2 1694   0.831   5.600   5.215  0.3074 -0.0946  0.3707
  577TIP3    H1 1695   0.758   5.551   5.252 -0.4487  2.2436  2.2528
  577TIP3    H2 1696   0.794   5.645   5.140 -0.0214  0.5091  0.8853
  578TIP3   OH2 1697   4.208   3.090   0.934 -0.3803 -0.0473  0.0121
  578TIP3    H1 1698   4.206   3.137   1.018 -0.7521  1.8724 -1.0061
  578TIP3    H2 1699   4.116   3.078   0.911 -0.2809 -0.6379 -0.1026
  579TIP3   OH2 1700   7.009   4.008   4.910  0.1357 -0.2844 -0.1598
  579TIP3    H1 1701   7.066   3.996   4.987  1.0113 -1.4363 -0.9616
  579TIP3    H2 1702   7.069   4.012   4.836 -0.5686  2.4289 -0.7020
  580TIP3   OH2 1703   2.806   5.800   2.440 -0.0146  0.0107 -0.2286
  580TIP3    H1 1704   2.821   5.799   2.535 -0.5355  1.1002 -0.1102
  580TIP3    H2 1705   2.862   5.870   2.408 -0.7398  0.4657 -0.5417
  581TIP3   OH2 1706   5.720   3.554   3.309 -0.0858 -0.2515  0.0340
  581TIP3    H1 1707   5.741   3.558   3.215  1.0061  1.9487  0.3073
  581TIP3    H2 1708   5.800   3.523   3.350 -0.1031  0.1535  0.3695
  582TIP3   OH2 1709   0.434   6.637   0.055 -0.4075  0.1907  0.0973
  582TIP3    H1 1710   0.464   6.550   0.030 -0.3081  0.2186  0.1193
  582TIP3    H2 1711   0.361   6.655  -0.004 -0.0807  0.3165 -0.2742
  583TIP3   OH2 1712   1.286   6.453   4.819 -0.1924 -0.3856 -0.1996
  583TIP3    H1 1713   1.284   6.538   4.864  0.1268 -0.7459  0.5114
  583TIP3    H2 1714   1.297   6.475   4.727  0.7401  0.3221  0.0666
  584TIP3   OH2 1715   0.239   1.583   0.453  0.4706 -0.1483  0.0538
  584TIP3    H1 1716   0.241   1.540   0.368  0.9177 -1.5836  0.7481
  584TIP3    H2 1717   0.238   1.677   0.433  0.0472 -0.4618 -1.5187
  585TIP3   OH2 1718   0.399   3.173   1.892  0.0743  0.0275 -0.1135
  585TIP3    H1 1719   0.454   3.238   1.847  1.4088 -1.0401 -0.0924
  585TIP3    H2 1720   0.415   3.092   1.844 -1.0975 -0.4209  0.2351
  586TIP3   OH2 1721   2.233   6.411   4.432 -0.3676 -0.3491  0.1189
  586TIP3    H1 1722   2.152   6.418   4.484 -0.9484  1.6845 -0.9323
  586TIP3    H2 1723   2.225   6.328   4.385 -1.9631 -0.0903 -0.1197
  587TIP3   OH2 1724   1.803   3.682   4.034 -0.6876 -0.1423 -0.4430
  587TIP3    H1 1725   1.787   3.650   3.945 -1.0857  0.0078 -0.4247
  587TIP3    H2 1726   1.855   3.761   4.023 -1.2558  0.2178 -0.5730
  588TIP3   OH2 1727   6.087   1.003   1.826  0.0178  0.2282 -0.3755
  588TIP3    H1 1728   6.092   0.909   1.841 -0.8192 -0.1190 -1.9933
  588TIP3    H2 1729   6.178   1.034   1.832  0.4020 -0.8267 -0.6080
  589TIP3   OH2 1730   0.568   3.870   3.948 -0.5267  0.0952 -0.2787
  589TIP3    H1 1731   0.501   3.935   3.968 -0.3057 -0.2373  1.7635
  589TIP3    H2 1732   0.550   3.798   4.008  1.2835 -0.2632 -0.1178
  590TIP3   OH2 1733   5.733   4.302   0.602 -0.4253  0.3745  0.1148
  590TIP3    H1 1734   5.706   4.373   0.659  0.1318  0.4707  0.2717
  590TIP3    H2 1735   5.722   4.336   0.514 -0.1611  0.6557  0.1890
  591TIP3   OH2 1736   0.065   1.457   3.649 -0.2174 -0.6561  0.0678
  591TIP3    H1 1737   0.047   1.458   3.555  1.5430  1.0249 -0.3202
  591TIP3    H2 1738  -0.015   1.492   3.688 -0.3201  0.4009 -0.9936
  592TIP3   OH2 1739   2.493   0.150   0.311  0.4676  0.1685 -0.4468
  592TIP3    H1 1740   2.552   0.122   0.381  2.2927  0.1635 -1.8934
  592TIP3    H2 1741   2.523   0.239   0.289  1.2917 -0.5389 -2.4898
  593TIP3   OH2 1742   1.070   1.568   5.539  0.5190 -0.1821 -0.0848
  593TIP3    H1 1743   0.979   1.555   5.564  0.4174  0.0995 -0.2945
  593TIP3    H2 1744   1.068   1.646   5.482  1.0397  0.5350  0.8436
  594TIP3   OH2 1745   3.565   4.005   0.304  0.5702 -0.4819 -0.1374
  594TIP3    H1 1746   3.646   3.955   0.295  0.8145  0.1044 -1.4160
  594TIP3    H2 1747   3.553   4.047   0.218 -0.5713  0.2101  0.3390
  595TIP3   OH2 1748   5.139   5.444   4.500  0.2067  0.3401 -0.1195
  595TIP3    H1 1749   5.059   5.438   4.553 -0.4184  0.0121 -1.0871
  595TIP3    H2 1750   5.164   5.536   4.504 -0.4030  0.5057 -0.0747
  596TIP3   OH2 1751   0.182   3.194   3.696  0.0527  0.2106  0.4757
  596TIP3    H1 1752   0.145   3.248   3.627  0.8596  1.0099  0.6525
  596TIP3    H2 1753   0.200   3.110   3.654  0.7885  0.7729 -0.3774
  597TIP3   OH2 1754   1.004   5.852   3.324  0.0524 -0.2090  0.2910
  597TIP3    H1 1755   0.937   5.913   3.355 -2.2480 -2.4019 -0.0044
  597TIP3    H2 1756   1.080   5.870   3.378 -0.5142  2.8065  0.2605
  598TIP3   OH2 1757   3.312   4.446   5.600 -0.5828  0.3512  0.6766
  598TIP3    H1 1758   3.383   4.494   5.558 -1.3301  0.4229 -0.5394
  598TIP3    H2 1759   3.261   4.513   5.645 -1.6520  0.7718 -1.0569
  599TIP3   OH2 1760   3.881   3.667   1.422 -0.0136 -0.6334  0.1384
  599TIP3    H1 1761   3.940   3.685   1.349  1.8711 -1.0745  1.4606
  599TIP3    H2 1762   3.912   3.724   1.492 -0.7524 -1.3459  1.0744
  600TIP3   OH2 1763  -0.014   5.408   5.840 -0.3151  0.0633  0.1594
  600TIP3    H1 1764   0.081   5.401   5.829 -0.4066 -1.0197  0.0496
  600TIP3    H2 1765  -0.024   5.455   5.923  0.3078  1.1224 -0.3350
  601TIP3   OH2 1766   6.628   6.661   4.454  0.3370  0.2961 -0.0990
  601TIP3    H1 1767   6.616   6.566   4.458  2.3557 -0.0248 -0.8492
  601TIP3    H2 1768   6.570   6.695   4.523  1.7860 -1.6800  2.2482
  602TIP3   OH2 1769   5.963   1.268   1.875  0.5369 -0.5079  0.2104
  602TIP3    H1 1770   6.016   1.188   1.874  1.5042  0.1112  0.0372
  602TIP3    H2 1771   6.026   1.338   1.856  0.1008  0.5107  2.2351
  603TIP3   OH2 1772   4.980   6.540   4.791  0.3665 -0.4501 -0.0548
  603TIP3    H1 1773   5.023   6.561   4.708 -1.6329  1.4164 -0.7134
  603TIP3    H2 1774   4.909   6.481   4.767 -0.5172  0.4751  0.2293
  604TIP3   OH2 1775   6.964   1.455   2.570 -0.0803 -0.1158 -0.2654
  604TIP3    H1 1776   7.018   1.397   2.516  1.5994  1.5586 -0.4790
  604TIP3    H2 1777   6.997   1.443   2.659 -1.3928 -1.2719  0.0899
  605TIP3   OH2 1778   5.565   2.242   3.251 -0.0439 -0.4336  0.2358
  605TIP3    H1 1779   5.544   2.207   3.337 -0.3396 -3.0050 -0.7706
  605TIP3    H2 1780   5.482   2.276   3.218  0.3363  1.8173  1.4069
  606TIP3   OH2 1781   2.684   3.162   3.807  0.0004  0.0789 -0.5629
  606TIP3    H1 1782   2.589   3.161   3.817  0.0466 -1.8147  0.1635
  606TIP3    H2 1783   2.714   3.092   3.865  1.6426 -0.9779 -2.5840
  607TIP3   OH2 1784   3.212   1.397   1.066 -0.3080 -0.0863  0.4835
  607TIP3    H1 1785   3.144   1.360   1.122  0.1751 -1.4108  0.2222
  607TIP3    H2 1786   3.231   1.329   1.001  2.7045 -0.6265  1.7663
  608TIP3   OH2 1787   1.104   5.458   4.483  0.0566 -0.2110 -0.3513
  608TIP3    H1 1788   1.149   5.389   4.531 -1.0543 -0.1666  0.7967
  608TIP3    H2 1789   1.062   5.413   4.410 -1.8984 -1.0779  1.2070
  609TIP3   OH2 1790   2.299   6.327   0.359 -0.4350 -0.0908 -0.0290
  609TIP3    H1 1791   2.288   6.276   0.439 -1.3864 -2.0291 -1.3274
  609TIP3    H2 1792   2.217   6.375   0.349 -0.4509 -0.1178 -0.0258
  610TIP3   OH2 1793   4.392   1.963   1.258  0.0168 -0.1551 -0.0289
  610TIP3    H1 1794   4.304   1.990   1.233 -0.6497 -1.5148  0.7053
  610TIP3    H2 1795   4.450   2.024   1.214 -1.3461  2.0218  1.0205
  611TIP3   OH2 1796   2.783   5.825   2.703  0.1606  0.4835 -0.3147
  611TIP3    H1 1797   2.854   5.795   2.758 -0.3241 -0.5121 -0.2152
  611TIP3    H2 1798   2.751   5.904   2.747 -0.1100 -0.1946  0.7516
  612TIP3   OH2 1799   2.546   3.160   3.045 -0.4329 -0.2974  0.1026
  612TIP3    H1 1800   2.631   3.169   3.002  0.0532  1.2339  1.2649
  612TIP3    H2 1801   2.565   3.174   3.138 -1.9137 -0.1537  0.4127
  613TIP3   OH2 1802   0.370   5.671   0.837 -0.0989  0.7196 -0.2169
  613TIP3    H1 1803   0.285   5.715   0.840 -0.4680 -0.0133  0.9052
  613TIP3    H2 1804   0.347   5.578   0.831  0.5717  0.3716  2.0303
  614TIP3   OH2 1805   3.942   3.398   1.161  0.4839  0.6350  0.2913
  614TIP3    H1 1806   4.029   3.414   1.123  0.2053  0.9809 -0.2082
  614TIP3    H2 1807   3.887   3.467   1.125 -0.0332  0.3435  0.5134
  615TIP3   OH2 1808   2.793   2.717   0.414  0.4479  0.0311 -0.2096
  615TIP3    H1 1809   2.699   2.716   0.396  0.2097 -0.9292  0.9483
  615TIP3    H2 1810   2.833   2.689   0.332 -0.3883 -1.1265 -0.2573
  616TIP3   OH2 1811   6.076   0.628   0.252 -0.4827  0.0514  0.1347
  616TIP3    H1 1812   6.035   0.543   0.237 -0.0837 -0.3058  1.0123
  616TIP3    H2 1813   6.170   0.610   0.254 -0.4518  0.2484  1.8011
  617TIP3   OH2 1814   6.722   2.328   1.436 -0.1771  0.5720  0.6988
  617TIP3    H1 1815   6.770   2.395   1.387 -0.3717 -0.8501 -1.6163
  617TIP3    H2 1816   6.791   2.274   1.475  0.0653  0.4054  0.0650
  618TIP3   OH2 1817   3.157   3.807   4.194 -0.1315  0.2466  0.4874
  618TIP3    H1 1818   3.103   3.817   4.116 -1.3643 -0.0477  1.2685
  618TIP3    H2 1819   3.243   3.838   4.168 -0.9057  1.6388 -0.5321
  619TIP3   OH2 1820   6.583   2.581   3.801 -0.4824  0.7467 -0.5308
  619TIP3    H1 1821   6.592   2.502   3.854  0.0638  1.3560  0.3243
  619TIP3    H2 1822   6.548   2.551   3.717 -0.7857 -0.3209 -0.0325
  620TIP3   OH2 1823   2.860   6.578   3.442 -0.1540  0.3773 -0.1854
  620TIP3    H1 1824   2.796   6.590   3.512 -1.8963  2.4622 -2.0018
  620TIP3    H2 1825   2.809   6.586   3.361  2.5105  3.6781 -1.7727
  621TIP3   OH2 1826   1.324   3.889   1.567  0.1078 -0.0101  0.2622
  621TIP3    H1 1827   1.231   3.871   1.551  0.2095 -0.5994  0.3170
  621TIP3    H2 1828   1.363   3.803   1.582  1.1940 -0.0916 -2.4533
  622TIP3   OH2 1829   6.819   1.182   0.891 -0.5950  0.4792 -0.3458
  622TIP3    H1 1830   6.766   1.234   0.830 -1.4547  1.0882  0.8818
  622TIP3    H2 1831   6.755   1.130   0.939 -0.0175  0.7277  0.7076
  623TIP3   OH2 1832   0.339   1.412   2.724 -0.2041 -0.3041 -0.1903
  623TIP3    H1 1833   0.354   1.342   2.660  0.6151 -0.9327  0.6697
  623TIP3    H2 1834   0.425   1.453   2.734 -0.7728  1.1988 -1.0765
  624TIP3   OH2 1835   2.347   6.247   5.748 -0.1274 -0.5467  0.4620
  624TIP3    H1 1836   2.298   6.245   5.665 -1.5898  1.1661  1.2163
  624TIP3    H2 1837   2.438   6.233   5.722 -0.7999 -2.4504 -1.1535
  625TIP3   OH2 1838   5.996   4.472   1.776 -0.3115 -0.0616 -0.0123
  625TIP3    H1 1839   6.039   4.556   1.760  1.4406 -0.7151  1.0084
  625TIP3    H2 1840   6.018   4.420   1.699  0.7111 -0.3586  0.4568
  626TIP3   OH2 1841   2.758   2.263   0.871  0.0322 -0.5303  0.3677
  626TIP3    H1 1842   2.765   2.351   0.835 -1.5844 -0.7359 -0.5436
  626TIP3    H2 1843   2.755   2.276   0.966 -1.2019  0.5171  0.2171
  627TIP3   OH2 1844   4.853   0.258   3.183  0.2865 -0.3626 -0.3229
  627TIP3    H1 1845   4.800   0.284   3.258 -0.8185 -0.5343 -1.0292
  627TIP3    H2 1846   4.942   0.252   3.218  0.1504  1.5970  0.5019
  628TIP3   OH2 1847   4.757   4.392   5.601  0.3982  0.2900  0.7954
  628TIP3    H1 1848   4.689   4.425   5.543  2.1139 -0.3010 -1.7212
  628TIP3    H2 1849   4.716   4.320   5.649 -0.6943 -0.2105 -0.8283
  629TIP3   OH2 1850   4.194   3.372   4.104 -0.1658 -0.0310 -0.1153
  629TIP3    H1 1851   4.165   3.459   4.130 -0.0740 -0.1549  0.4347
  629TIP3    H2 1852   4.289   3.381   4.092 -0.2203  0.0453 -0.4943
  630TIP3   OH2 1853   7.182   2.323   3.312 -0.1799  0.3586  0.1918
  630TIP3    H1 1854   7.090   2.295   3.310  0.0781 -0.6032  0.9817
  630TIP3    H2 1855   7.232   2.241   3.311  0.6390  0.8313  1.1777
  631TIP3   OH2 1856   2.985   1.321   1.230 -0.2023 -0.1918  0.2110
  631TIP3    H1 1857   2.972   1.235   1.189  1.5580  0.9433 -3.0890
  631TIP3    H2 1858   2.897   1.356   1.242 -0.8985 -1.9309  0.4437
  632TIP3   OH2 1859   6.798   3.415   3.930 -0.1117 -0.3622  0.1670
  632TIP3    H1 1860   6.811   3.494   3.878 -1.6751  0.0266  0.2942
  632TIP3    H2 1861   6.857   3.350   3.892 -0.6223  0.1451 -1.5657
  633TIP3   OH2 1862   3.561   2.546   0.667 -0.2922  0.7319 -0.2288
  633TIP3    H1 1863   3.567   2.472   0.607  0.9351  2.0513 -1.8087
  633TIP3    H2 1864   3.578   2.623   0.613  1.5947  1.9444  1.9170
  634TIP3   OH2 1865   3.947   0.586   2.372 -0.0646 -0.0257  0.2906
  634TIP3    H1 1866   3.916   0.675   2.359 -0.1711  0.2146  1.9156
  634TIP3    H2 1867   3.868   0.534   2.388  0.0124 -0.3742 -0.4301
  635TIP3   OH2 1868   7.093   2.984   0.850  0.2068  0.4625  0.3687
  635TIP3    H1 1869   7.087   2.889   0.836  1.8421 -0.0352  2.4707
  635TIP3    H2 1870   7.164   3.012   0.794  0.3150  0.2622  0.4031
  636TIP3   OH2 1871   7.192   0.639   2.645  0.3041 -0.3800 -0.0075
  636TIP3    H1 1872   7.200   0.576   2.716 -0.0571 -0.4465 -0.0266
  636TIP3    H2 1873   7.182   0.724   2.689  0.9797 -0.3078  0.0177
  637TIP3   OH2 1874   2.391   3.161   1.191  0.2251 -0.1836  1.1256
  637TIP3    H1 1875   2.297   3.174   1.204 -0.6834 -2.7579 -1.5639
  637TIP3    H2 1876   2.425   3.142   1.278 -2.2560 -1.6342  1.8748
  638TIP3   OH2 1877   1.097   1.728   4.319 -0.6261  0.2735 -0.0328
  638TIP3    H1 1878   1.149   1.808   4.325 -0.8352  0.3738  0.4920
  638TIP3    H2 1879   1.160   1.657   4.332 -0.6376  0.3994  0.7675
  639TIP3   OH2 1880   5.651   6.418   0.374  0.2735  0.1918  0.2967
  639TIP3    H1 1881   5.659   6.327   0.346  1.4498  0.5296 -0.5280
  639TIP3    H2 1882   5.672   6.470   0.297 -2.1136  1.2307  0.2344
  640TIP3   OH2 1883   5.228   0.232   5.798 -0.4704  0.1717  0.0963
  640TIP3    H1 1884   5.175   0.151   5.803 -1.1780  0.6710  1.0862
  640TIP3    H2 1885   5.315   0.202   5.774 -0.9271 -0.8037 -0.4109
  641TIP3   OH2 1886   6.636   4.437   2.907 -0.1809 -0.4074  0.4831
  641TIP3    H1 1887   6.712   4.449   2.849 -0.3898 -0.8017  0.1221
  641TIP3    H2 1888   6.674   4.425   2.994  0.0760  3.1101  0.9880
  642TIP3   OH2 1889   4.051   6.490   0.700  0.0183 -0.7088 -0.2839
  642TIP3    H1 1890   4.081   6.571   0.741  0.5766  0.1749 -2.3228
  642TIP3    H2 1891   4.126   6.431   0.705 -0.7373 -1.5789  2.2047
  643TIP3   OH2 1892   4.030   2.440   4.919  0.1551 -0.3577 -0.1114
  643TIP3    H1 1893   4.081   2.359   4.925 -0.3658 -0.6602  0.3007
  643TIP3    H2 1894   4.095   2.509   4.908  0.6771 -0.7104  0.6681
  644TIP3   OH2 1895   6.651   0.128   1.664  0.1671  1.1473  0.7160
  644TIP3    H1 1896   6.664   0.209   1.615  0.4547  0.9888  0.5246
  644TIP3    H2 1897   6.571   0.090   1.628  0.7315  0.7034 -0.0900
  645TIP3   OH2 1898   4.493   1.656   3.020 -0.6159  0.4436 -0.3571
  645TIP3    H1 1899   4.421   1.709   2.984 -0.7634 -0.4187 -1.4143
  645TIP3    H2 1900   4.561   1.661   2.953  0.1285  0.8518  0.4172
  646TIP3   OH2 1901   0.984   3.236   0.203 -0.6124  0.5963 -0.0363
  646TIP3    H1 1902   0.920   3.283   0.256  0.5860  1.2126  0.8983
  646TIP3    H2 1903   1.062   3.291   0.206  0.0608 -0.2845 -0.9320
  647TIP3   OH2 1904   6.985   4.614   4.199  0.1737 -0.8053 -0.4374
  647TIP3    H1 1905   6.933   4.663   4.263  0.8736  0.3547 -0.7292
  647TIP3    H2 1906   6.975   4.662   4.117  1.4039 -0.7353 -0.5757
  648TIP3   OH2 1907   3.262   5.376   4.861 -0.3168  0.3620  0.9905
  648TIP3    H1 1908   3.341   5.362   4.913  0.4197 -1.5423 -0.5369
  648TIP3    H2 1909   3.293   5.395   4.773 -1.4865 -1.3885  0.1312
  649TIP3   OH2 1910   6.650   5.693   2.890 -0.3875  0.1906 -0.1276
  649TIP3    H1 1911   6.681   5.619   2.839  2.0044  0.4687  0.8169
  649TIP3    H2 1912   6.701   5.768   2.860 -0.5174  0.8092  1.1147
  650TIP3   OH2 1913   3.333   1.030   4.854 -0.2225 -0.3404 -0.3131
  650TIP3    H1 1914   3.243   1.018   4.826  0.2251 -0.1312 -1.9478
  650TIP3    H2 1915   3.348   0.960   4.918 -1.2138 -1.0564 -0.8454
  651TIP3   OH2 1916   2.279   0.345   3.208  0.2069 -0.0480 -0.3742
  651TIP3    H1 1917   2.341   0.410   3.176  0.0363 -0.2780 -1.2036
  651TIP3    H2 1918   2.335   0.275   3.244  0.3954  0.3799  0.1742
  652TIP3   OH2 1919   2.344   5.811   1.475 -0.1878 -0.4499 -0.0365
  652TIP3    H1 1920   2.287   5.735   1.487 -0.0962 -0.4578  0.3567
  652TIP3    H2 1921   2.285   5.886   1.481 -0.5290 -0.5251 -1.9279
  653TIP3   OH2 1922   7.212   3.584   2.846  0.5776  0.4639  0.2278
  653TIP3    H1 1923   7.147   3.591   2.916 -0.2272 -0.7731 -0.3439
  653TIP3    H2 1924   7.225   3.489   2.835  0.7641  0.6281 -1.2030
  654TIP3   OH2 1925   3.340   0.149   5.603  0.0330  0.3359 -0.2755
  654TIP3    H1 1926   3.282   0.075   5.622  0.0031  0.3283 -0.3985
  654TIP3    H2 1927   3.404   0.114   5.541  1.9919 -0.5181  2.0403
  655TIP3   OH2 1928   2.368   5.127   0.476 -0.1727 -0.7770  0.1065
  655TIP3    H1 1929   2.463   5.125   0.489 -0.3993  0.8978  2.6213
  655TIP3    H2 1930   2.349   5.049   0.424  2.6100 -0.9085 -0.8561
  656TIP3   OH2 1931   2.344   0.982   1.528 -0.3188  0.4735  0.3271
  656TIP3    H1 1932   2.362   1.066   1.571  2.1888  0.2107 -0.0772
  656TIP3    H2 1933   2.346   0.918   1.599 -0.2222  0.5116  0.3588
  657TIP3   OH2 1934   4.984   1.031   4.416 -0.3378  0.2775  0.4664
  657TIP3    H1 1935   4.984   0.989   4.329 -1.8853 -0.9517  0.9988
  657TIP3    H2 1936   4.985   0.958   4.477  0.6184  1.1346  1.5067
  658TIP3   OH2 1937   4.989   3.226   5.823 -0.3488 -0.4514 -0.5956
  658TIP3    H1 1938   4.947   3.305   5.856 -0.5913 -0.5541 -0.6546
  658TIP3    H2 1939   4.941   3.205   5.743  0.8289  0.3187 -1.5409
  659TIP3   OH2 1940   6.314   2.100   4.749 -0.4839 -0.3741  0.2299
  659TIP3    H1 1941   6.241   2.107   4.687  0.8324  1.3983 -1.2325
  659TIP3    H2 1942   6.324   2.189   4.784  0.1185 -0.9067  1.4590
  660TIP3   OH2 1943   4.150   2.499   4.607 -1.0155  0.1827 -0.2960
  660TIP3    H1 1944   4.090   2.425   4.596 -2.3583  1.4680 -1.9762
  660TIP3    H2 1945   4.175   2.523   4.518  3.5836 -1.4477  0.2924
  661TIP3   OH2 1946   6.091   6.332   1.593  0.1609  0.1603 -0.0590
  661TIP3    H1 1947   6.117   6.247   1.627 -0.2386 -0.1249 -0.4590
  661TIP3    H2 1948   6.051   6.313   1.508  0.4913  0.7877 -0.3671
  662TIP3   OH2 1949   1.473   1.238   5.413 -0.0018  0.0586 -0.7231
  662TIP3    H1 1950   1.540   1.196   5.360  0.6309  2.3037 -1.8169
  662TIP3    H2 1951   1.516   1.260   5.496 -0.4575 -1.7222  0.0328
  663TIP3   OH2 1952   1.065   4.381   3.275 -0.7772 -0.1038  0.3045
  663TIP3    H1 1953   1.082   4.440   3.201 -2.3211  0.1893  0.1377
  663TIP3    H2 1954   1.022   4.437   3.340  0.5607 -0.3704  1.4319
  664TIP3   OH2 1955   4.879   2.934   1.761 -0.3051  0.5256 -0.2851
  664TIP3    H1 1956   4.957   2.960   1.811 -0.3825  0.2926 -0.0392
  664TIP3    H2 1957   4.805   2.961   1.816 -0.3842 -1.3203  0.5697
  665TIP3   OH2 1958   6.522   6.451   1.241  0.3732 -0.7527 -0.4761
  665TIP3    H1 1959   6.448   6.390   1.235 -1.0534  0.8980 -0.3929
  665TIP3    H2 1960   6.507   6.513   1.169 -0.9273  2.2875  2.1846
  666TIP3   OH2 1961   5.945   0.870   2.900  0.0976  0.4556 -0.7878
  666TIP3    H1 1962   5.901   0.884   2.815  0.1428 -0.9692 -1.0794
  666TIP3    H2 1963   5.880   0.823   2.952  0.7202 -0.2755 -0.6676
  667TIP3   OH2 1964   6.761   0.637   0.113  0.1848 -0.5992  0.0529
  667TIP3    H1 1965   6.821   0.644   0.187  0.7507 -1.2300 -0.3352
  667TIP3    H2 1966   6.753   0.726   0.080  0.5243 -0.4375  0.4085
  668TIP3   OH2 1967   3.836   0.395   3.007 -0.2837 -0.3989 -0.0482
  668TIP3    H1 1968   3.910   0.446   3.040  0.4630  1.2345 -3.7251
  668TIP3    H2 1969   3.758   0.440   3.042  0.3969 -0.1542  1.2165
  669TIP3   OH2 1970   6.472   3.785   4.363 -0.4711 -0.1010  0.1452
  669TIP3    H1 1971   6.520   3.829   4.432 -1.1144  1.5594 -0.4103
  669TIP3    H2 1972   6.385   3.770   4.400 -0.2457 -0.9591  0.3426
  670TIP3   OH2 1973   2.687   2.602   5.752 -0.2487 -0.4704 -0.1852
  670TIP3    H1 1974   2.659   2.523   5.706 -1.3098 -1.5158  2.0684
  670TIP3    H2 1975   2.775   2.618   5.721  0.9123 -3.9311  0.8532
  671TIP3   OH2 1976   0.104   3.366   5.633 -0.1306  0.0902 -0.2808
  671TIP3    H1 1977   0.087   3.302   5.702 -1.9524  2.0016  1.1868
  671TIP3    H2 1978   0.136   3.443   5.679  0.0827  0.9222 -1.7611
  672TIP3   OH2 1979   3.864   5.587   4.343 -0.3709 -0.0433  0.0520
  672TIP3    H1 1980   3.790   5.648   4.335 -0.5571 -0.4417 -1.7421
  672TIP3    H2 1981   3.940   5.638   4.318 -0.6219 -0.6610 -2.1913
  673TIP3   OH2 1982   4.304   4.367   3.035 -0.4844  0.2564  0.0491
  673TIP3    H1 1983   4.399   4.362   3.027 -0.5194 -0.2490 -0.0693
  673TIP3    H2 1984   4.280   4.292   3.089 -0.6883  1.1658  1.2661
  674TIP3   OH2 1985   7.048   5.035   0.122 -0.1798  0.0967 -0.8062
  674TIP3    H1 1986   7.095   5.118   0.117 -1.1240  0.6274 -1.2583
  674TIP3    H2 1987   7.043   5.016   0.216 -0.1831  0.6944 -0.6806
  675TIP3   OH2 1988   4.779   3.001   5.353  0.4981 -0.3502  1.2340
  675TIP3    H1 1989   4.834   3.079   5.350  0.3076 -0.2319 -0.0733
  675TIP3    H2 1990   4.837   2.932   5.383  0.2883  0.5521  3.9079
  676TIP3   OH2 1991   5.272   1.744   4.071 -0.5157  0.2889  0.3811
  676TIP3    H1 1992   5.331   1.810   4.106 -0.0368 -0.5482  1.1786
  676TIP3    H2 1993   5.186   1.767   4.107 -0.1949 -0.0271  1.3564
  677TIP3   OH2 1994   2.639   2.847   4.467  0.1423  0.6075 -0.2830
  677TIP3    H1 1995   2.609   2.874   4.553 -0.3968 -4.5167  1.4612
  677TIP3    H2 1996   2.564   2.865   4.409 -1.3587 -0.1475  1.3385
  678TIP3   OH2 1997   1.028   6.393   4.993 -0.1447  0.1150 -0.7201
  678TIP3    H1 1998   1.106   6.343   4.967  0.5327  0.7354  0.0384
  678TIP3    H2 1999   1.023   6.380   5.088 -0.2794  1.0267 -0.5970
  679TIP3   OH2 2000   2.806   5.173   2.256 -0.1117 -0.7301  0.5047
  679TIP3    H1 2001   2.827   5.230   2.329 -1.2303 -3.3221  3.0517
  679TIP3    H2 2002   2.891   5.139   2.227  0.4223  0.9997 -0.1231
  680TIP3   OH2 2003   3.970   5.198   4.668  0.0246  0.3065  0.4865
  680TIP3    H1 2004   4.018   5.171   4.590 -1.1822  1.3279 -0.6724
  680TIP3    H2 2005   3.999   5.288   4.684  1.5786 -0.4500  2.3380
  681TIP3   OH2 2006   4.894   2.683   5.212  0.2404 -0.3237 -0.6903
  681TIP3    H1 2007   4.846   2.627   5.152 -0.2059  0.6084 -1.2318
  681TIP3    H2 2008   4.844   2.680   5.293  0.2107 -0.6922 -0.7212
  682TIP3   OH2 2009   2.665   6.024   0.342  0.3998  0.9258  0.4917
  682TIP3    H1 2010   2.702   6.020   0.253  0.0921 -1.7673  0.3924
  682TIP3    H2 2011   2.726   5.974   0.396 -1.7413 -1.6996  0.7606
  683TIP3   OH2 2012   2.864   5.074   3.707  0.2902 -0.3076 -0.8758
  683TIP3    H1 2013   2.807   4.997   3.708  1.0752 -0.8978 -0.6578
  683TIP3    H2 2014   2.821   5.136   3.766 -0.5314 -0.4388 -1.3254
  684TIP3   OH2 2015   1.145   0.993   1.831  0.2695 -0.4928  0.0614
  684TIP3    H1 2016   1.160   0.965   1.922  0.7521  0.0342  0.1538
  684TIP3    H2 2017   1.149   1.089   1.835 -1.5492 -0.3695 -0.2038
  685TIP3   OH2 2018   5.641   6.561   3.189  0.4069  0.0006 -0.1266
  685TIP3    H1 2019   5.628   6.624   3.119  1.4159  1.6578  1.1132
  685TIP3    H2 2020   5.680   6.485   3.145 -1.8690 -0.3129 -1.8276
  686TIP3   OH2 2021   4.149   3.538   2.570  0.1919 -0.1918 -0.2187
  686TIP3    H1 2022   4.235   3.568   2.540 -0.2406  1.6446  0.2039
  686TIP3    H2 2023   4.117   3.610   2.625 -1.2078 -1.2485  0.4065
  687TIP3   OH2 2024   5.141   5.618   3.661  0.1975  0.5113  0.5006
  687TIP3    H1 2025   5.175   5.673   3.591 -1.6645  1.5591  0.3431
  687TIP3    H2 2026   5.065   5.575   3.622  0.2697 -0.3760  1.3218
  688TIP3   OH2 2027   1.143   0.938   0.317 -1.0590  0.3149  0.1746
  688TIP3    H1 2028   1.124   1.012   0.258 -0.4861  0.8858  0.6879
  688TIP3    H2 2029   1.158   0.979   0.402 -2.5799 -0.5559  0.9071
  689TIP3   OH2 2030   6.496   1.020   3.914  0.3473 -0.0823  0.4159
  689TIP3    H1 2031   6.555   0.949   3.937  0.3570 -0.5075 -0.8467
  689TIP3    H2 2032   6.548   1.077   3.857  0.3001  0.8832  1.3060
  690TIP3   OH2 2033   1.628   5.030   2.919 -0.1869 -0.1336 -0.4172
  690TIP3    H1 2034   1.550   4.988   2.883  0.1304  0.0645 -1.3702
  690TIP3    H2 2035   1.680   5.053   2.842  0.1581  0.9959  0.1316
  691TIP3   OH2 2036   4.829   6.282   3.626 -0.8433 -0.0610 -0.5652
  691TIP3    H1 2037   4.769   6.235   3.684  1.0808 -0.0075  1.6684
  691TIP3    H2 2038   4.871   6.346   3.683  1.1528  0.0417 -2.0359
  692TIP3   OH2 2039   3.251   1.431   2.605  0.1218 -0.0547  0.0411
  692TIP3    H1 2040   3.186   1.490   2.568 -1.1504 -0.9770  0.6865
  692TIP3    H2 2041   3.321   1.427   2.540 -0.9360  0.2012 -1.1472
  693TIP3   OH2 2042   4.000   3.120   0.575 -0.4130  0.5754 -0.9724
  693TIP3    H1 2043   4.017   3.214   0.588  1.6090  0.3627 -1.7313
  693TIP3    H2 2044   4.022   3.105   0.483 -3.8862 -0.0589 -1.8293
  694TIP3   OH2 2045   0.700   4.616   4.623 -0.6428 -0.2945  0.1809
  694TIP3    H1 2046   0.682   4.710   4.617 -1.1238 -0.3796  0.3101
  694TIP3    H2 2047   0.644   4.585   4.694  0.0856 -0.5387  0.6630
  695TIP3   OH2 2048   4.616   2.366   0.622  0.0978 -0.1864 -0.3059
  695TIP3    H1 2049   4.695   2.386   0.573  1.4190 -1.6048  1.1618
  695TIP3    H2 2050   4.646   2.324   0.702 -2.1506 -1.0761  0.1601
  696TIP3   OH2 2051   4.326   4.796   2.780 -0.0431 -0.2152 -0.0498
  696TIP3    H1 2052   4.309   4.707   2.810 -2.4841  0.7103  1.6222
  696TIP3    H2 2053   4.258   4.813   2.715 -1.6098  1.3698  1.8829
  697TIP3   OH2 2054   4.564   1.678   3.633 -0.3152  0.1941  0.5779
  697TIP3    H1 2055   4.575   1.611   3.700 -0.1937  0.2580  0.6238
  697TIP3    H2 2056   4.572   1.632   3.550 -1.2094 -0.0109  0.5962
  698TIP3   OH2 2057   0.141   1.626   2.424  0.0603 -0.0035  0.0417
  698TIP3    H1 2058   0.176   1.635   2.513  1.0362  1.8223 -0.4669
  698TIP3    H2 2059   0.179   1.544   2.391 -2.8936 -2.5059  2.3361
  699TIP3   OH2 2060   6.459   4.235   4.736 -0.2379  0.3796  0.5748
  699TIP3    H1 2061   6.475   4.201   4.648  0.5455  0.2930  0.7427
  699TIP3    H2 2062   6.364   4.243   4.742 -0.3418 -0.3508 -0.0030
  700TIP3   OH2 2063   6.102   2.412   0.592 -0.3975 -0.3204  0.2208
  700TIP3    H1 2064   6.085   2.487   0.649  0.8445 -0.0332  0.2535
  700TIP3    H2 2065   6.118   2.450   0.506 -0.2317 -0.5830  0.1331
  701TIP3   OH2 2066   2.712   4.774   0.888  0.0330 -0.2409  0.3199
  701TIP3    H1 2067   2.636   4.817   0.926 -0.2967  0.8787 -1.4865
  701TIP3    H2 2068   2.777   4.774   0.957 -1.1677 -0.0451  1.4891
  702TIP3   OH2 2069   6.928   2.662   2.908  0.5571 -0.1462  0.2021
  702TIP3    H1 2070   6.873   2.694   2.837  0.8316  2.3535  1.0053
  702TIP3    H2 2071   6.876   2.676   2.987 -0.1013 -3.6893  0.5659
  703TIP3   OH2 2072   4.667   1.316   3.553  0.5109 -0.7124  0.0971
  703TIP3    H1 2073   4.616   1.267   3.617  0.0384 -0.9571 -0.4513
  703TIP3    H2 2074   4.658   1.265   3.472 -0.7493  0.7375 -0.7275
  704TIP3   OH2 2075   3.641   6.527   0.544 -0.6797 -0.3986 -0.4374
  704TIP3    H1 2076   3.686   6.511   0.627  0.0578  1.2089 -0.4830
  704TIP3    H2 2077   3.711   6.555   0.484 -1.7054  2.6929 -0.3849
  705TIP3   OH2 2078   5.721   6.167   3.402 -0.4945 -0.0689 -0.2066
  705TIP3    H1 2079   5.647   6.152   3.460 -0.4803  0.2463 -0.1032
  705TIP3    H2 2080   5.700   6.250   3.358 -0.8815 -0.6960 -1.2343
  706TIP3   OH2 2081   3.608   4.865   3.522 -1.1055  0.2387 -0.2730
  706TIP3    H1 2082   3.551   4.812   3.578  0.6507 -0.9542  0.4708
  706TIP3    H2 2083   3.649   4.928   3.581  0.8446 -1.0990 -0.1133
  707TIP3   OH2 2084   5.784   1.343   5.705  0.0547 -0.1232 -0.0149
  707TIP3    H1 2085   5.821   1.391   5.779 -1.4112 -0.4856  0.9789
  707TIP3    H2 2086   5.759   1.258   5.741 -0.9176 -0.2184 -0.8560
  708TIP3   OH2 2087   0.062   0.482   2.888  0.2819  0.2238 -0.0317
  708TIP3    H1 2088   0.147   0.439   2.881 -1.0243 -2.2952 -2.1184
  708TIP3    H2 2089   0.007   0.419   2.934 -0.6201  1.6793  0.9935
  709TIP3   OH2 2090   5.788   0.748   3.102  0.0546 -0.0778 -0.0678
  709TIP3    H1 2091   5.829   0.815   3.157 -1.0514  1.7909 -1.3753
  709TIP3    H2 2092   5.699   0.782   3.085 -0.8538 -2.3141 -0.1075
  710TIP3   OH2 2093   1.060   2.290   5.452 -0.6851  0.1812  0.0944
  710TIP3    H1 2094   1.108   2.208   5.444 -0.9040  0.0572  0.0681
  710TIP3    H2 2095   1.031   2.310   5.363 -1.0809  0.0187  0.1882
  711TIP3   OH2 2096   2.124   5.254   3.740  0.4682 -0.0727  0.4387
  711TIP3    H1 2097   2.091   5.183   3.796  1.4947  0.2747  1.5350
  711TIP3    H2 2098   2.126   5.216   3.652  1.1773 -1.4847  1.0234
  712TIP3   OH2 2099   6.617   4.896   0.121  0.5107 -0.2037 -0.0615
  712TIP3    H1 2100   6.607   4.802   0.110 -1.6992  0.1523 -1.8847
  712TIP3    H2 2101   6.605   4.911   0.215 -0.6380 -1.6138  0.0424
  713TIP3   OH2 2102   1.579   0.400   2.446  0.6174  0.0297  0.5692
  713TIP3    H1 2103   1.661   0.363   2.414 -0.9669 -3.9533  0.5934
  713TIP3    H2 2104   1.581   0.383   2.541  0.0712  0.5395  0.6759
  714TIP3   OH2 2105   0.067   6.394   3.610  0.9187  0.1055 -0.1807
  714TIP3    H1 2106   0.093   6.474   3.565  1.7030 -0.2106 -0.3107
  714TIP3    H2 2107   0.122   6.392   3.689  1.4437 -0.6733 -0.5571
  715TIP3   OH2 2108   6.098   4.261   5.257  0.0180 -0.0904  0.2609
  715TIP3    H1 2109   6.092   4.214   5.339 -1.5743  1.7498  1.2932
  715TIP3    H2 2110   6.069   4.198   5.191  0.3648 -1.2941  1.2290
  716TIP3   OH2 2111   1.763   6.568   5.516  0.2184  0.1992  0.0887
  716TIP3    H1 2112   1.709   6.613   5.581  1.4224  1.5752  0.1868
  716TIP3    H2 2113   1.771   6.479   5.550  0.8067  0.8682  1.8644
  717TIP3   OH2 2114   4.319   5.546   1.446 -0.6202 -0.3213  0.3518
  717TIP3    H1 2115   4.323   5.470   1.504  0.4868  0.0787  0.8333
  717TIP3    H2 2116   4.363   5.616   1.495  0.8149 -0.0999 -1.1513
  718TIP3   OH2 2117   2.455   1.397   1.337 -0.1825  0.1362  0.1427
  718TIP3    H1 2118   2.362   1.420   1.337  0.1052  1.4376 -0.9074
  718TIP3    H2 2119   2.498   1.469   1.383  0.2619 -0.6904  1.0323
  719TIP3   OH2 2120   6.336   5.159   3.195 -0.3336  0.1381 -0.0551
  719TIP3    H1 2121   6.284   5.186   3.119 -0.5194 -0.6116 -0.1974
  719TIP3    H2 2122   6.370   5.073   3.172  0.1242  0.1751  0.4624
  720TIP3   OH2 2123   6.138   3.205   3.088 -0.4716 -0.0154 -0.3994
  720TIP3    H1 2124   6.145   3.179   3.180 -0.3427  1.7426  0.1135
  720TIP3    H2 2125   6.110   3.125   3.043 -2.4713 -0.4630  1.4493
  721TIP3   OH2 2126   0.629   4.343   2.696 -0.1579  0.5418 -0.1655
  721TIP3    H1 2127   0.579   4.421   2.672 -0.4896  0.0376 -1.1780
  721TIP3    H2 2128   0.564   4.274   2.706  0.3691 -0.5589 -3.2363
  722TIP3   OH2 2129   5.478   4.182   3.932 -0.4144  0.3623 -0.1902
  722TIP3    H1 2130   5.486   4.260   3.878 -0.7588 -0.0200 -0.7971
  722TIP3    H2 2131   5.428   4.120   3.879 -2.0926  0.5058  1.1340
  723TIP3   OH2 2132   4.327   0.828   0.719  0.1835  0.1269  0.4065
  723TIP3    H1 2133   4.357   0.896   0.659  1.0035 -1.1148 -0.6306
  723TIP3    H2 2134   4.300   0.756   0.662 -0.1493 -0.6320  1.4970
  724TIP3   OH2 2135   4.164   0.530   4.804  0.4884 -0.2622 -0.1079
  724TIP3    H1 2136   4.125   0.456   4.760 -0.0075 -0.6494  0.9416
  724TIP3    H2 2137   4.254   0.503   4.822  0.7037 -0.0881 -0.8805
  725TIP3   OH2 2138   1.205   6.465   3.725  0.5455 -0.6164  0.8908
  725TIP3    H1 2139   1.238   6.389   3.773  0.3978 -1.9261 -0.9590
  725TIP3    H2 2140   1.279   6.494   3.672 -0.3616 -1.8060 -1.1422
  726TIP3   OH2 2141   6.541   5.014   3.900 -0.1843 -0.5537 -1.1295
  726TIP3    H1 2142   6.522   4.946   3.965 -2.0335  1.1045  0.2032
  726TIP3    H2 2143   6.613   4.979   3.849  1.3123 -2.0368  1.7401
  727TIP3   OH2 2144   4.429   5.386   2.697  0.5348 -0.1850 -0.2665
  727TIP3    H1 2145   4.500   5.449   2.708 -1.0203  1.9895 -1.7188
  727TIP3    H2 2146   4.443   5.349   2.610  0.4156 -0.4332 -0.1811
  728TIP3   OH2 2147   2.359   0.197   1.573  0.1588 -0.0761 -0.0301
  728TIP3    H1 2148   2.387   0.289   1.576  0.9952 -0.1520 -2.8090
  728TIP3    H2 2149   2.305   0.191   1.494  0.3660 -2.0159 -0.0763
  729TIP3   OH2 2150   5.183   0.523   1.047  0.3564  0.1289  0.2183
  729TIP3    H1 2151   5.243   0.558   0.981  0.8124  1.0379  1.0872
  729TIP3    H2 2152   5.212   0.433   1.060  0.0231 -0.1870 -1.0737
  730TIP3   OH2 2153   1.333   0.164   4.261 -0.2069 -0.3673 -0.6578
  730TIP3    H1 2154   1.310   0.237   4.204  0.2144  0.4779  0.2100
  730TIP3    H2 2155   1.250   0.126   4.287 -0.4214 -0.3937 -1.3605
  731TIP3   OH2 2156   3.440   6.745   2.370 -0.4195  0.4112 -0.1226
  731TIP3    H1 2157   3.521   6.783   2.336 -0.2334  0.2153  0.1019
  731TIP3    H2 2158   3.385   6.820   2.391  0.2346  0.5785  1.0381
  732TIP3   OH2 2159   5.910   1.353   0.536  0.1194 -0.1586 -0.2610
  732TIP3    H1 2160   5.961   1.368   0.456  0.0180  2.6149  0.0669
  732TIP3    H2 2161   5.819   1.368   0.510 -0.0648 -0.6326  0.0943
  733TIP3   OH2 2162   0.018   1.055   1.701  0.1598 -0.2694  0.0428
  733TIP3    H1 2163  -0.039   1.006   1.642 -0.5284 -0.7789  1.1047
  733TIP3    H2 2164   0.100   1.005   1.704 -0.5431 -1.3989  1.1307
  734TIP3   OH2 2165   0.391   0.561   3.022  0.0119  0.7642 -0.0160
  734TIP3    H1 2166   0.467   0.617   3.033  0.5747  0.1068 -0.4599
  734TIP3    H2 2167   0.427   0.473   3.013 -0.9171  0.1470  1.8669
  735TIP3   OH2 2168   7.042   2.900   5.290  0.0585  0.1311 -0.8366
  735TIP3    H1 2169   7.033   2.824   5.233 -2.5200  0.4381 -0.9683
  735TIP3    H2 2170   7.136   2.909   5.304  0.5700 -1.7064 -2.6434
  736TIP3   OH2 2171   6.595   5.670   1.467  0.1368 -0.3934 -0.0485
  736TIP3    H1 2172   6.577   5.728   1.393 -0.8865 -1.0110 -0.3031
  736TIP3    H2 2173   6.642   5.724   1.530 -1.4959  0.9469  0.0744
  737TIP3   OH2 2174   3.537   0.208   4.084 -0.8558 -0.1821 -0.3815
  737TIP3    H1 2175   3.503   0.118   4.085 -1.2150 -0.0634 -1.4143
  737TIP3    H2 2176   3.631   0.198   4.070 -0.9688 -0.3825 -1.0131
  738TIP3   OH2 2177   5.249   2.626   2.512  0.0970 -0.2604  0.0424
  738TIP3    H1 2178   5.285   2.569   2.444  0.6303 -1.4519  1.2709
  738TIP3    H2 2179   5.281   2.587   2.595 -3.2643 -0.8835  1.1864
  739TIP3   OH2 2180   3.845   5.575   5.204 -0.4259  0.0945  0.0536
  739TIP3    H1 2181   3.824   5.622   5.285  0.3750 -0.1464  0.4085
  739TIP3    H2 2182   3.760   5.548   5.170 -0.7075 -1.4266  1.8113
  740TIP3   OH2 2183   3.737   0.056   1.408 -0.5937  0.6118  0.3267
  740TIP3    H1 2184   3.770   0.142   1.433  0.0636  1.0784 -1.9614
  740TIP3    H2 2185   3.704   0.068   1.319  0.4209 -1.7239 -0.4339
  741TIP3   OH2 2186   4.992   3.699   4.579  1.0057 -0.0637 -0.0374
  741TIP3    H1 2187   5.070   3.674   4.529  0.0599 -0.0158 -1.6174
  741TIP3    H2 2188   4.974   3.789   4.551 -1.4229 -1.0978 -2.2608
  742TIP3   OH2 2189   0.635   1.062   3.702 -1.1760 -0.5654  0.3253
  742TIP3    H1 2190   0.572   1.019   3.759 -1.0725 -0.9818  0.1379
  742TIP3    H2 2191   0.668   1.136   3.752 -2.6645  0.3558 -0.0068
  743TIP3   OH2 2192   5.610   5.193   0.372 -0.3375  0.5602 -0.2588
  743TIP3    H1 2193   5.546   5.161   0.308 -0.3293 -0.8804  0.4075
  743TIP3    H2 2194   5.687   5.138   0.359  0.3035  1.4247 -0.1870
  744TIP3   OH2 2195   6.296   2.146   5.817 -0.3797 -0.0798 -0.0590
  744TIP3    H1 2196   6.277   2.225   5.765  0.9037  0.2782 -0.0291
  744TIP3    H2 2197   6.347   2.178   5.891 -0.7440 -0.8153  0.5197
  745TIP3   OH2 2198   5.423   4.971   0.900  0.1063  0.0038  0.5320
  745TIP3    H1 2199   5.419   5.049   0.844  1.5564  0.5600  1.1613
  745TIP3    H2 2200   5.357   4.988   0.968 -1.3323 -0.4650 -0.6865
  746TIP3   OH2 2201   6.284   6.310   1.290 -0.3346  0.3524 -0.1940
  746TIP3    H1 2202   6.338   6.238   1.321 -2.0158 -1.6679 -1.7150
  746TIP3    H2 2203   6.194   6.278   1.296 -1.0356  1.5016 -2.8139
  747TIP3   OH2 2204   7.035   5.187   0.939  0.1972  0.2012 -0.1607
  747TIP3    H1 2205   7.096   5.262   0.937 -0.5149  0.8456  1.0941
  747TIP3    H2 2206   6.992   5.193   1.024  1.4437 -2.7384  0.7966
  748TIP3   OH2 2207   4.806   4.262   1.411 -0.7062  0.0256  0.2535
  748TIP3    H1 2208   4.799   4.235   1.503  1.4968 -0.3009  0.3757
  748TIP3    H2 2209   4.794   4.356   1.413 -0.2973  0.0755  0.9498
  749TIP3   OH2 2210   4.416   0.326   1.324 -0.0712 -0.3280 -0.4175
  749TIP3    H1 2211   4.435   0.251   1.267 -2.4467 -1.7852  0.5589
  749TIP3    H2 2212   4.492   0.330   1.383  1.0536 -0.6291 -1.7833
  750TIP3   OH2 2213   6.319   4.085   0.913 -0.6087 -0.0592 -0.0107
  750TIP3    H1 2214   6.307   4.068   1.006 -1.4407 -0.0099 -0.1019
  750TIP3    H2 2215   6.308   3.999   0.872  0.4225 -0.2000 -0.0099
  751TIP3   OH2 2216   2.647   4.088   1.675 -0.4958 -0.8117 -0.2491
  751TIP3    H1 2217   2.554   4.075   1.655 -0.8447 -1.2380  1.4974
  751TIP3    H2 2218   2.694   4.036   1.610 -1.3346  1.1271 -2.5887
  752TIP3   OH2 2219   6.299   4.586   2.129 -0.4969 -0.2615 -0.2540
  752TIP3    H1 2220   6.272   4.656   2.188  0.4982  0.2022 -0.3189
  752TIP3    H2 2221   6.338   4.631   2.054  0.1641 -0.8756 -0.2933
  753TIP3   OH2 2222   6.696   5.729   0.513  0.5737 -0.3172  0.4948
  753TIP3    H1 2223   6.669   5.769   0.430 -1.4221  0.0309  1.2403
  753TIP3    H2 2224   6.775   5.777   0.538  0.6262  0.2742 -0.7037
  754TIP3   OH2 2225   5.318   3.979   2.994  0.5914  0.1424  0.3667
  754TIP3    H1 2226   5.346   4.064   3.028 -0.4338 -0.1229  1.9974
  754TIP3    H2 2227   5.368   3.915   3.044  0.2977 -0.2351  0.1806
  755TIP3   OH2 2228   4.405   2.052   3.053 -0.2072  0.1651  0.0478
  755TIP3    H1 2229   4.395   2.142   3.022  0.8068 -0.1984 -1.4312
  755TIP3    H2 2230   4.472   2.057   3.121  0.2138  0.4817 -0.3810
  756TIP3   OH2 2231   6.555   3.415   5.722  0.3570 -0.3786 -0.9544
  756TIP3    H1 2232   6.469   3.451   5.700  0.1696 -0.2969 -0.1224
  756TIP3    H2 2233   6.539   3.321   5.737  0.6824 -0.6548 -2.2301
  757TIP3   OH2 2234   7.121   6.767   1.644 -0.6181  0.5209  0.5824
  757TIP3    H1 2235   7.151   6.854   1.619  1.8556 -0.0183  1.4092
  757TIP3    H2 2236   7.110   6.720   1.562  0.1565  0.9777  0.2111
  758TIP3   OH2 2237   5.591   5.742   3.314  0.5920  0.2752 -0.4741
  758TIP3    H1 2238   5.640   5.823   3.332 -1.7959  1.7611 -0.3121
  758TIP3    H2 2239   5.612   5.685   3.388  1.3027  1.2451  0.0951
  759TIP3   OH2 2240   4.837   4.984   3.522  0.6877 -0.1989  0.3511
  759TIP3    H1 2241   4.828   4.977   3.427  0.5526  0.1823  0.3332
  759TIP3    H2 2242   4.921   5.028   3.535 -0.2209  1.6231  0.3372
  760TIP3   OH2 2243   3.127   3.786   2.236  0.0988 -0.0236  0.3177
  760TIP3    H1 2244   3.100   3.763   2.147  1.4341  0.8109 -0.3412
  760TIP3    H2 2245   3.147   3.879   2.232  0.3263 -0.0091  1.4591
  761TIP3   OH2 2246   6.266   0.703   4.490 -0.8457  0.1814 -0.2240
  761TIP3    H1 2247   6.288   0.649   4.414 -2.5018 -0.9499  0.0356
  761TIP3    H2 2248   6.223   0.642   4.550  0.2794  1.0924  1.5631
  762TIP3   OH2 2249   1.284   6.003   4.399  0.0050  0.2350  0.2808
  762TIP3    H1 2250   1.349   6.011   4.329 -1.3221  1.9870 -0.8543
  762TIP3    H2 2251   1.244   5.917   4.385  0.9883 -0.2005  0.0405
  763TIP3   OH2 2252   1.526   1.105   2.815  0.0000  0.2671 -0.6495
  763TIP3    H1 2253   1.584   1.029   2.810  0.5933  0.6895 -0.2821
  763TIP3    H2 2254   1.500   1.109   2.907 -1.4975 -0.5553 -1.0022
  764TIP3   OH2 2255   0.665   4.127   3.508 -0.2690  0.2974 -0.6985
  764TIP3    H1 2256   0.650   4.184   3.432 -1.6678 -2.8155 -3.0107
  764TIP3    H2 2257   0.578   4.092   3.529  0.6925 -2.3904 -0.7241
  765TIP3   OH2 2258   4.754   5.022   0.728  0.1373  0.5525 -0.1580
  765TIP3    H1 2259   4.796   4.996   0.646  3.8074 -3.7591  2.5917
  765TIP3    H2 2260   4.673   4.971   0.729  1.6103 -2.0046  0.0224
  766TIP3   OH2 2261   3.688   1.851   4.736 -0.3045 -0.3055 -0.1605
  766TIP3    H1 2262   3.635   1.771   4.732 -1.3459  0.3827 -0.6875
  766TIP3    H2 2263   3.682   1.879   4.827 -0.9957 -0.1454 -0.2508
  767TIP3   OH2 2264   3.005   1.860   0.489  0.1202  0.6551  0.1561
  767TIP3    H1 2265   3.026   1.912   0.567 -0.4594 -0.3141  0.9766
  767TIP3    H2 2266   2.998   1.925   0.419 -1.5940  1.8488  1.3555
  768TIP3   OH2 2267   4.133   0.780   4.947 -0.3722  0.0982 -0.1962
  768TIP3    H1 2268   4.041   0.794   4.971 -0.2888 -0.7479  0.6878
  768TIP3    H2 2269   4.131   0.707   4.885 -0.4059  0.9685 -1.2384
  769TIP3   OH2 2270   5.344   2.253   1.308 -0.2354 -0.0875 -0.1677
  769TIP3    H1 2271   5.385   2.283   1.389  0.9668 -0.8011 -0.4893
  769TIP3    H2 2272   5.308   2.167   1.329 -0.6468  0.0822 -0.1727
  770TIP3   OH2 2273   6.284   5.002   5.681 -0.1643  0.7050 -0.2235
  770TIP3    H1 2274   6.225   4.977   5.752  0.3044  1.5881  0.4903
  770TIP3    H2 2275   6.317   5.088   5.706  1.0070  0.4715 -0.8800
  771TIP3   OH2 2276   6.262   2.734   0.052 -0.6716 -0.3995  0.1290
  771TIP3    H1 2277   6.191   2.798   0.050 -0.7310 -0.4852 -0.7228
  771TIP3    H2 2278   6.231   2.660   0.000  0.0765 -0.3868 -0.3648
  772TIP3   OH2 2279   0.890   0.072   0.964  0.3067  0.1160  0.5274
  772TIP3    H1 2280   0.841   0.146   0.926  1.2392  0.1102 -0.7520
  772TIP3    H2 2281   0.979   0.106   0.974  0.6358 -0.6899  0.3662
  773TIP3   OH2 2282   6.169   5.923   1.151  0.1510  0.1060  0.3952
  773TIP3    H1 2283   6.108   5.849   1.151 -2.8819  2.3994  0.0454
  773TIP3    H2 2284   6.217   5.914   1.069 -0.8365 -0.9883 -0.1052
  774TIP3   OH2 2285   2.673   0.834   3.789  0.0986  0.1800 -0.1282
  774TIP3    H1 2286   2.729   0.890   3.843  0.4919 -0.8620  0.5722
  774TIP3    H2 2287   2.616   0.790   3.852 -1.0437  0.7004 -0.7750
  775TIP3   OH2 2288   0.179   5.669   5.539 -0.1152 -0.3246  0.7013
  775TIP3    H1 2289   0.115   5.722   5.587  0.2031  2.2383 -1.4993
  775TIP3    H2 2290   0.252   5.660   5.600 -0.1149  1.9932  1.1428
  776TIP3   OH2 2291   6.385   2.908   0.353  0.0506  0.5595  0.0852
  776TIP3    H1 2292   6.378   2.832   0.411 -0.5436  0.9581  0.5452
  776TIP3    H2 2293   6.299   2.912   0.310  0.9449 -0.6291 -1.9770
  777TIP3   OH2 2294   5.197   5.678   1.197 -0.0860  0.0084  0.0834
  777TIP3    H1 2295   5.274   5.680   1.253  0.8739  1.7269 -1.2323
  777TIP3    H2 2296   5.221   5.619   1.125  0.1306  0.7566 -0.4694
  778TIP3   OH2 2297   2.798   6.615   4.935 -0.4607 -0.3547 -0.3786
  778TIP3    H1 2298   2.792   6.564   5.016  0.0987 -1.6182 -1.1173
  778TIP3    H2 2299   2.886   6.598   4.902 -1.0950 -0.8220 -1.8756
  779TIP3   OH2 2300   6.237   0.842   5.192  0.1309  0.0213  0.0830
  779TIP3    H1 2301   6.243   0.773   5.258  0.1583 -0.8728 -0.8413
  779TIP3    H2 2302   6.272   0.803   5.112 -2.0739  0.2867 -1.0932
  780TIP3   OH2 2303   0.672   3.504   3.920 -0.1207 -0.0831  0.2628
  780TIP3    H1 2304   0.704   3.565   3.854 -0.9614  1.9214  1.6154
  780TIP3    H2 2305   0.747   3.492   3.979  0.6079 -1.8192 -0.9507
  781TIP3   OH2 2306   0.261   2.391   0.311  0.1495  0.3523 -0.0263
  781TIP3    H1 2307   0.302   2.436   0.385  1.0861 -0.2398 -0.1821
  781TIP3    H2 2308   0.268   2.453   0.238  0.1795  0.5063  0.1070
  782TIP3   OH2 2309   5.637   5.591   2.938 -0.5295  0.3032 -0.0395
  782TIP3    H1 2310   5.685   5.612   3.019 -1.0128 -0.0455  0.3479
  782TIP3    H2 2311   5.608   5.501   2.951 -0.8063  0.3251 -0.5076
  783TIP3   OH2 2312   2.026   4.029   1.806  0.6775  0.5236 -0.2581
  783TIP3    H1 2313   2.051   4.121   1.796  1.5584  0.2287 -0.9473
  783TIP3    H2 2314   2.052   3.989   1.723 -0.4166 -0.1961 -0.2654
  784TIP3   OH2 2315   5.556   4.682   1.116 -0.0739 -0.1339  0.7330
  784TIP3    H1 2316   5.609   4.609   1.084 -0.5247 -0.4518  0.7023
  784TIP3    H2 2317   5.603   4.714   1.193 -0.7080 -1.5287  1.7529
  785TIP3   OH2 2318   2.948   0.238   5.468  0.1270  0.0205  0.2533
  785TIP3    H1 2319   2.886   0.178   5.508 -1.1801  0.1892 -1.4402
  785TIP3    H2 2320   2.980   0.291   5.542 -1.7606 -0.0382  1.1797
  786TIP3   OH2 2321   7.107   2.902   2.450  0.0877  0.2321 -0.2232
  786TIP3    H1 2322   7.034   2.864   2.402 -0.9135  0.6185  0.9450
  786TIP3    H2 2323   7.169   2.930   2.382 -1.7688  1.8222 -1.3754
  787TIP3   OH2 2324   3.504   1.585   4.138  0.3448  0.3082  0.0918
  787TIP3    H1 2325   3.506   1.626   4.225  0.2073  2.2103 -0.7511
  787TIP3    H2 2326   3.520   1.657   4.077 -0.4424 -0.8200 -1.5232
  788TIP3   OH2 2327   5.323   6.479   4.528 -0.3013 -0.1728  0.0700
  788TIP3    H1 2328   5.290   6.554   4.477  3.0718 -0.2695 -2.6407
  788TIP3    H2 2329   5.312   6.505   4.619 -3.6240  1.4859 -0.6393
  789TIP3   OH2 2330   4.730   6.321   4.557  0.0741  0.2203 -0.5024
  789TIP3    H1 2331   4.777   6.239   4.568 -1.1777 -0.5628 -0.7584
  789TIP3    H2 2332   4.701   6.343   4.646  1.0427  0.7987 -0.3159
  790TIP3   OH2 2333   0.714   0.151   0.077  0.4449  0.8553 -0.1729
  790TIP3    H1 2334   0.687   0.083   0.015  0.0416  1.9008 -1.1630
  790TIP3    H2 2335   0.747   0.102   0.153 -1.1051 -0.4596 -0.2966
  791TIP3   OH2 2336   5.144   5.492   5.423  0.4315 -0.2909 -0.5618
  791TIP3    H1 2337   5.051   5.513   5.418  0.4260 -0.4520 -1.1061
  791TIP3    H2 2338   5.184   5.542   5.352  0.9005  0.5281  0.2548
  792TIP3   OH2 2339   0.728   3.649   5.217 -0.5426 -0.2633 -0.4235
  792TIP3    H1 2340   0.817   3.679   5.235 -0.9531  1.9036 -1.7310
  792TIP3    H2 2341   0.740   3.561   5.180  0.9139 -0.5749  0.6790
  793TIP3   OH2 2342   0.135   0.479   3.711 -0.0674 -0.0379  0.4874
  793TIP3    H1 2343   0.058   0.494   3.765 -0.2809 -0.3612  0.2771
  793TIP3    H2 2344   0.133   0.385   3.692  1.2939 -0.3869  1.8751
  794TIP3   OH2 2345   5.148   3.533   1.352  0.0775 -0.3913 -0.6715
  794TIP3    H1 2346   5.085   3.603   1.334 -0.2920 -0.0022  1.7927
  794TIP3    H2 2347   5.095   3.461   1.385  0.6911 -0.9931 -0.9754
  795TIP3   OH2 2348   6.879   5.767   1.205 -0.2405 -0.1840 -0.2508
  795TIP3    H1 2349   6.790   5.753   1.174 -1.0431 -0.8038  2.1597
  795TIP3    H2 2350   6.873   5.844   1.262  0.4993 -0.9849  0.9464
  796TIP3   OH2 2351   3.211   5.823   5.478 -0.1824  0.1743  0.1159
  796TIP3    H1 2352   3.295   5.824   5.432 -0.7738 -1.1768 -1.0828
  796TIP3    H2 2353   3.233   5.796   5.567  0.9471  2.5549  0.6318
  797TIP3   OH2 2354   4.094   5.199   1.112 -0.7208  0.0360 -0.1176
  797TIP3    H1 2355   4.084   5.241   1.197 -1.2833 -1.0941  0.4000
  797TIP3    H2 2356   4.045   5.255   1.052 -1.0611  0.3726  0.4598
  798TIP3   OH2 2357   5.569   0.701   5.156 -0.1623 -0.8325 -0.2434
  798TIP3    H1 2358   5.633   0.662   5.216  0.4691  0.3884 -0.0921
  798TIP3    H2 2359   5.487   0.703   5.207  0.6044  1.1287  0.9965
  799TIP3   OH2 2360   1.205   1.977   0.868  0.0798 -0.3124  0.3629
  799TIP3    H1 2361   1.195   1.995   0.775  1.7488  1.0454  0.4013
  799TIP3    H2 2362   1.196   1.882   0.875  0.0460 -0.4479 -1.1985
  800TIP3   OH2 2363   0.535   5.741   4.303  0.2275 -0.2874 -0.1470
  800TIP3    H1 2364   0.489   5.658   4.291 -0.7796  0.0886  0.8896
  800TIP3    H2 2365   0.616   5.731   4.254 -1.2560 -0.7147 -2.6847
  801TIP3   OH2 2366   6.161   1.834   0.676 -0.6046 -0.0112 -0.1404
  801TIP3    H1 2367   6.164   1.815   0.770 -2.5149 -0.5327 -0.1435
  801TIP3    H2 2368   6.138   1.927   0.671 -1.1280 -0.1355 -0.0817
  802TIP3   OH2 2369   6.065   6.470   4.449 -0.3742 -0.3784  0.4694
  802TIP3    H1 2370   6.021   6.505   4.371  1.0280  0.5313  0.0426
  802TIP3    H2 2371   6.038   6.378   4.453 -0.3464 -0.4865 -1.1983
  803TIP3   OH2 2372   0.067   3.778   2.053  0.0089  0.1019 -0.1968
  803TIP3    H1 2373   0.054   3.685   2.070  0.8923 -0.2401 -1.2229
  803TIP3    H2 2374   0.129   3.807   2.120 -2.7988  0.8388  2.3100
  804TIP3   OH2 2375   2.118   2.299   0.047  0.3831 -0.2103 -0.1930
  804TIP3    H1 2376   2.067   2.354  -0.013  0.5956  0.3815  0.1635
  804TIP3    H2 2377   2.058   2.280   0.119 -0.3971 -2.1996 -1.2725
  805TIP3   OH2 2378   5.611   5.327   4.685 -0.3626  0.0485  0.2157
  805TIP3    H1 2379   5.653   5.305   4.602 -0.2894  0.4306  0.1477
  805TIP3    H2 2380   5.609   5.423   4.686 -2.5242  0.0733 -0.4424
  806TIP3   OH2 2381   6.418   5.267   0.707 -0.5923  0.3935  1.2762
  806TIP3    H1 2382   6.496   5.291   0.657 -0.4834 -0.0637  1.2171
  806TIP3    H2 2383   6.418   5.327   0.782 -0.4096  0.6673  1.0570
  807TIP3   OH2 2384   5.674   2.633   3.179 -0.4990 -0.0612  0.5141
  807TIP3    H1 2385   5.663   2.716   3.225 -1.0153 -0.8483  1.8700
  807TIP3    H2 2386   5.632   2.568   3.236  0.7627 -1.4027 -0.0209
  808TIP3   OH2 2387   6.158   5.302   3.034  0.4171 -0.3088  0.2575
  808TIP3    H1 2388   6.092   5.297   3.103 -0.6051 -1.6358 -0.7699
  808TIP3    H2 2389   6.109   5.325   2.955  0.9789 -2.2687 -0.7229
  809TIP3   OH2 2390   6.820   2.694   3.165  0.0018  0.1816 -0.7413
  809TIP3    H1 2391   6.749   2.649   3.211 -1.7726  1.8788 -1.7011
  809TIP3    H2 2392   6.892   2.696   3.229 -0.5314 -2.1305  0.0439
  810TIP3   OH2 2393   6.344   4.172   4.503 -0.6076 -0.3388  0.3879
  810TIP3    H1 2394   6.342   4.200   4.411 -0.1858 -1.4013  0.0325
  810TIP3    H2 2395   6.294   4.090   4.503  0.3429 -0.9356  0.8871
  811TIP3   OH2 2396   4.183   4.884   5.795  0.6795  0.4203 -0.0311
  811TIP3    H1 2397   4.177   4.966   5.844  2.0339 -0.1000  1.0967
  811TIP3    H2 2398   4.092   4.855   5.785  0.1735  2.0566 -0.5050
  812TIP3   OH2 2399   0.023   2.874   4.780  0.4398  0.2939 -0.1612
  812TIP3    H1 2400   0.103   2.922   4.801 -0.3664  0.9769  1.5205
  812TIP3    H2 2401  -0.047   2.939   4.789 -0.3962 -0.4981 -0.7471
  813TIP3   OH2 2402   5.802   5.222   2.161  0.4704  0.4023 -0.2497
  813TIP3    H1 2403   5.861   5.234   2.086 -0.0915 -0.0734 -0.7767
  813TIP3    H2 2404   5.845   5.155   2.214  0.6189  0.3762 -0.4004
  814TIP3   OH2 2405   2.015   3.499   0.937  0.3397 -0.0966 -0.2096
  814TIP3    H1 2406   1.942   3.519   0.996  1.2079  2.3230  0.1483
  814TIP3    H2 2407   1.984   3.424   0.887 -3.0454  1.6123 -1.0362
  815TIP3   OH2 2408   3.625   3.411   0.460 -0.7316 -0.0410 -0.3680
  815TIP3    H1 2409   3.712   3.390   0.427 -1.1835 -0.7348 -1.1645
  815TIP3    H2 2410   3.639   3.432   0.553  0.1238 -1.4343 -0.1445
  816TIP3   OH2 2411   3.473   1.708   0.096 -0.0319  0.1368 -0.2438
  816TIP3    H1 2412   3.389   1.738   0.130  0.1171  0.2624  0.0096
  816TIP3    H2 2413   3.449   1.645   0.027 -0.3484  0.9582 -0.9034
  817TIP3   OH2 2414   1.522   4.877   4.803  0.4929 -0.0479 -0.2127
  817TIP3    H1 2415   1.609   4.842   4.781  0.4529 -0.3135  0.0314
  817TIP3    H2 2416   1.505   4.944   4.738  1.2109  0.5302  0.1790
  818TIP3   OH2 2417   2.400   5.399   3.560 -0.0482 -0.1635 -0.6431
  818TIP3    H1 2418   2.489   5.392   3.593  0.3332  1.3376 -1.2834
  818TIP3    H2 2419   2.376   5.309   3.538  0.6310 -0.8387  1.2007
  819TIP3   OH2 2420   0.696   1.231   4.240  0.1459 -0.2241  0.0884
  819TIP3    H1 2421   0.787   1.213   4.262 -0.0029 -1.0496  0.0713
  819TIP3    H2 2422   0.697   1.320   4.205  0.8321  0.0421  0.7415
  820TIP3   OH2 2423   3.862   3.132   1.113 -0.2001 -0.0816 -0.8296
  820TIP3    H1 2424   3.882   3.128   1.020 -0.8013  1.2733 -1.0415
  820TIP3    H2 2425   3.893   3.219   1.140 -0.2461 -0.3688  0.1783
  821TIP3   OH2 2426   2.165   0.428   4.209  0.1334 -0.1813  0.0904
  821TIP3    H1 2427   2.107   0.485   4.159 -1.3135 -2.0794 -0.5261
  821TIP3    H2 2428   2.106   0.370   4.257  1.5257 -0.0626  2.0704
  822TIP3   OH2 2429   0.218   0.363   4.638  0.4458  0.2681  0.2593
  822TIP3    H1 2430   0.241   0.270   4.643  0.4865  0.2380 -0.3266
  822TIP3    H2 2431   0.194   0.387   4.727  0.8156 -0.2070  0.4952
  823TIP3   OH2 2432   4.377   6.776   3.633 -0.3014 -0.3972 -0.3994
  823TIP3    H1 2433   4.439   6.707   3.656  0.7333  0.9142  0.9359
  823TIP3    H2 2434   4.335   6.798   3.715 -0.6814  0.5054 -0.8283
  824TIP3   OH2 2435   1.232   5.475   4.109 -0.5210  0.2447 -0.0777
  824TIP3    H1 2436   1.203   5.563   4.088 -0.2676  0.2827 -0.2777
  824TIP3    H2 2437   1.319   5.488   4.149 -0.8694  0.1563  0.7319
  825TIP3   OH2 2438   1.385   4.129   0.170  0.5232 -0.0109 -0.1942
  825TIP3    H1 2439   1.299   4.090   0.156  0.0638  0.8074  0.2703
  825TIP3    H2 2440   1.427   4.072   0.233 -0.0470  0.0979  0.2933
  826TIP3   OH2 2441   0.471   6.689   4.114  0.6637 -1.2411  0.2738
  826TIP3    H1 2442   0.457   6.594   4.115  4.6428 -2.0124  0.8505
  826TIP3    H2 2443   0.536   6.704   4.182  1.6251  1.6499 -1.1162
  827TIP3   OH2 2444   4.655   5.491   3.424  0.1207 -0.5711 -0.4202
  827TIP3    H1 2445   4.692   5.579   3.421 -0.3226 -0.3425  0.4520
  827TIP3    H2 2446   4.561   5.504   3.419  0.0824 -1.0661 -1.2785
  828TIP3   OH2 2447   1.496   6.168   5.408 -0.0111  0.0320  0.9068
  828TIP3    H1 2448   1.453   6.219   5.476  1.2162 -0.0134  1.7497
  828TIP3    H2 2449   1.568   6.223   5.377  0.5469 -0.6509  0.9386
  829TIP3   OH2 2450   2.232   0.601   4.539  0.4866  0.3561  0.1307
  829TIP3    H1 2451   2.278   0.594   4.623  2.6475  0.8449 -0.9513
  829TIP3    H2 2452   2.195   0.514   4.526  2.1971 -0.4851  0.4935
  830TIP3   OH2 2453   6.970   3.554   0.638 -0.6910 -0.3604  0.0080
  830TIP3    H1 2454   6.892   3.540   0.585 -0.6841 -1.0509  0.1747
  830TIP3    H2 2455   6.952   3.508   0.720 -0.8545  0.9940  0.7714
  831TIP3   OH2 2456   0.749   2.235   3.948 -0.3779  0.0981 -0.3751
  831TIP3    H1 2457   0.732   2.223   4.041  0.1343 -0.9238 -0.4013
  831TIP3    H2 2458   0.662   2.244   3.909 -0.5735  1.8653  0.3332
  832TIP3   OH2 2459   3.396   5.587   3.863 -0.0209 -0.5060  0.5043
  832TIP3    H1 2460   3.402   5.682   3.854 -0.5894 -0.5493 -0.4548
  832TIP3    H2 2461   3.414   5.570   3.955 -1.9993  0.7143  1.1647
  833TIP3   OH2 2462   5.152   2.482   2.019  0.5512 -0.3997  0.0148
  833TIP3    H1 2463   5.084   2.450   1.960  0.9843 -0.8173 -0.2668
  833TIP3    H2 2464   5.124   2.452   2.106 -0.6732  1.1829  0.2035
  834TIP3   OH2 2465   6.167   3.749   4.084 -0.0123  0.2114 -0.5261
  834TIP3    H1 2466   6.224   3.695   4.030  0.5531  1.6677 -1.4402
  834TIP3    H2 2467   6.095   3.691   4.108  0.5420 -0.9264 -1.5040
  835TIP3   OH2 2468   6.182   1.833   2.041  0.0634  0.1093  0.2920
  835TIP3    H1 2469   6.230   1.897   2.094 -0.0465 -0.0250  0.5551
  835TIP3    H2 2470   6.171   1.876   1.957  1.7757 -0.3407 -0.2159
  836TIP3   OH2 2471   0.732   1.731   0.043 -0.0004  0.4740 -0.1472
  836TIP3    H1 2472   0.748   1.825   0.039 -0.9710  0.7047  0.9351
  836TIP3    H2 2473   0.802   1.692  -0.010  0.7291  1.7612 -0.1539
  837TIP3   OH2 2474   1.440   6.154   1.511  0.4539 -0.1981 -0.2467
  837TIP3    H1 2475   1.356   6.163   1.466  0.8761  0.8292 -0.8789
  837TIP3    H2 2476   1.450   6.237   1.558  0.9646 -0.4489  0.0884
  838TIP3   OH2 2477   0.698   0.599   0.480  0.5839 -0.1112  0.0231
  838TIP3    H1 2478   0.742   0.572   0.560 -0.6559  0.9226  1.1031
  838TIP3    H2 2479   0.624   0.651   0.510 -0.5171 -0.5533 -1.7647
  839TIP3   OH2 2480   3.774   3.998   3.416 -0.5304 -0.0858  0.6423
  839TIP3    H1 2481   3.847   4.060   3.407 -0.5103 -0.4236 -2.3787
  839TIP3    H2 2482   3.711   4.045   3.471  0.4106  1.7601  0.2547
  840TIP3   OH2 2483   5.571   0.391   3.544 -0.0733  0.1993  0.0759
  840TIP3    H1 2484   5.521   0.313   3.569  0.5863  0.0784  1.1132
  840TIP3    H2 2485   5.661   0.369   3.566  0.0091  1.6071  1.3781
  841TIP3   OH2 2486   7.167   2.174   3.000 -0.3792 -0.0508  0.1346
  841TIP3    H1 2487   7.105   2.237   2.961 -0.0440  0.2555  0.0908
  841TIP3    H2 2488   7.219   2.143   2.926  1.4470  1.8549  0.5455
  842TIP3   OH2 2489   3.842   6.255   4.412  0.4904 -0.5011  0.2492
  842TIP3    H1 2490   3.802   6.175   4.446  0.1227 -0.1016  0.7645
  842TIP3    H2 2491   3.778   6.287   4.348  0.5263 -0.4907  0.2188
  843TIP3   OH2 2492   5.537   2.624   0.399 -0.4253 -0.4343  0.1855
  843TIP3    H1 2493   5.608   2.635   0.462  1.6162 -0.3397 -1.9854
  843TIP3    H2 2494   5.547   2.696   0.338 -0.4596 -2.0951 -1.8886
  844TIP3   OH2 2495   4.574   4.234   3.308 -0.7066  0.7181  0.4617
  844TIP3    H1 2496   4.663   4.208   3.333 -0.0654  2.7500  0.5245
  844TIP3    H2 2497   4.517   4.191   3.371  0.2047 -0.8194  0.2685
  845TIP3   OH2 2498   3.729   4.822   0.158 -0.5674 -0.3768 -0.1198
  845TIP3    H1 2499   3.720   4.874   0.078 -2.0917  0.8323  0.7817
  845TIP3    H2 2500   3.762   4.737   0.128 -0.4614  0.2656 -1.9339
  846TIP3   OH2 2501   1.464   1.861   1.597  0.4145  0.1848 -0.0102
  846TIP3    H1 2502   1.485   1.787   1.653 -1.0223  0.5949  1.1396
  846TIP3    H2 2503   1.409   1.824   1.528 -1.1478  0.3014  1.1271
  847TIP3   OH2 2504   3.411   5.216   5.244  1.0108  0.4675 -0.0256
  847TIP3    H1 2505   3.478   5.235   5.310 -0.1907  0.2582  1.2953
  847TIP3    H2 2506   3.328   5.219   5.292  0.0964  0.2648 -1.5280
  848TIP3   OH2 2507   2.714   0.874   4.192 -0.7086 -0.0025 -0.6126
  848TIP3    H1 2508   2.624   0.895   4.218 -0.8205 -1.0585 -0.0847
  848TIP3    H2 2509   2.727   0.921   4.110 -1.2218  1.3701  0.0664
  849TIP3   OH2 2510   6.692   0.906   4.631  0.3226 -0.4884 -0.1029
  849TIP3    H1 2511   6.721   0.969   4.565  0.1653  0.7867  1.0147
  849TIP3    H2 2512   6.607   0.876   4.599 -0.3608  1.0939  0.1162
  850TIP3   OH2 2513   0.283   2.275   1.167  0.2578  0.7215 -0.7325
  850TIP3    H1 2514   0.320   2.190   1.143  1.0708  1.2757 -1.5232
  850TIP3    H2 2515   0.222   2.256   1.239  0.7717 -0.4539 -0.5920
  851TIP3   OH2 2516   0.134   0.607   2.229  0.1150  0.2705  0.3454
  851TIP3    H1 2517   0.185   0.612   2.310  0.2985  0.4690  0.2185
  851TIP3    H2 2518   0.045   0.589   2.258  0.2766 -0.1936  0.5618
  852TIP3   OH2 2519   6.118   6.452   3.204 -0.1967  0.0616  0.4859
  852TIP3    H1 2520   6.093   6.537   3.170 -0.3141 -0.7821 -1.7193
  852TIP3    H2 2521   6.064   6.439   3.282 -0.4912  1.7716  0.5933
  853TIP3   OH2 2522   5.613   2.755   4.913  0.0615 -0.1173  0.2265
  853TIP3    H1 2523   5.606   2.779   5.006  1.6690 -2.3461  1.0240
  853TIP3    H2 2524   5.586   2.663   4.911  1.6509 -0.5980 -1.2031
  854TIP3   OH2 2525   3.590   6.761   5.073 -0.8806 -0.1743  0.4102
  854TIP3    H1 2526   3.666   6.759   5.131 -0.5205  1.4004  0.0466
  854TIP3    H2 2527   3.621   6.806   4.995 -1.7126 -1.1256 -0.4960
  855TIP3   OH2 2528   2.131   2.740   1.950 -0.5990 -0.0603  0.1227
  855TIP3    H1 2529   2.110   2.802   1.881  0.0561  1.4171  1.2007
  855TIP3    H2 2530   2.227   2.743   1.956 -0.4968 -1.6784 -0.2258
  856TIP3   OH2 2531   4.614   2.979   1.904  0.1847 -0.2591 -0.1482
  856TIP3    H1 2532   4.581   2.934   1.982  0.5876 -0.5829 -0.1665
  856TIP3    H2 2533   4.545   2.968   1.839  0.1221 -0.5279 -0.0370
  857TIP3   OH2 2534   3.680   3.052   4.809  0.3519 -0.1960 -0.2018
  857TIP3    H1 2535   3.742   3.059   4.737  0.7380  1.9726  0.2801
  857TIP3    H2 2536   3.603   3.101   4.781 -0.3301 -1.0746  0.0656
  858TIP3   OH2 2537   3.135   0.349   5.295 -0.4559  0.0122  0.2702
  858TIP3    H1 2538   3.082   0.302   5.360  0.0131 -0.1363  0.5451
  858TIP3    H2 2539   3.145   0.287   5.224 -1.8875  0.5440 -0.4414
  859TIP3   OH2 2540   6.220   4.704   2.414  0.3290  0.0546 -0.2205
  859TIP3    H1 2541   6.271   4.626   2.436  0.9769  0.7274  0.7601
  859TIP3    H2 2542   6.223   4.757   2.494 -4.5999 -1.2294  1.1779
  860TIP3   OH2 2543   7.017   5.277   4.524 -0.1354 -0.5741 -0.1872
  860TIP3    H1 2544   7.060   5.269   4.609 -0.1916  0.1743 -0.0811
  860TIP3    H2 2545   6.940   5.332   4.541 -0.1548 -0.4277 -0.7185
  861TIP3   OH2 2546   6.783   6.716   3.223 -0.4631  0.5912 -0.6062
  861TIP3    H1 2547   6.813   6.718   3.314 -0.3250 -1.0163 -0.5718
  861TIP3    H2 2548   6.706   6.773   3.221 -0.4271  0.6990  0.5013
  862TIP3   OH2 2549   0.300   4.512   3.726 -0.2163 -0.2306 -0.4318
  862TIP3    H1 2550   0.375   4.564   3.696  1.6541 -2.2796  0.4358
  862TIP3    H2 2551   0.259   4.566   3.794  2.5392 -0.3599  1.4875
  863TIP3   OH2 2552   6.192   5.829   0.448 -0.2029 -0.3537 -0.4346
  863TIP3    H1 2553   6.140   5.756   0.412 -0.9273 -0.1970  0.2598
  863TIP3    H2 2554   6.265   5.787   0.492 -0.3793 -0.6412 -0.4118
  864TIP3   OH2 2555   4.714   4.840   2.843  0.4953  0.1258  0.3701
  864TIP3    H1 2556   4.634   4.881   2.875  0.6204  0.6154  0.0729
  864TIP3    H2 2557   4.694   4.815   2.753 -0.8344 -3.8461  1.5618
  865TIP3   OH2 2558   6.036   3.471   3.908  0.0191  0.3049 -0.7692
  865TIP3    H1 2559   6.033   3.495   4.001  0.9668  0.1097 -0.6813
  865TIP3    H2 2560   6.128   3.481   3.884 -0.5186  2.4696 -2.2612
  866TIP3   OH2 2561   1.501   4.432   2.786 -0.0180  0.0593 -0.6286
  866TIP3    H1 2562   1.456   4.391   2.860  2.7112 -0.3708  0.9457
  866TIP3    H2 2563   1.470   4.384   2.709 -2.5899  0.2125  0.2245
  867TIP3   OH2 2564   3.821   0.567   3.940 -0.6272  0.2055 -0.0437
  867TIP3    H1 2565   3.774   0.651   3.935 -2.1891 -0.6232 -0.1477
  867TIP3    H2 2566   3.857   0.566   4.028  0.1802  1.3559 -0.3334
  868TIP3   OH2 2567   1.469   1.021   3.684  0.2170 -0.2433  0.0171
  868TIP3    H1 2568   1.476   0.938   3.637 -0.6103 -0.4400  0.2270
  868TIP3    H2 2569   1.515   1.084   3.628  1.8815 -1.0427  0.4106
  869TIP3   OH2 2570   5.801   2.575   1.429 -0.0050 -0.5784  0.8461
  869TIP3    H1 2571   5.728   2.541   1.482 -0.2933 -0.5241  0.4857
  869TIP3    H2 2572   5.819   2.661   1.466  0.9032 -1.2067  1.9416
  870TIP3   OH2 2573   3.434   3.131   2.431 -0.2058 -0.4740  0.4853
  870TIP3    H1 2574   3.463   3.087   2.351  0.4887 -1.6129  1.3128
  870TIP3    H2 2575   3.369   3.194   2.402  1.3249  0.4350 -1.1878
  871TIP3   OH2 2576   3.752   0.809   1.696  0.0698 -0.2043 -0.1360
  871TIP3    H1 2577   3.844   0.828   1.712 -0.1406 -0.2513  1.2769
  871TIP3    H2 2578   3.729   0.742   1.760 -0.3824 -1.9158 -1.9910
  872TIP3   OH2 2579   4.227   6.348   0.248 -0.2765  0.0420  0.5834
  872TIP3    H1 2580   4.248   6.255   0.242  0.5784  0.1381  1.7261
  872TIP3    H2 2581   4.298   6.385   0.301 -0.2713  1.4639 -0.3668
  873TIP3   OH2 2582   0.805   5.692   0.997 -0.0737 -0.7653  0.4468
  873TIP3    H1 2583   0.888   5.653   1.025 -0.4330 -1.4406  0.5941
  873TIP3    H2 2584   0.788   5.654   0.911  1.8788  2.5614 -1.6263
  874TIP3   OH2 2585   0.405   4.994   5.654  0.6640 -0.3937 -0.2489
  874TIP3    H1 2586   0.326   4.973   5.702  0.4904  0.9505  0.0946
  874TIP3    H2 2587   0.375   5.021   5.567  0.9550 -2.4984 -1.0752
  875TIP3   OH2 2588   0.352   3.638   0.549  0.6329 -0.0097  0.0212
  875TIP3    H1 2589   0.335   3.561   0.604 -3.1356  0.5266 -0.1122
  875TIP3    H2 2590   0.369   3.602   0.462 -0.4838 -0.7724  0.0909
  876TIP3   OH2 2591   5.526   3.692   1.083  0.3439  0.1434 -0.7213
  876TIP3    H1 2592   5.506   3.686   0.989 -0.9562  2.3994 -0.6588
  876TIP3    H2 2593   5.620   3.679   1.088  0.5935  0.9387 -2.4968
  877TIP3   OH2 2594   1.956   1.622   1.926 -0.9525 -0.1040 -0.1369
  877TIP3    H1 2595   2.022   1.685   1.955  0.0148  0.3166 -2.9314
  877TIP3    H2 2596   1.890   1.623   1.996 -0.2479  2.8964  0.6514
  878TIP3   OH2 2597   3.682   4.846   2.116  0.4610  0.0304 -0.0598
  878TIP3    H1 2598   3.646   4.890   2.193  0.2498  1.0836 -0.7331
  878TIP3    H2 2599   3.768   4.885   2.104 -0.2677  1.3156 -1.4619
  879TIP3   OH2 2600   3.832   1.493   0.747 -0.2345 -0.5709  0.7252
  879TIP3    H1 2601   3.813   1.502   0.841 -0.6785  0.5665  0.5391
  879TIP3    H2 2602   3.802   1.405   0.725 -0.2165 -0.8120  1.6312
  880TIP3   OH2 2603   1.992   0.303   0.908 -0.6381  0.5332 -0.1238
  880TIP3    H1 2604   2.019   0.315   0.999 -0.8929 -1.4929  0.2731
  880TIP3    H2 2605   2.073   0.313   0.857 -0.3595  0.9219  0.3857
  881TIP3   OH2 2606   1.457   2.194   4.424  0.1397 -0.0130  0.3068
  881TIP3    H1 2607   1.438   2.100   4.419 -1.2643  0.2073  1.0246
  881TIP3    H2 2608   1.501   2.205   4.508 -0.2359  0.0522  0.4961
  882TIP3   OH2 2609   0.495   4.865   2.489 -0.5145  0.6507 -0.1738
  882TIP3    H1 2610   0.528   4.933   2.548  0.4095 -0.0321  0.1179
  882TIP3    H2 2611   0.405   4.852   2.515  0.0507 -0.0735  1.5153
  883TIP3   OH2 2612   5.314   3.436   0.724  0.3780 -0.0251  0.3574
  883TIP3    H1 2613   5.369   3.358   0.712 -0.6379 -0.7974  0.5587
  883TIP3    H2 2614   5.373   3.501   0.762  1.5174 -0.3322 -0.8188
  884TIP3   OH2 2615   6.726   4.387   4.690 -0.3983  0.0129 -0.0813
  884TIP3    H1 2616   6.773   4.458   4.734  0.5419 -0.8369  0.3301
  884TIP3    H2 2617   6.753   4.308   4.737  0.4001 -0.8929 -1.9701
  885TIP3   OH2 2618   0.218   5.146   1.641  0.3383  0.2725 -0.0328
  885TIP3    H1 2619   0.138   5.119   1.596  0.3328  1.2290 -0.6225
  885TIP3    H2 2620   0.205   5.239   1.659  0.5423  0.0256  1.5508
  886TIP3   OH2 2621   4.903   4.600   5.769  0.0400 -0.0871  0.1332
  886TIP3    H1 2622   4.836   4.559   5.824 -0.2634 -0.5065 -0.5323
  886TIP3    H2 2623   4.985   4.587   5.817 -0.3795  0.5955  1.0399
  887TIP3   OH2 2624   3.444   2.136   3.093 -0.3011  0.5019  0.1585
  887TIP3    H1 2625   3.375   2.072   3.071  0.7950 -0.4962 -0.4783
  887TIP3    H2 2626   3.523   2.100   3.055  0.7079  1.3477  1.3697
  888TIP3   OH2 2627   0.070   1.138   4.660 -0.0372  0.2102  0.0819
  888TIP3    H1 2628   0.027   1.074   4.717  0.6356 -0.3288  0.0110
  888TIP3    H2 2629   0.139   1.176   4.714  0.7916 -0.5095 -0.4240
  889TIP3   OH2 2630   4.057   1.661   0.698  0.1357  0.0458 -0.3352
  889TIP3    H1 2631   3.986   1.608   0.734 -0.7842  1.6996  0.4436
  889TIP3    H2 2632   4.028   1.685   0.610  0.4661 -0.5780 -0.6166
  890TIP3   OH2 2633   3.982   4.089   5.730  0.6704 -0.5155 -0.2944
  890TIP3    H1 2634   3.938   4.047   5.804 -0.7817 -0.5587 -1.1433
  890TIP3    H2 2635   3.976   4.025   5.659 -1.8918  1.1301 -1.7227
  891TIP3   OH2 2636   2.766   5.492   4.281  0.3663 -0.1554  0.0497
  891TIP3    H1 2637   2.704   5.468   4.212 -0.5048  0.5139  0.5705
  891TIP3    H2 2638   2.852   5.487   4.240 -0.1552  0.4627 -1.1549
  892TIP3   OH2 2639   0.466   0.167   5.440  0.1599 -0.0765  0.0270
  892TIP3    H1 2640   0.559   0.172   5.460  0.0796  0.6505  0.2297
  892TIP3    H2 2641   0.424   0.226   5.503 -0.4553 -0.5015  0.0323
  893TIP3   OH2 2642   5.436   1.691   1.945  0.1119 -0.0766  0.3292
  893TIP3    H1 2643   5.389   1.651   1.872 -0.4469 -0.3295  0.8102
  893TIP3    H2 2644   5.467   1.616   1.997  1.7200  0.0709 -0.3771
  894TIP3   OH2 2645   5.801   5.474   1.080 -0.1027 -0.9125  0.3057
  894TIP3    H1 2646   5.844   5.430   1.154  1.2748 -1.9862 -1.0780
  894TIP3    H2 2647   5.792   5.406   1.014  0.4250  0.4598 -1.2232
  895TIP3   OH2 2648   3.070   3.853   4.785 -0.0569 -0.3807  0.0534
  895TIP3    H1 2649   3.134   3.924   4.789  0.0103 -0.4161 -0.3748
  895TIP3    H2 2650   3.015   3.875   4.709  0.2906 -1.0558 -0.4001
  896TIP3   OH2 2651   5.624   3.131   2.039 -0.3118  0.1404  0.0729
  896TIP3    H1 2652   5.574   3.161   2.115 -0.6099  1.4265 -0.6143
  896TIP3    H2 2653   5.654   3.211   1.996  1.1469 -0.5874 -0.3318
  897TIP3   OH2 2654   3.552   0.626   5.512  0.4153  0.4766 -0.5622
  897TIP3    H1 2655   3.517   0.565   5.446 -1.3603 -1.2694  1.7896
  897TIP3    H2 2656   3.574   0.570   5.587  1.3233  2.4590  0.7285
  898TIP3   OH2 2657   1.558   0.385   1.169 -0.5643  0.4817  0.2001
  898TIP3    H1 2658   1.478   0.367   1.219 -1.2032  0.9951 -0.6237
  898TIP3    H2 2659   1.542   0.346   1.083  1.5555 -2.7613  1.0784
  899TIP3   OH2 2660   2.091   1.593   5.272  0.4851  0.0608  0.1969
  899TIP3    H1 2661   2.157   1.636   5.326 -0.9053  0.2520  1.8303
  899TIP3    H2 2662   2.042   1.664   5.233  0.4709 -0.0724 -0.0267
  900TIP3   OH2 2663   3.337   1.630   2.182 -0.5431 -0.0096  0.5168
  900TIP3    H1 2664   3.397   1.630   2.107 -1.3038 -1.5931 -0.1465
  900TIP3    H2 2665   3.261   1.679   2.152 -0.4992  0.0762  0.5476
  901TIP3   OH2 2666   3.961   5.014   1.578  0.1751  0.2462  0.3368
  901TIP3    H1 2667   4.043   5.050   1.543  0.0222 -0.7443 -1.1232
  901TIP3    H2 2668   3.982   4.922   1.598 -0.2853  0.2828  1.0209
  902TIP3   OH2 2669   3.804   1.145   4.952  0.5257  0.2843 -0.3498
  902TIP3    H1 2670   3.720   1.190   4.962  0.5206  0.7319 -2.0614
  902TIP3    H2 2671   3.833   1.168   4.863  1.0491 -2.2324 -0.8974
  903TIP3   OH2 2672   1.300   3.626   2.295 -0.1414 -0.2326 -0.1175
  903TIP3    H1 2673   1.274   3.545   2.338  0.3086  0.5032  1.6282
  903TIP3    H2 2674   1.366   3.600   2.231 -1.1257 -1.4135 -0.7007
  904TIP3   OH2 2675   6.199   1.026   3.250 -0.0136 -0.4747 -0.3820
  904TIP3    H1 2676   6.243   1.041   3.166 -1.5193  1.4776 -0.9155
  904TIP3    H2 2677   6.207   1.109   3.296  0.4301 -1.3966  1.2788
  905TIP3   OH2 2678   1.309   5.448   1.166  0.6120  0.5471 -0.1331
  905TIP3    H1 2679   1.316   5.519   1.230 -0.3251 -0.4016  1.0690
  905TIP3    H2 2680   1.387   5.395   1.180 -0.0650 -0.1932  0.9163
  906TIP3   OH2 2681   6.359   3.549   3.977  0.7869 -0.1653 -0.0690
  906TIP3    H1 2682   6.423   3.538   3.907 -0.2594 -0.2538 -1.0249
  906TIP3    H2 2683   6.412   3.559   4.056  1.9667 -2.2711 -0.5305
  907TIP3   OH2 2684   5.088   3.380   2.685 -0.3888 -0.1084  0.0903
  907TIP3    H1 2685   5.148   3.325   2.735 -0.2248 -0.5100 -0.5317
  907TIP3    H2 2686   5.128   3.467   2.687 -0.3540 -0.1326  0.5977
  908TIP3   OH2 2687   4.866   1.763   3.868  0.0215  0.1682  0.0241
  908TIP3    H1 2688   4.874   1.757   3.964 -0.8851  0.5544  0.1419
  908TIP3    H2 2689   4.806   1.693   3.845 -0.1114  0.3562 -0.2069
  909TIP3   OH2 2690   3.397   2.570   0.327 -0.5307  0.6196 -0.1168
  909TIP3    H1 2691   3.469   2.507   0.328  0.6200  1.8384 -1.6001
  909TIP3    H2 2692   3.324   2.523   0.285 -0.8020 -0.7630  1.7761
  910TIP3   OH2 2693   4.035   5.474   0.000 -0.2791 -0.0135  0.0470
  910TIP3    H1 2694   4.021   5.566  -0.026 -0.0967  0.1687  0.5755
  910TIP3    H2 2695   3.997   5.468   0.088  1.0261 -0.0597  0.6204
  911TIP3   OH2 2696   2.793   3.933   2.454 -0.2373  1.0959  0.1563
  911TIP3    H1 2697   2.722   3.950   2.392  0.2143  0.6527 -0.5013
  911TIP3    H2 2698   2.761   3.966   2.538 -2.5664 -1.8840  0.6195
  912TIP3   OH2 2699   7.033   1.175  -0.013  0.4545  0.7567  1.0502
  912TIP3    H1 2700   7.011   1.174   0.080 -0.3005 -0.0347  0.8777
  912TIP3    H2 2701   7.066   1.087  -0.031  4.5822  2.0095  1.4235
  913TIP3   OH2 2702   2.644   6.182   4.462  0.4753 -0.0197  0.1170
  913TIP3    H1 2703   2.575   6.220   4.517 -0.8647 -0.5836 -1.1096
  913TIP3    H2 2704   2.653   6.245   4.391  0.4159 -0.5033 -0.3184
  914TIP3   OH2 2705   3.823   0.296   2.729 -0.1165  0.2390  0.7621
  914TIP3    H1 2706   3.905   0.326   2.689  1.2496 -1.0807  2.4371
  914TIP3    H2 2707   3.828   0.328   2.819 -0.5043 -1.4627  1.4257
  915TIP3   OH2 2708   4.220   1.668   3.407  0.6371  0.0806  0.7683
  915TIP3    H1 2709   4.175   1.741   3.364  0.7832  0.2743  0.9483
  915TIP3    H2 2710   4.152   1.601   3.417  0.2277  0.6135  1.6154
  916TIP3   OH2 2711   6.593   4.630   1.067 -0.1737 -0.3683  0.0103
  916TIP3    H1 2712   6.624   4.558   1.013  0.4598 -1.1493  1.3662
  916TIP3    H2 2713   6.654   4.633   1.141  0.5822  2.3688 -0.6160
  917TIP3   OH2 2714   1.728   3.663   5.301  0.4571  0.2606 -0.0100
  917TIP3    H1 2715   1.803   3.681   5.358 -0.4210  1.0908  0.9128
  917TIP3    H2 2716   1.680   3.593   5.345 -0.6746  1.4647  0.7501
  918TIP3   OH2 2717   2.104   2.642   1.582 -0.3049  0.0112  0.1201
  918TIP3    H1 2718   2.198   2.641   1.600 -0.6568 -0.5005  2.1355
  918TIP3    H2 2719   2.094   2.707   1.512  1.4425  0.6813  0.4374
  919TIP3   OH2 2720   5.379   5.996   4.821 -0.0485  0.5110  0.7224
  919TIP3    H1 2721   5.471   6.021   4.832  0.3957 -0.7309  0.0449
  919TIP3    H2 2722   5.365   5.928   4.887 -0.2070  0.0305  0.1940
  920TIP3   OH2 2723   0.786   6.306   2.907 -0.8599 -0.1678 -0.0447
  920TIP3    H1 2724   0.757   6.356   2.830 -0.6176 -0.6960 -0.4886
  920TIP3    H2 2725   0.843   6.367   2.954 -0.1223 -0.1855 -0.8699
  921TIP3   OH2 2726   3.084   6.463   0.523  0.2386 -0.2042  0.4560
  921TIP3    H1 2727   2.995   6.498   0.528 -0.4534 -1.7727 -0.2511
  921TIP3    H2 2728   3.104   6.461   0.430  1.2006  0.5202  0.6280
  922TIP3   OH2 2729   5.270   3.119   4.602  0.8563 -0.8726  0.0702
  922TIP3    H1 2730   5.286   3.042   4.656  1.8416 -0.0115  1.0748
  922TIP3    H2 2731   5.333   3.112   4.530 -1.5234 -2.8486 -2.0071
  923TIP3   OH2 2732   0.929   2.855   5.831  0.1828  0.1607  0.2851
  923TIP3    H1 2733   0.917   2.776   5.883  1.1826 -1.9265 -2.4352
  923TIP3    H2 2734   0.890   2.834   5.746 -0.6082  3.0813 -0.2085
  924TIP3   OH2 2735   1.946   0.827   0.411  0.0600 -0.0488  0.2588
  924TIP3    H1 2736   1.913   0.878   0.485 -2.5373 -0.5633 -0.4455
  924TIP3    H2 2737   1.938   0.736   0.439  1.4747 -0.2026  0.2460
  925TIP3   OH2 2738   6.369   4.080   2.460  0.0761 -0.2090  0.4048
  925TIP3    H1 2739   6.388   3.994   2.423 -1.9759  0.7728 -3.5185
  925TIP3    H2 2740   6.439   4.136   2.428 -0.6316  0.2635 -0.3676
  926TIP3   OH2 2741   1.371   3.365   5.177 -0.5853  0.0626  0.5250
  926TIP3    H1 2742   1.278   3.344   5.186 -0.1909 -2.3257 -0.3644
  926TIP3    H2 2743   1.372   3.460   5.164 -2.9045  0.1272  0.3186
  927TIP3   OH2 2744   1.127   4.964   3.570 -0.3173 -0.3076 -0.1533
  927TIP3    H1 2745   1.144   5.050   3.608 -0.7535  1.1245 -2.9156
  927TIP3    H2 2746   1.210   4.938   3.530  0.2421 -1.9590  1.8669
  928TIP3   OH2 2747   4.243   6.283   1.993 -0.5018  0.3368 -0.2721
  928TIP3    H1 2748   4.301   6.212   2.021 -1.0583 -0.6227 -1.4907
  928TIP3    H2 2749   4.220   6.262   1.903 -0.9007  1.9382 -0.5760
  929TIP3   OH2 2750   5.934   5.971   0.424  0.2943 -0.1296 -0.0507
  929TIP3    H1 2751   6.009   5.918   0.449  0.0919 -0.4710 -0.1567
  929TIP3    H2 2752   5.966   6.028   0.354  1.0024  1.1930  1.2814
  930TIP3   OH2 2753   0.358   3.235   0.467 -0.1684  0.6200  0.2456
  930TIP3    H1 2754   0.360   3.275   0.554  0.1709  0.2070  0.4285
  930TIP3    H2 2755   0.306   3.296   0.414  0.0798  1.1448  0.6009
  931TIP3   OH2 2756   5.242   1.715   0.870  0.5777 -0.2236 -0.1797
  931TIP3    H1 2757   5.239   1.765   0.788  0.2553  1.8341  1.0197
  931TIP3    H2 2758   5.244   1.781   0.939  3.8057 -1.8111  1.4874
  932TIP3   OH2 2759   5.435   5.991   3.324 -0.2081  0.0789  0.1183
  932TIP3    H1 2760   5.450   6.024   3.412  0.8530  0.4427 -0.1876
  932TIP3    H2 2761   5.448   5.896   3.331 -3.2859 -0.3839  1.0006
  933TIP3   OH2 2762   0.261   4.671   5.468 -0.5590  0.2738  0.0169
  933TIP3    H1 2763   0.165   4.678   5.464 -0.6297  1.5154  2.2593
  933TIP3    H2 2764   0.292   4.762   5.468  0.3005  0.1073  3.1172
  934TIP3   OH2 2765   1.479   0.534   2.982  0.2978 -0.0648 -0.1791
  934TIP3    H1 2766   1.542   0.507   3.049 -0.6046  0.9505  1.1493
  934TIP3    H2 2767   1.482   0.630   2.984  0.9010 -0.0017 -2.2787
  935TIP3   OH2 2768   6.961   4.193   2.775 -0.1575 -0.2570 -0.1608
  935TIP3    H1 2769   7.049   4.205   2.811 -0.3776  0.2147  0.2235
  935TIP3    H2 2770   6.908   4.165   2.850 -0.6651  0.9297 -0.0518
  936TIP3   OH2 2771   3.554   5.612   3.620  0.8703 -0.0021 -0.1940
  936TIP3    H1 2772   3.471   5.589   3.660  0.9333  2.5385  1.5889
  936TIP3    H2 2773   3.549   5.576   3.531 -0.9497 -2.2514  0.7153
  937TIP3   OH2 2774   1.725   3.379   3.596  0.2844  0.0690 -0.5530
  937TIP3    H1 2775   1.795   3.388   3.532  0.4501  0.9594 -0.2624
  937TIP3    H2 2776   1.712   3.285   3.605  1.7741 -0.1304 -0.2661
  938TIP3   OH2 2777   2.830   4.524   2.420 -0.1428  0.2898 -0.7185
  938TIP3    H1 2778   2.851   4.448   2.474  2.6577  0.8927 -0.8250
  938TIP3    H2 2779   2.753   4.562   2.462  0.0810 -1.0089  0.9774
  939TIP3   OH2 2780   2.497   3.753   5.273  0.0860 -0.4110 -0.0298
  939TIP3    H1 2781   2.443   3.777   5.348  1.0062 -1.1952  0.8951
  939TIP3    H2 2782   2.469   3.664   5.251  2.3796 -1.7077  1.8106
  940TIP3   OH2 2783   6.245   5.337   3.484  0.4578  0.2564  0.4791
  940TIP3    H1 2784   6.276   5.395   3.414 -1.2526 -0.7681 -1.2252
  940TIP3    H2 2785   6.153   5.320   3.463  0.7463 -2.7531  1.0634
  941TIP3   OH2 2786   3.361   3.851   3.414  0.0646  0.6142  0.7757
  941TIP3    H1 2787   3.352   3.924   3.475 -1.2979 -1.1085  2.7681
  941TIP3    H2 2788   3.278   3.849   3.366  0.1641  0.4611  0.6076
  942TIP3   OH2 2789   6.380   5.118   1.333 -0.0535  0.2804 -0.2082
  942TIP3    H1 2790   6.409   5.208   1.349 -1.2604  0.4768  1.1108
  942TIP3    H2 2791   6.459   5.065   1.343  0.3793  1.0490  0.5816
  943TIP3   OH2 2792   0.192   4.998   2.327  0.4820 -0.1255  0.5596
  943TIP3    H1 2793   0.196   5.012   2.422  0.7109  0.4889  0.4670
  943TIP3    H2 2794   0.283   4.990   2.300  0.5680  1.8595  0.1074
  944TIP3   OH2 2795   5.129   4.167   4.687  0.1680  0.5484 -0.1978
  944TIP3    H1 2796   5.035   4.174   4.703  0.3360  1.3419  0.5027
  944TIP3    H2 2797   5.156   4.091   4.738 -0.2833 -0.4726 -1.3991
  945TIP3   OH2 2798   4.737   6.054   4.969 -0.4257  0.2043 -0.0670
  945TIP3    H1 2799   4.826   6.060   4.932 -0.1278 -1.0315  0.4003
  945TIP3    H2 2800   4.682   6.033   4.894 -0.0236 -0.9621 -0.0469
  946TIP3   OH2 2801   5.305   2.957   0.876  0.9607 -0.0784  0.1215
  946TIP3    H1 2802   5.269   2.890   0.818 -3.6168  0.3661  1.9738
  946TIP3    H2 2803   5.237   3.024   0.879  3.1937  2.2853  2.1726
  947TIP3   OH2 2804   6.043   3.960   4.849  0.0338  0.3621  0.2125
  947TIP3    H1 2805   6.054   4.055   4.840  0.2463  0.2084 -1.3835
  947TIP3    H2 2806   6.127   3.930   4.883 -0.5905  0.9012  2.4299
  948TIP3   OH2 2807   6.563   1.845   2.275  0.7886 -0.8964 -0.6888
  948TIP3    H1 2808   6.600   1.926   2.240  0.7510 -1.0705 -1.1454
  948TIP3    H2 2809   6.578   1.780   2.206 -1.5189 -0.6791 -1.4754
  949TIP3   OH2 2810   3.185   1.616   3.864 -0.1178  0.4351 -0.5013
  949TIP3    H1 2811   3.205   1.523   3.855  2.0080  0.7949 -0.0296
  949TIP3    H2 2812   3.180   1.649   3.775 -2.1063 -0.3289 -0.7095
  950TIP3   OH2 2813   1.901   0.091   4.922  0.1771  0.2788  0.0291
  950TIP3    H1 2814   1.905   0.004   4.962 -2.0452  0.0306 -0.1617
  950TIP3    H2 2815   1.808   0.106   4.908  0.6024  2.2488 -0.9529
  951TIP3   OH2 2816   6.627   3.609   2.055  0.2595  0.3768 -0.4466
  951TIP3    H1 2817   6.599   3.518   2.048  2.1134 -0.3365  0.6873
  951TIP3    H2 2818   6.560   3.650   2.109 -0.2848 -0.4787 -0.4490
  952TIP3   OH2 2819   1.626   5.240   1.984  0.2215  0.0330 -0.7738
  952TIP3    H1 2820   1.654   5.150   1.969  1.5390  0.5114 -1.4188
  952TIP3    H2 2821   1.595   5.270   1.898 -1.3990 -0.1644 -0.2911
  953TIP3   OH2 2822   2.937   2.872   1.119 -0.0646  0.2326 -0.0298
  953TIP3    H1 2823   2.941   2.797   1.059 -0.2340  0.9720 -0.9901
  953TIP3    H2 2824   2.957   2.835   1.205 -1.2714 -1.1156 -0.2948
  954TIP3   OH2 2825   1.897   4.792   0.467  0.3192 -0.1160 -0.0634
  954TIP3    H1 2826   1.841   4.715   0.465 -1.2277  0.9776 -1.2330
  954TIP3    H2 2827   1.882   4.835   0.383  1.5335  1.2069  0.3522
  955TIP3   OH2 2828   3.274   3.264   4.490  0.0630 -0.1763  0.2909
  955TIP3    H1 2829   3.273   3.168   4.494  0.6687 -0.2733 -1.2938
  955TIP3    H2 2830   3.244   3.285   4.402  0.5583  1.0825  0.4005
  956TIP3   OH2 2831   7.236   3.586   3.804  0.0965  0.3252 -0.4611
  956TIP3    H1 2832   7.233   3.629   3.890  1.0552 -0.9839  0.2656
  956TIP3    H2 2833   7.164   3.626   3.755 -2.2353 -0.7416  1.8547
  957TIP3   OH2 2834   3.840   4.916   4.667  0.4896  0.8029 -0.5120
  957TIP3    H1 2835   3.926   4.955   4.652  1.7889 -0.0296  3.5449
  957TIP3    H2 2836   3.786   4.988   4.700  0.5212  0.7347 -0.3110
  958TIP3   OH2 2837   5.959   3.137   2.169 -0.3772 -0.0380 -0.4028
  958TIP3    H1 2838   6.054   3.133   2.159 -0.0851  0.5376  1.8212
  958TIP3    H2 2839   5.925   3.113   2.082  1.7519 -1.9195 -0.8107
  959TIP3   OH2 2840   5.965   5.014   3.216  0.7274  0.1564  0.3438
  959TIP3    H1 2841   5.891   4.956   3.229  0.3928  0.6608  0.7592
  959TIP3    H2 2842   6.032   4.981   3.276  0.6161  0.0604  0.4157
  960TIP3   OH2 2843   3.562   6.234   0.337 -0.8405 -0.1774 -0.0720
  960TIP3    H1 2844   3.478   6.231   0.382  0.3283 -2.4517  2.1680
  960TIP3    H2 2845   3.547   6.186   0.255 -2.1658  1.2515 -0.7390
  961TIP3   OH2 2846   3.887   2.225   0.720 -0.0858  0.7570 -0.4931
  961TIP3    H1 2847   3.920   2.197   0.805 -0.2737 -1.0935 -0.9990
  961TIP3    H2 2848   3.792   2.230   0.731 -0.2111 -0.5078 -0.8469
  962TIP3   OH2 2849   0.537   2.606   3.136  0.0456 -0.0580 -0.3385
  962TIP3    H1 2850   0.585   2.638   3.060 -0.5832  1.9892  0.0511
  962TIP3    H2 2851   0.530   2.682   3.194 -2.6335 -0.5414  0.1399
  963TIP3   OH2 2852   5.893   0.021   2.695  0.0425  0.0930  0.1945
  963TIP3    H1 2853   5.930   0.102   2.731  0.6485  1.2721 -2.7620
  963TIP3    H2 2854   5.808   0.047   2.661 -0.4383 -0.9115  0.5991
  964TIP3   OH2 2855   5.215   5.951   4.353 -0.0709  0.0769 -0.0834
  964TIP3    H1 2856   5.274   6.026   4.348  1.5269 -1.1309 -0.2245
  964TIP3    H2 2857   5.217   5.913   4.266  1.1444 -1.5435  0.6027
  965TIP3   OH2 2858   4.618   2.078   3.223 -0.2159  0.1744 -0.0539
  965TIP3    H1 2859   4.710   2.105   3.228  0.4205 -1.7630 -0.6848
  965TIP3    H2 2860   4.621   1.983   3.217 -2.2775  0.0812 -0.1806
  966TIP3   OH2 2861   2.292   3.549   5.810  0.0067 -0.0909 -0.1528
  966TIP3    H1 2862   2.198   3.533   5.794 -0.3418 -0.0750  1.7248
  966TIP3    H2 2863   2.310   3.505   5.893  1.8986 -0.8235 -0.9008
  967TIP3   OH2 2864   1.383   3.729   1.289 -0.5842  0.1468  0.1727
  967TIP3    H1 2865   1.352   3.715   1.379  2.3157  0.3356  1.3317
  967TIP3    H2 2866   1.326   3.797   1.254 -1.1592  0.8243  2.2773
  968TIP3   OH2 2867   2.447   1.919   2.926  0.0157  0.3121 -0.7070
  968TIP3    H1 2868   2.490   1.901   2.842 -0.5971  0.6405 -1.1023
  968TIP3    H2 2869   2.468   2.011   2.944 -0.2106  0.3669 -0.7178
  969TIP3   OH2 2870   6.330   1.419   4.462 -0.5505 -0.0658 -0.4337
  969TIP3    H1 2871   6.323   1.443   4.554 -2.0244 -0.2165 -0.4849
  969TIP3    H2 2872   6.312   1.325   4.459 -1.9020  0.1832 -0.9982
  970TIP3   OH2 2873   1.727   3.450   4.403 -0.1698  0.1509 -0.0830
  970TIP3    H1 2874   1.743   3.381   4.338  1.4373  0.8711 -0.4882
  970TIP3    H2 2875   1.674   3.514   4.357 -2.7950 -1.3200  0.6680
  971TIP3   OH2 2876   2.004   6.817   0.806  0.0348  0.5866 -0.0957
  971TIP3    H1 2877   1.934   6.825   0.871  0.3336 -2.2220  0.7041
  971TIP3    H2 2878   1.987   6.734   0.761  0.5088  1.8814 -2.8694
  972TIP3   OH2 2879   0.043   3.204   3.916  0.2406 -0.5703  0.2460
  972TIP3    H1 2880   0.073   3.119   3.949  0.0718 -1.3813 -1.5545
  972TIP3    H2 2881   0.110   3.231   3.854  1.4451  1.7765  2.4010
  973TIP3   OH2 2882   3.139   0.471   0.633  0.4019  0.1472 -0.0848
  973TIP3    H1 2883   3.064   0.518   0.598  1.0555  0.7377 -0.7345
  973TIP3    H2 2884   3.178   0.427   0.557  0.1523 -0.9710  0.4117
  974TIP3   OH2 2885   4.515   3.336   3.628  0.0580 -0.5378 -0.4560
  974TIP3    H1 2886   4.589   3.277   3.613  0.1516 -0.5429  0.0130
  974TIP3    H2 2887   4.541   3.387   3.704 -1.0887 -1.6324  0.7072
  975TIP3   OH2 2888   6.871   2.851   4.713 -0.4366  0.0542  0.0012
  975TIP3    H1 2889   6.811   2.815   4.779 -0.0843  1.1982  0.9873
  975TIP3    H2 2890   6.828   2.933   4.686 -0.5557 -0.3853 -1.1790
  976TIP3   OH2 2891   4.589   2.362   1.953  0.0846  0.3360 -0.1036
  976TIP3    H1 2892   4.657   2.297   1.934  0.8878  1.2776 -0.5303
  976TIP3    H2 2893   4.605   2.387   2.044  0.3258  0.5675 -0.2080
  977TIP3   OH2 2894   6.334   2.635   0.879  0.1229 -0.2457  0.5864
  977TIP3    H1 2895   6.420   2.627   0.837  0.2056  2.6794  0.0005
  977TIP3    H2 2896   6.354   2.651   0.971  0.3168  1.3831  0.2954
  978TIP3   OH2 2897   3.947   2.557   1.138 -0.4182  0.0183 -0.1533
  978TIP3    H1 2898   3.984   2.645   1.142 -0.8370  0.1691  0.4763
  978TIP3    H2 2899   3.875   2.563   1.076 -0.4089  0.0999 -0.1561
  979TIP3   OH2 2900   1.821   3.289   1.012  0.5011 -0.1632  0.3513
  979TIP3    H1 2901   1.825   3.241   1.094  0.1030  0.9508  1.0474
  979TIP3    H2 2902   1.783   3.374   1.035 -0.5223 -0.1598 -1.1349
  980TIP3   OH2 2903   2.486   2.462   3.602 -0.6793  0.0699  0.6537
  980TIP3    H1 2904   2.497   2.515   3.681  0.7045 -0.6229  0.9476
  980TIP3    H2 2905   2.575   2.442   3.573 -1.1636 -0.1830 -0.7555
  981TIP3   OH2 2906   3.418   0.645   1.771 -0.2123  0.0940  0.6963
  981TIP3    H1 2907   3.360   0.659   1.847 -0.4157  0.4627  0.4772
  981TIP3    H2 2908   3.506   0.651   1.808 -0.3038 -1.1403  1.1506
  982TIP3   OH2 2909   3.567   5.227   3.982 -0.1378  0.2220 -0.2900
  982TIP3    H1 2910   3.523   5.156   3.935 -0.1560 -0.4687  0.7147
  982TIP3    H2 2911   3.532   5.221   4.071 -0.1226  1.4971 -0.1812
  983TIP3   OH2 2912   5.666   2.268   2.018 -0.3826  0.0421 -0.0106
  983TIP3    H1 2913   5.709   2.286   2.101 -0.7039  1.0383 -0.0446
  983TIP3    H2 2914   5.737   2.244   1.959 -0.0379  0.3021  0.2965
  984TIP3   OH2 2915   6.467   0.894   4.469  0.2523  0.3229 -0.2749
  984TIP3    H1 2916   6.398   0.958   4.486 -1.6310 -1.2495 -1.5581
  984TIP3    H2 2917   6.422   0.809   4.469  2.6600 -1.0864  1.5021
  985TIP3   OH2 2918   4.747   0.528   4.321 -0.2628 -0.3120 -0.1334
  985TIP3    H1 2919   4.700   0.581   4.385  0.6070 -1.2450  1.3240
  985TIP3    H2 2920   4.736   0.438   4.351  2.6634 -0.5640  0.4885
  986TIP3   OH2 2921   5.042   2.544   3.729 -0.0619  0.2532 -0.6476
  986TIP3    H1 2922   5.098   2.616   3.760  2.2766 -1.6702 -0.0547
  986TIP3    H2 2923   5.069   2.531   3.638 -0.1990 -0.0893 -0.6398
  987TIP3   OH2 2924   3.222   4.720   5.508 -0.4427  0.0098 -0.2457
  987TIP3    H1 2925   3.296   4.781   5.501  0.6956 -1.3099 -0.2809
  987TIP3    H2 2926   3.243   4.650   5.445 -0.1531 -1.9099  1.8436
  988TIP3   OH2 2927   3.143   0.791   1.362  0.4174 -0.7988  0.5761
  988TIP3    H1 2928   3.072   0.829   1.413  0.8834  1.1963 -0.1660
  988TIP3    H2 2929   3.101   0.728   1.304 -0.7295  0.1241  0.3659
  989TIP3   OH2 2930   2.417   4.368   4.583 -0.0954 -0.3999 -0.2052
  989TIP3    H1 2931   2.342   4.373   4.643 -0.1727  0.0025 -0.3304
  989TIP3    H2 2932   2.493   4.387   4.639 -0.0923 -0.7414 -0.0916
  990TIP3   OH2 2933   2.739   4.450   0.840 -0.4596 -0.6723  0.0636
  990TIP3    H1 2934   2.752   4.534   0.796  0.1774 -1.6725 -1.7764
  990TIP3    H2 2935   2.768   4.465   0.929  0.6013  0.8070 -0.4874
  991TIP3   OH2 2936   6.749   4.821   5.721 -0.0360  0.0334 -0.0266
  991TIP3    H1 2937   6.798   4.739   5.725 -0.9280 -0.5553 -0.9450
  991TIP3    H2 2938   6.794   4.878   5.784  0.8843 -0.9874  0.2760
  992TIP3   OH2 2939   2.301   2.180   1.172  0.6729  0.9207 -0.2089
  992TIP3    H1 2940   2.250   2.160   1.251  1.6736 -2.2793 -0.2283
  992TIP3    H2 2941   2.386   2.208   1.206  0.5995  1.0838 -0.1584
  993TIP3   OH2 2942   5.307   3.700   3.956  0.3599 -0.2156 -0.0614
  993TIP3    H1 2943   5.236   3.652   3.914  0.2592  1.2323 -1.6136
  993TIP3    H2 2944   5.330   3.769   3.894  0.7245  1.5616  1.9530
  994TIP3   OH2 2945   2.461   2.810   3.713 -0.1949  0.2739 -0.0285
  994TIP3    H1 2946   2.550   2.805   3.680 -0.6871 -1.2644 -1.2328
  994TIP3    H2 2947   2.430   2.896   3.684  0.2806  0.0516 -1.2612
  995TIP3   OH2 2948   6.515   0.188   3.214 -0.0694 -0.2634 -0.1554
  995TIP3    H1 2949   6.423   0.165   3.227  0.3090 -1.7261  0.2017
  995TIP3    H2 2950   6.553   0.184   3.301  0.3670  0.1502 -0.3250
  996TIP3   OH2 2951   6.497   1.461   0.651 -0.0472  0.0035 -0.1931
  996TIP3    H1 2952   6.486   1.555   0.644  1.3720  0.3552  1.5147
  996TIP3    H2 2953   6.411   1.424   0.632 -1.3699  1.8067  1.8596
  997TIP3   OH2 2954   1.329   5.947   5.815  0.0129  0.0366 -0.5815
  997TIP3    H1 2955   1.255   5.908   5.862  0.6483 -0.7669 -0.2135
  997TIP3    H2 2956   1.318   5.918   5.725  0.3813 -0.8490 -0.3440
  998TIP3   OH2 2957   5.805   1.804   1.453 -0.0722  0.0554  0.4275
  998TIP3    H1 2958   5.736   1.805   1.386  1.0120  2.5534 -0.8000
  998TIP3    H2 2959   5.842   1.892   1.450  1.2990 -0.3399  3.0486
  999TIP3   OH2 2960   6.046   0.871   0.980  0.4748 -0.0684  0.1563
  999TIP3    H1 2961   6.054   0.966   0.978  0.3163 -0.0620 -0.1691
  999TIP3    H2 2962   6.094   0.841   0.904 -0.0724 -0.2057 -0.1401
 1000TIP3   OH2 2963   2.051   6.490   0.303 -0.0209  0.2735 -0.0042
 1000TIP3    H1 2964   2.023   6.569   0.256  0.2876 -0.2699 -1.1336
 1000TIP3    H2 2965   1.971   6.453   0.338 -0.3618  0.2677 -0.7745
 1001TIP3   OH2 2966   4.601   2.843   4.516 -0.1801  0.2448 -0.3484
 1001TIP3    H1 2967   4.626   2.895   4.593 -0.7381 -1.2269  0.8691
 1001TIP3    H2 2968   4.605   2.905   4.444  1.5432  1.3909  0.6626
 1002TIP3   OH2 2969   5.468   6.770   5.283 -0.5722 -0.5204 -0.1679
 1002TIP3    H1 2970   5.450   6.862   5.261 -1.4649 -0.7699 -0.5434
 1002TIP3    H2 2971   5.442   6.762   5.374  2.0348  0.2301  0.7269
 1003TIP3   OH2 2972   6.328   2.964   4.135  0.8975 -0.1234 -0.4544
 1003TIP3    H1 2973   6.261   2.988   4.200  0.6999 -0.0697 -0.6791
 1003TIP3    H2 2974   6.299   3.006   4.054  0.7935 -0.7378 -0.7410
 1004TIP3   OH2 2975   5.045   0.340   4.873 -0.6823 -0.0912 -0.2508
 1004TIP3    H1 2976   5.055   0.346   4.968  2.6221  0.6215 -0.5453
 1004TIP3    H2 2977   5.072   0.250   4.852  1.8525  0.7048 -0.7279
 1005TIP3   OH2 2978   0.650   1.596   4.627  0.4055 -0.7036 -0.0916
 1005TIP3    H1 2979   0.566   1.633   4.657 -0.3459 -2.3417 -0.0506
 1005TIP3    H2 2980   0.713   1.666   4.640 -0.6311 -0.0128  1.6277
 1006TIP3   OH2 2981   3.734   4.516   3.514  0.6963  0.3724 -0.0283
 1006TIP3    H1 2982   3.760   4.575   3.444  1.3945 -1.1180 -1.0867
 1006TIP3    H2 2983   3.738   4.569   3.594  0.8409  1.8433 -0.9809
 1007TIP3   OH2 2984   3.411   6.711   4.326  0.2142  0.5584 -0.4806
 1007TIP3    H1 2985   3.336   6.762   4.295 -2.1007 -1.3745  1.5053
 1007TIP3    H2 2986   3.417   6.638   4.265  1.0319  1.1267 -1.0957
 1008TIP3   OH2 2987   3.065   3.758   0.987 -0.0502  0.1446  0.2117
 1008TIP3    H1 2988   3.065   3.663   1.000  2.3800  0.1926  1.0441
 1008TIP3    H2 2989   3.129   3.773   0.917 -0.7207  1.1484 -0.2052
 1009TIP3   OH2 2990   4.540   6.139   1.389  0.0261 -0.1125 -0.1622
 1009TIP3    H1 2991   4.457   6.165   1.430 -0.0246 -0.8331  0.1951
 1009TIP3    H2 2992   4.603   6.203   1.421 -0.5439  0.9479 -1.0792
 1010TIP3   OH2 2993   6.003   4.122   4.330 -0.1203  0.1717  0.2118
 1010TIP3    H1 2994   6.039   4.163   4.409  0.6998 -0.6917  0.2962
 1010TIP3    H2 2995   5.966   4.039   4.360 -1.5615  0.6965 -0.0036
 1011TIP3   OH2 2996   0.119   6.511   4.594 -0.2633  0.2598 -0.0433
 1011TIP3    H1 2997   0.169   6.446   4.643 -1.6831 -0.4236  0.5810
 1011TIP3    H2 2998   0.144   6.497   4.503  0.9347  0.1903  0.2880
 1012TIP3   OH2 2999   0.536   0.793   0.630  0.4647  0.6431  0.1298
 1012TIP3    H1 3000   0.516   0.751   0.713  1.5573 -0.2410 -0.0239
 1012TIP3    H2 3001   0.455   0.787   0.579 -0.1427  0.9920  1.0367
 1013TIP3   OH2 3002   2.031   5.675   4.044  0.0557 -0.3869 -0.2905
 1013TIP3    H1 3003   2.073   5.683   3.959 -0.6316 -1.2996 -0.7333
 1013TIP3    H2 3004   2.005   5.764   4.066 -0.8449 -0.2965 -1.6170
 1014TIP3   OH2 3005   0.945   1.815   3.508  0.4238 -0.5793 -0.5599
 1014TIP3    H1 3006   1.012   1.794   3.573 -0.5626 -0.5385  0.5226
 1014TIP3    H2 3007   0.882   1.870   3.556 -1.3563 -2.1609 -0.9250
 1015TIP3   OH2 3008   1.167   4.957   2.487 -0.0299  0.1274 -0.2634
 1015TIP3    H1 3009   1.185   5.039   2.532  2.0719 -0.7000  0.5171
 1015TIP3    H2 3010   1.180   4.977   2.394  2.7250  0.2244  0.0731
 1016TIP3   OH2 3011   1.400   1.186   4.558 -0.0757 -0.0089 -0.0060
 1016TIP3    H1 3012   1.455   1.263   4.542 -0.6178  0.2196 -0.8407
 1016TIP3    H2 3013   1.340   1.214   4.627  0.1210  0.1116  0.1191
 1017TIP3   OH2 3014   5.830   4.725   2.668 -0.5826 -0.3046 -0.1642
 1017TIP3    H1 3015   5.800   4.815   2.662 -0.3032 -0.2889 -2.6704
 1017TIP3    H2 3016   5.750   4.673   2.668 -0.7765 -0.1061 -2.1504
 1018TIP3   OH2 3017   0.517   0.355   0.102 -0.4068  0.5411 -0.6234
 1018TIP3    H1 3018   0.549   0.354   0.192  1.6198 -0.0652 -1.2821
 1018TIP3    H2 3019   0.557   0.278   0.062 -2.7634 -0.2583 -1.5876
 1019TIP3   OH2 3020   4.556   3.217   4.243 -0.5437  0.1604  0.1885
 1019TIP3    H1 3021   4.576   3.261   4.160 -0.3810 -2.1848 -1.0942
 1019TIP3    H2 3022   4.630   3.238   4.300 -0.3955  1.3795 -0.4290
 1020TIP3   OH2 3023   0.919   2.704   5.576  0.7892  0.1113  0.1581
 1020TIP3    H1 3024   0.952   2.704   5.487  1.5655 -1.2964  0.4181
 1020TIP3    H2 3025   0.918   2.612   5.602  1.9912  0.5608  2.0898
 1021TIP3   OH2 3026   5.758   0.180   5.109 -0.2384 -0.2068  0.3371
 1021TIP3    H1 3027   5.679   0.225   5.079  1.2486  3.2174  1.1698
 1021TIP3    H2 3028   5.804   0.157   5.028 -1.1998 -0.5784 -0.1176
 1022TIP3   OH2 3029   4.647   0.012   1.711 -0.0096  0.1161 -0.1022
 1022TIP3    H1 3030   4.569   0.068   1.707  0.2396  0.4262 -0.7940
 1022TIP3    H2 3031   4.651  -0.031   1.626 -0.1472 -0.9064  0.3935
 1023TIP3   OH2 3032   3.542   3.005   4.316 -0.0718  0.2252 -0.5447
 1023TIP3    H1 3033   3.638   3.007   4.315 -0.0563  0.5952 -2.5545
 1023TIP3    H2 3034   3.517   2.984   4.225 -1.8903 -1.2854  0.2246
 1024TIP3   OH2 3035   3.579   5.908   1.821 -0.3116  0.7758  0.0596
 1024TIP3    H1 3036   3.586   5.991   1.866 -0.8986  0.6294  0.4210
 1024TIP3    H2 3037   3.566   5.932   1.729  2.1105  1.0782 -0.2824
 1025TIP3   OH2 3038   0.636   1.117   3.233 -0.1934 -0.0222 -0.6791
 1025TIP3    H1 3039   0.552   1.095   3.272  0.2726 -0.6875 -0.0291
 1025TIP3    H2 3040   0.699   1.111   3.305  0.3946  0.6096 -1.1231
 1026TIP3   OH2 3041   3.650   5.136   0.282 -0.2872 -0.1463  0.0233
 1026TIP3    H1 3042   3.583   5.192   0.322 -1.8708 -1.0789 -1.2484
 1026TIP3    H2 3043   3.604   5.058   0.254  1.0930 -0.3512 -1.9397
 1027TIP3   OH2 3044   2.269   3.719   4.999 -0.7491  0.2061 -0.1920
 1027TIP3    H1 3045   2.276   3.726   5.095 -0.1001  1.1154 -0.3002
 1027TIP3    H2 3046   2.337   3.655   4.975 -0.6827  0.2373 -0.0861
 1028TIP3   OH2 3047   5.614   1.575   2.261  0.1220 -0.0617  0.4900
 1028TIP3    H1 3048   5.522   1.550   2.255  0.6195 -1.8318 -0.5341
 1028TIP3    H2 3049   5.612   1.669   2.277 -1.8580  0.5204 -2.4071
 1029TIP3   OH2 3050   6.005   3.421   4.935  0.3456 -0.2726 -0.0895
 1029TIP3    H1 3051   5.967   3.438   4.849 -1.5709  0.1272  0.8024
 1029TIP3    H2 3052   6.039   3.506   4.964 -0.7760  0.0434  0.3552
 1030TIP3   OH2 3053   4.831   5.476   5.040  0.2891 -0.5142 -0.3843
 1030TIP3    H1 3054   4.879   5.402   5.003  0.3148 -0.4556 -0.4668
 1030TIP3    H2 3055   4.895   5.520   5.096  0.4649 -0.1765 -0.8415
 1031TIP3   OH2 3056   1.890   1.451   0.524  0.1781 -0.1965  0.4770
 1031TIP3    H1 3057   1.803   1.432   0.489  0.9544 -0.6756 -1.3360
 1031TIP3    H2 3058   1.874   1.508   0.599 -1.7905 -1.9117  1.4622
 1032TIP3   OH2 3059   3.948   4.119   2.052 -0.5251  0.5828  0.2133
 1032TIP3    H1 3060   3.990   4.103   2.137 -0.7087 -4.6264 -0.3394
 1032TIP3    H2 3061   3.858   4.143   2.073  0.2678  2.8392  1.3624
 1033TIP3   OH2 3062   4.798   2.382   1.574  1.0628 -0.2896  0.3730
 1033TIP3    H1 3063   4.777   2.392   1.481 -0.3346  0.0521  0.7015
 1033TIP3    H2 3064   4.878   2.433   1.587  0.6114  0.6350 -0.4056
 1034TIP3   OH2 3065   5.543   4.069   1.847 -0.4655 -0.6699  0.7256
 1034TIP3    H1 3066   5.582   4.124   1.915 -3.9774  0.5518  2.0119
 1034TIP3    H2 3067   5.507   4.131   1.784 -1.2273 -1.6410  0.1803
 1035TIP3   OH2 3068   6.586   6.390   4.449  0.9329 -0.0666 -0.0073
 1035TIP3    H1 3069   6.676   6.367   4.472  0.5891 -1.1457  0.3574
 1035TIP3    H2 3070   6.535   6.315   4.478 -0.0950  0.5594 -0.1618
 1036TIP3   OH2 3071   2.364   1.288   4.090 -0.1676 -0.0949 -0.2752
 1036TIP3    H1 3072   2.331   1.365   4.043 -0.9117 -0.7474 -0.8628
 1036TIP3    H2 3073   2.315   1.288   4.172 -1.2452 -0.7338 -0.8960
 1037TIP3   OH2 3074   1.666   6.338   2.806  0.5468 -0.5428  0.5069
 1037TIP3    H1 3075   1.748   6.291   2.795  2.0534  2.1823 -1.0121
 1037TIP3    H2 3076   1.615   6.315   2.728  2.0672  1.6021 -1.2550
 1038TIP3   OH2 3077   0.018   1.014   3.543 -0.4601  0.0243  0.1795
 1038TIP3    H1 3078  -0.004   0.933   3.589  1.4769 -0.1503  0.8489
 1038TIP3    H2 3079   0.084   1.056   3.597  0.4699  0.7729 -1.4725
 1039TIP3   OH2 3080   3.382   2.374   1.724  0.8944  0.0574 -0.1249
 1039TIP3    H1 3081   3.394   2.293   1.773  0.2079  0.2285  0.3436
 1039TIP3    H2 3082   3.425   2.441   1.778  1.4096  0.0222 -0.4821
 1040TIP3   OH2 3083   2.249   4.915   1.799  0.0136  0.0208  0.5570
 1040TIP3    H1 3084   2.337   4.951   1.807  0.0835 -0.1089  0.3730
 1040TIP3    H2 3085   2.247   4.840   1.858  0.6828 -1.2332 -0.9435
 1041TIP3   OH2 3086   3.260   6.087   0.947  0.4328  0.2742 -0.3111
 1041TIP3    H1 3087   3.241   6.094   1.040  0.5476  0.9734 -0.3331
 1041TIP3    H2 3088   3.257   6.178   0.915  0.6087  0.0636 -0.9382
 1042TIP3   OH2 3089   1.774   4.459   3.410 -0.1568  0.2845  0.0087
 1042TIP3    H1 3090   1.734   4.538   3.445  1.4327  0.8029  0.7659
 1042TIP3    H2 3091   1.848   4.442   3.468 -0.1887 -1.5108 -0.4072
 1043TIP3   OH2 3092   5.247   1.144   3.791 -0.3447  0.3371 -0.8108
 1043TIP3    H1 3093   5.304   1.201   3.737 -0.3691  1.7868  0.6299
 1043TIP3    H2 3094   5.169   1.196   3.806 -0.9174 -0.5970 -0.4935
 1044TIP3   OH2 3095   4.373   5.381   3.667  0.3810 -0.1565  0.0669
 1044TIP3    H1 3096   4.443   5.445   3.657  1.4357 -1.3066 -0.1307
 1044TIP3    H2 3097   4.395   5.311   3.606 -0.9203 -0.5696  0.0353
 1045TIP3   OH2 3098   6.833   4.939   3.188  0.3184 -0.5272  0.2406
 1045TIP3    H1 3099   6.804   5.026   3.161  0.1433 -0.3661  0.9382
 1045TIP3    H2 3100   6.900   4.916   3.123  0.4743  0.1878  0.1334
 1046TIP3   OH2 3101   3.443   4.058   1.994  0.0255  0.0002 -0.4683
 1046TIP3    H1 3102   3.382   4.128   1.969 -0.8340 -0.3897  0.4794
 1046TIP3    H2 3103   3.529   4.099   1.988 -0.5060  1.4472  0.9618
 1047TIP3   OH2 3104   5.207   5.780   5.611 -0.3163  0.0577  0.9015
 1047TIP3    H1 3105   5.158   5.698   5.614 -0.7091  0.2787  0.6008
 1047TIP3    H2 3106   5.224   5.802   5.702 -2.3646  0.9288  1.1120
 1048TIP3   OH2 3107   1.158   0.218   5.075  0.1864  0.1888 -0.1600
 1048TIP3    H1 3108   1.206   0.196   4.996  0.2051 -1.0525  0.1834
 1048TIP3    H2 3109   1.105   0.140   5.094  1.1279 -0.0352  1.7518
 1049TIP3   OH2 3110   0.826   6.359   2.066  0.0794 -0.3537 -0.1915
 1049TIP3    H1 3111   0.895   6.369   2.131  1.2556 -0.4114 -1.3992
 1049TIP3    H2 3112   0.865   6.387   1.983 -0.7198 -2.1518 -1.2579
 1050TIP3   OH2 3113   2.845   2.903   1.574  0.4426  0.3598  0.4241
 1050TIP3    H1 3114   2.844   2.924   1.667  0.7064  2.1180  0.0773
 1050TIP3    H2 3115   2.752   2.897   1.549  0.2220  3.3238  0.1677
 1051TIP3   OH2 3116   5.921   3.293   4.491 -0.1011  0.0058  0.5896
 1051TIP3    H1 3117   5.903   3.358   4.424  1.0054  0.9097  1.1224
 1051TIP3    H2 3118   5.864   3.219   4.470 -1.7727  1.3450  0.2803
 1052TIP3   OH2 3119   4.378   3.596   2.431  0.1647 -0.1333  0.5479
 1052TIP3    H1 3120   4.390   3.547   2.349  0.0793 -1.5694  1.3642
 1052TIP3    H2 3121   4.465   3.597   2.471 -0.2108 -1.3715  1.4646
 1053TIP3   OH2 3122   5.372   6.197   3.142 -1.0198 -0.3874  0.0245
 1053TIP3    H1 3123   5.388   6.160   3.229  1.2505 -2.6613 -1.2521
 1053TIP3    H2 3124   5.373   6.292   3.157  0.2542 -0.6805  2.3512
 1054TIP3   OH2 3125   0.687   0.270   1.348  0.3625  0.2651  0.5257
 1054TIP3    H1 3126   0.719   0.354   1.317  1.1354  0.0684  0.7484
 1054TIP3    H2 3127   0.763   0.231   1.393 -0.3885  0.0655  1.6551
 1055TIP3   OH2 3128   6.073   5.488   1.724  0.0124  0.1299  0.0655
 1055TIP3    H1 3129   6.058   5.435   1.802 -1.0190 -0.4941 -0.5376
 1055TIP3    H2 3130   6.151   5.540   1.745  1.7866 -2.4171  0.2611
 1056TIP3   OH2 3131   0.204   1.938   2.501  0.1885  0.1836 -0.0897
 1056TIP3    H1 3132   0.125   1.884   2.490  0.1457  0.2479 -0.1015
 1056TIP3    H2 3133   0.214   1.983   2.417  0.2137  0.2076 -0.0739
 1057TIP3   OH2 3134   7.160   4.074   5.350  0.1447  0.0565  0.0426
 1057TIP3    H1 3135   7.233   4.021   5.316 -0.7108 -0.7114 -0.6437
 1057TIP3    H2 3136   7.088   4.012   5.359  0.0397  0.4290  2.4123
 1058TIP3   OH2 3137   1.532   5.203   0.080 -0.5485  0.3655 -0.2543
 1058TIP3    H1 3138   1.487   5.285   0.059 -1.1347  0.7445  2.2135
 1058TIP3    H2 3139   1.625   5.224   0.071 -0.7023  1.2067  0.0085
 1059TIP3   OH2 3140   1.559   6.545   5.260 -0.7066 -0.4230  0.0407
 1059TIP3    H1 3141   1.556   6.580   5.349  0.9125  0.1735 -0.1148
 1059TIP3    H2 3142   1.597   6.458   5.270  0.8368  0.2038 -0.2005
 1060TIP3   OH2 3143   1.471   5.814   0.909 -0.0907 -0.1179  0.0340
 1060TIP3    H1 3144   1.508   5.848   0.991 -0.0356  2.6146 -1.0192
 1060TIP3    H2 3145   1.401   5.876   0.887 -0.3741 -1.0297 -1.7582
 1061TIP3   OH2 3146   5.080   1.233   0.063  0.8004  0.0240  0.1820
 1061TIP3    H1 3147   5.070   1.165  -0.004  1.9556 -0.2057  0.2302
 1061TIP3    H2 3148   5.006   1.220   0.122 -0.2345  0.2223 -1.0306
 1062TIP3   OH2 3149   3.957   5.801   5.092 -0.1557  0.1449 -0.4263
 1062TIP3    H1 3150   3.891   5.830   5.028 -0.3575  0.6123 -0.0173
 1062TIP3    H2 3151   3.920   5.721   5.129  0.1108 -0.3049 -1.1177
 1063TIP3   OH2 3152   2.880   2.626   5.573  0.1078  0.1098  0.5691
 1063TIP3    H1 3153   2.967   2.613   5.535 -0.1494  0.3509 -0.1319
 1063TIP3    H2 3154   2.837   2.686   5.512 -1.1682 -1.3988 -0.0742
 1064TIP3   OH2 3155   5.369   3.018   5.812  0.1908  0.3157 -0.3470
 1064TIP3    H1 3156   5.436   3.074   5.772  1.0623 -2.0909 -2.4977
 1064TIP3    H2 3157   5.416   2.965   5.876 -0.1575  0.3668 -0.0462
 1065TIP3   OH2 3158   4.970   5.692   3.277 -0.2978  0.4233 -0.0645
 1065TIP3    H1 3159   4.972   5.602   3.246 -0.7577  0.5355 -0.4252
 1065TIP3    H2 3160   4.902   5.734   3.226 -2.6604  0.0703  2.5324
 1066TIP3   OH2 3161   4.647   0.187   2.585 -0.1865 -0.3413  0.9528
 1066TIP3    H1 3162   4.553   0.172   2.572 -0.3660  0.3989  1.3137
 1066TIP3    H2 3163   4.685   0.177   2.498 -0.8796  1.2585  0.4240
 1067TIP3   OH2 3164   1.222   0.715   3.530  0.5088  0.2907  0.1263
 1067TIP3    H1 3165   1.251   0.805   3.514  1.1368  0.2762  1.0966
 1067TIP3    H2 3166   1.241   0.669   3.449  2.6821  0.4341  0.5011
 1068TIP3   OH2 3167   5.084   2.443   4.838 -0.6112  0.0969  0.3978
 1068TIP3    H1 3168   5.021   2.373   4.821 -0.7081  0.0736  0.8340
 1068TIP3    H2 3169   5.079   2.500   4.761 -0.0304 -0.7451 -0.2760
 1069TIP3   OH2 3170   0.919   0.899   3.413  0.1502 -0.4264 -0.0752
 1069TIP3    H1 3171   0.847   0.871   3.356  0.0472  0.4963 -0.4253
 1069TIP3    H2 3172   0.893   0.987   3.442  0.4838 -0.6537  0.9292
 1070TIP3   OH2 3173   6.669   0.510   1.181  0.2838  0.2527  0.1840
 1070TIP3    H1 3174   6.677   0.469   1.267 -2.4601 -0.4289  0.2179
 1070TIP3    H2 3175   6.728   0.585   1.184  2.7760 -1.6068  1.4263
 1071TIP3   OH2 3176   1.889   4.983   4.902 -0.8834 -0.7191  0.2164
 1071TIP3    H1 3177   1.911   4.972   4.995  0.2658 -1.0780 -0.0732
 1071TIP3    H2 3178   1.947   5.053   4.872  0.7834 -2.4472 -0.8341
 1072TIP3   OH2 3179   1.190   5.746   4.419  0.1935 -0.7897  0.3325
 1072TIP3    H1 3180   1.254   5.676   4.401 -0.2721 -1.2064  0.2785
 1072TIP3    H2 3181   1.106   5.700   4.427  0.0430 -0.3579  1.3653
 1073TIP3   OH2 3182   4.277   3.840   2.019  0.1502 -0.0638  0.4389
 1073TIP3    H1 3183   4.335   3.764   2.029 -0.1904 -0.2009  1.4488
 1073TIP3    H2 3184   4.292   3.892   2.097 -0.2118  0.5146  0.1307
 1074TIP3   OH2 3185   1.063   6.730   4.120  0.2130  0.1095  0.1570
 1074TIP3    H1 3186   1.041   6.649   4.073 -1.6510  0.6577  0.0135
 1074TIP3    H2 3187   1.125   6.702   4.187 -0.0239 -1.3577 -0.1933
 1075TIP3   OH2 3188   1.625   5.115   4.305 -0.1690  0.5089  0.6832
 1075TIP3    H1 3189   1.560   5.123   4.235 -0.3958  0.5055  0.8965
 1075TIP3    H2 3190   1.699   5.071   4.263 -0.4302  0.2112  0.5286
 1076TIP3   OH2 3191   0.175   6.441   4.339 -0.2478 -0.1297  0.3968
 1076TIP3    H1 3192   0.251   6.500   4.340 -0.3614  0.0515 -0.6208
 1076TIP3    H2 3193   0.171   6.408   4.250 -0.9262 -0.7334  0.6371
 1077TIP3   OH2 3194   5.618   2.851   5.176  0.5594  0.0104 -0.0346
 1077TIP3    H1 3195   5.623   2.939   5.137  0.0825  0.3863  0.7109
 1077TIP3    H2 3196   5.701   2.841   5.223 -0.0127  0.7251  1.1844
 1078TIP3   OH2 3197   3.867   3.922   3.844  0.3515  0.6844 -0.5650
 1078TIP3    H1 3198   3.879   3.925   3.939  1.2190  1.2475 -0.6809
 1078TIP3    H2 3199   3.786   3.872   3.832 -0.3308  1.4731  0.5135
 1079TIP3   OH2 3200   2.453   0.600   0.102 -0.5501  0.0860 -0.0431
 1079TIP3    H1 3201   2.464   0.666   0.034  0.4102  1.4738  1.3722
 1079TIP3    H2 3202   2.518   0.533   0.082  0.6929  1.1698  0.2607
 1080TIP3   OH2 3203   0.475   3.329   2.588  0.5000 -0.5456  0.2478
 1080TIP3    H1 3204   0.429   3.390   2.531 -1.9573 -1.7066  0.8721
 1080TIP3    H2 3205   0.524   3.272   2.528  0.4885  0.1921 -0.4810
 1081TIP3   OH2 3206   5.277   2.042   2.429  0.1485  0.1887 -0.4009
 1081TIP3    H1 3207   5.312   1.974   2.371 -0.7735  0.8468 -1.7764
 1081TIP3    H2 3208   5.348   2.058   2.492  1.2249 -0.4847 -1.3877
 1082TIP3   OH2 3209   2.986   1.090   2.746 -0.9655 -0.7957 -0.1591
 1082TIP3    H1 3210   2.929   1.024   2.783 -1.9631 -1.8089 -3.2110
 1082TIP3    H2 3211   2.969   1.087   2.652  0.4552  2.4018 -0.6599
 1083TIP3   OH2 3212   5.967   1.533   0.758  0.0603  0.0811  0.1361
 1083TIP3    H1 3213   5.972   1.535   0.663 -1.7847  0.8867  0.0100
 1083TIP3    H2 3214   6.053   1.502   0.786  0.4287 -0.8067 -1.8013
 1084TIP3   OH2 3215   0.917   5.871   4.789 -0.0476 -0.2725  0.0773
 1084TIP3    H1 3216   0.859   5.933   4.746 -0.7636 -0.3047  0.9681
 1084TIP3    H2 3217   0.924   5.798   4.729 -0.1022  0.1789 -0.4855
 1085TIP3   OH2 3218   5.376   2.532   4.936 -0.3250 -0.6941 -0.4197
 1085TIP3    H1 3219   5.450   2.472   4.947  1.5229  1.3625 -0.9570
 1085TIP3    H2 3220   5.345   2.547   5.026  0.2238 -1.1914 -0.1346
 1086TIP3   OH2 3221   3.157   0.169   2.080 -0.9907 -0.0464 -0.2051
 1086TIP3    H1 3222   3.195   0.153   2.166  0.4392 -0.1222 -0.8295
 1086TIP3    H2 3223   3.171   0.263   2.065 -1.2980 -0.0191 -0.3363
 1087TIP3   OH2 3224   4.559   2.177   1.490  0.0069 -0.2460  0.1983
 1087TIP3    H1 3225   4.614   2.198   1.566 -0.7676  0.1364  0.6724
 1087TIP3    H2 3226   4.532   2.087   1.505 -0.7179  0.0503  0.7613
 1088TIP3   OH2 3227   5.476   2.982   5.437  0.4025  0.3674  0.0624
 1088TIP3    H1 3228   5.415   2.914   5.464 -0.8185  1.3988  0.0028
 1088TIP3    H2 3229   5.432   3.027   5.365  2.6938 -0.9775 -2.3427
 1089TIP3   OH2 3230   0.689   5.024   3.455  0.0023 -0.3120  0.2505
 1089TIP3    H1 3231   0.743   5.101   3.474  0.7196 -0.4555 -1.0346
 1089TIP3    H2 3232   0.737   4.978   3.385 -2.0705 -0.1295 -1.3911
 1090TIP3   OH2 3233   2.110   1.519   3.264 -0.0820 -0.4249  0.0757
 1090TIP3    H1 3234   2.055   1.465   3.321  0.8443 -1.2979  0.1704
 1090TIP3    H2 3235   2.073   1.508   3.177  0.5843 -1.9032 -0.0433
 1091TIP3   OH2 3236   4.625   3.568   3.822 -0.5614  0.1160 -0.2479
 1091TIP3    H1 3237   4.604   3.630   3.752  0.4504  0.8440  0.0651
 1091TIP3    H2 3238   4.691   3.613   3.874 -0.4459 -0.8905  0.5008
 1092TIP3   OH2 3239   2.496   6.269   2.601 -0.1952  0.3502  0.3995
 1092TIP3    H1 3240   2.431   6.263   2.672  0.7165  1.9621  1.4328
 1092TIP3    H2 3241   2.581   6.261   2.645  0.4476  2.5997 -0.2869
 1093TIP3   OH2 3242   1.610   2.109   4.622 -0.1599  0.3428 -0.1419
 1093TIP3    H1 3243   1.553   2.041   4.659 -0.1551 -0.6710 -1.8774
 1093TIP3    H2 3244   1.686   2.112   4.681 -1.6832  1.3191  1.8919
 1094TIP3   OH2 3245   2.447   3.211   5.814 -0.3459  0.1559  0.0171
 1094TIP3    H1 3246   2.455   3.223   5.909  2.2914 -1.3344  0.0747
 1094TIP3    H2 3247   2.516   3.265   5.776 -0.0601 -0.7984 -0.8850
 1095TIP3   OH2 3248   5.017   2.317   5.733  0.1186 -0.6745  0.6527
 1095TIP3    H1 3249   5.057   2.364   5.806 -0.6524  0.3321  0.4527
 1095TIP3    H2 3250   5.046   2.226   5.744 -0.8979 -0.8070  2.8777
 1096TIP3   OH2 3251   0.053   1.933   1.249 -0.2118 -0.3474  0.3129
 1096TIP3    H1 3252  -0.017   1.944   1.184  0.3631  1.0191 -0.1015
 1096TIP3    H2 3253   0.124   1.891   1.201 -0.4931 -1.1314  0.5683
 1097TIP3   OH2 3254   2.141   2.170   1.402  0.4860  0.5117  0.0278
 1097TIP3    H1 3255   2.093   2.245   1.438 -1.3287 -1.7771  2.8054
 1097TIP3    H2 3256   2.213   2.156   1.463 -0.1556 -0.9181  0.4969
 1098TIP3   OH2 3257   4.096   3.542   0.237 -0.4428  0.4012 -0.0336
 1098TIP3    H1 3258   4.119   3.605   0.168 -0.9664  0.6636  0.0257
 1098TIP3    H2 3259   4.036   3.481   0.195  0.9821 -0.8060 -0.4282
 1099TIP3   OH2 3260   4.842   4.630   4.720  0.0312  0.0171 -0.0426
 1099TIP3    H1 3261   4.802   4.687   4.785 -1.3495 -1.1797  0.2158
 1099TIP3    H2 3262   4.913   4.586   4.767  0.7883  1.1127 -0.1158
 1100TIP3   OH2 3263   0.572   2.938   2.153 -0.1449  0.3494 -0.3678
 1100TIP3    H1 3264   0.496   2.908   2.103  0.6318  0.9563 -2.0056
 1100TIP3    H2 3265   0.646   2.928   2.092  1.0363  0.1092  1.0515
 1101TIP3   OH2 3266   6.990   4.217   4.539 -0.6000  0.1701  0.0096
 1101TIP3    H1 3267   6.988   4.259   4.453  0.1182 -0.7610 -0.4796
 1101TIP3    H2 3268   6.901   4.230   4.574 -0.6081  1.4229 -0.4278
 1102TIP3   OH2 3269   6.991   6.112   4.591  0.2711 -0.5331  0.0716
 1102TIP3    H1 3270   7.046   6.127   4.515 -0.4819 -1.1044 -0.5993
 1102TIP3    H2 3271   6.924   6.181   4.586 -0.1475 -0.9463 -0.1443
 1103TIP3   OH2 3272   6.096   2.771   3.965 -0.9174 -0.1905 -0.0383
 1103TIP3    H1 3273   6.008   2.763   3.929 -0.5164  0.9842 -1.3518
 1103TIP3    H2 3274   6.154   2.772   3.889  0.1450  0.2660  0.7409
 1104TIP3   OH2 3275   3.128   2.010   3.300  0.1648 -0.0805 -0.8836
 1104TIP3    H1 3276   3.112   1.960   3.220  0.2463 -1.2773 -0.1626
 1104TIP3    H2 3277   3.214   1.982   3.330 -0.1517 -0.1506 -0.0029
 1105TIP3   OH2 3278   3.994   3.577   5.748  0.0569 -0.3807 -0.0191
 1105TIP3    H1 3279   3.993   3.656   5.803  0.0564 -0.9484  0.8146
 1105TIP3    H2 3280   4.084   3.546   5.752  0.2920  0.0961 -1.1344
 1106TIP3   OH2 3281   4.012   3.035   2.678 -0.3899  0.1448  0.8315
 1106TIP3    H1 3282   3.962   3.114   2.658  1.1160  0.8586 -0.3020
 1106TIP3    H2 3283   4.057   3.014   2.597  0.9951 -0.5871  1.7562
 1107TIP3   OH2 3284   1.725   1.754   0.515  0.3274  0.1790  0.1818
 1107TIP3    H1 3285   1.644   1.702   0.512 -0.3106  1.0072  1.6124
 1107TIP3    H2 3286   1.762   1.747   0.428 -1.4791  0.0542 -0.6174
 1108TIP3   OH2 3287   5.868   0.990   2.660 -0.6060 -0.2047  0.0867
 1108TIP3    H1 3288   5.899   0.938   2.586 -0.3321  0.3979 -0.2214
 1108TIP3    H2 3289   5.887   1.081   2.636 -0.4747 -0.0064  0.9092
 1109TIP3   OH2 3290   0.561   0.013   1.314 -0.4832  0.1570 -0.2253
 1109TIP3    H1 3291   0.616   0.077   1.268  2.4441 -0.4357  2.0947
 1109TIP3    H2 3292   0.541   0.055   1.398 -2.0066 -0.4409 -0.2579
 1110TIP3   OH2 3293   4.895   4.018   3.072 -0.6553 -0.6044  0.6190
 1110TIP3    H1 3294   4.822   4.042   3.015  1.5428 -0.7649 -2.5123
 1110TIP3    H2 3295   4.942   3.950   3.024  2.3110  0.4229  1.8344
 1111TIP3   OH2 3296   5.516   4.038   2.756  0.3752 -0.1444 -0.1270
 1111TIP3    H1 3297   5.497   3.970   2.692  1.2796  0.2388 -0.8303
 1111TIP3    H2 3298   5.431   4.060   2.793 -0.0697 -0.8847 -0.6746
 1112TIP3   OH2 3299   3.914   0.311   0.316 -0.0020  0.6824 -0.1337
 1112TIP3    H1 3300   3.909   0.278   0.406  0.3864 -0.4617 -0.5094
 1112TIP3    H2 3301   3.957   0.240   0.268 -0.2538  1.2671 -1.2315
 1113TIP3   OH2 3302   5.097   4.973   4.258  0.6493 -0.7186  0.4607
 1113TIP3    H1 3303   5.144   4.917   4.196  0.8082  0.5887 -0.6176
 1113TIP3    H2 3304   5.073   4.913   4.329 -1.4335 -2.7938 -1.7819
 1114TIP3   OH2 3305   3.767   5.011   1.322  0.2928  0.7608 -0.3180
 1114TIP3    H1 3306   3.835   4.966   1.272 -2.4032 -1.5334 -2.2865
 1114TIP3    H2 3307   3.752   5.092   1.274  0.7072  0.5960 -0.7373
 1115TIP3   OH2 3308   3.413   4.750   3.677 -0.6948 -0.1282 -0.0297
 1115TIP3    H1 3309   3.337   4.761   3.619  0.6495  0.7915 -1.6957
 1115TIP3    H2 3310   3.381   4.694   3.748 -3.0012  0.4541 -0.5306
 1116TIP3   OH2 3311   0.060   4.358   3.131  0.2130  0.2898 -0.1951
 1116TIP3    H1 3312   0.133   4.330   3.186 -0.5467 -0.1528  0.6040
 1116TIP3    H2 3313   0.051   4.288   3.065  1.2358  0.9060 -1.0262
 1117TIP3   OH2 3314   7.093   3.712   0.091  0.6076  0.1812 -0.1061
 1117TIP3    H1 3315   7.154   3.731   0.020  0.5102  2.4167  0.3356
 1117TIP3    H2 3316   7.020   3.772   0.077 -1.0607 -1.6995 -0.0191
 1118TIP3   OH2 3317   4.151   1.572   5.657 -0.3329 -0.2697 -0.0432
 1118TIP3    H1 3318   4.102   1.500   5.696 -0.9735  0.8318  1.2637
 1118TIP3    H2 3319   4.242   1.554   5.679 -0.5192 -0.5553  0.5231
 1119TIP3   OH2 3320   6.232   1.211   3.039 -0.0334 -0.1109  0.2055
 1119TIP3    H1 3321   6.277   1.236   2.958  0.7216 -0.4499  0.5177
 1119TIP3    H2 3322   6.227   1.292   3.089  0.4679 -0.1281  0.2839
 1120TIP3   OH2 3323   1.872   6.021   1.206  0.1414 -0.5880  0.1051
 1120TIP3    H1 3324   1.861   5.930   1.179  0.5502 -0.5033 -0.3758
 1120TIP3    H2 3325   1.801   6.036   1.269 -0.1128 -1.1477 -0.0348
 1121TIP3   OH2 3326   4.194   1.193   1.586 -0.6670  0.4301  0.0389
 1121TIP3    H1 3327   4.166   1.140   1.511  1.6642  0.1915 -0.7394
 1121TIP3    H2 3328   4.165   1.282   1.565  0.4002  0.4702 -1.4628
 1122TIP3   OH2 3329   1.492   1.678   5.246 -0.6385 -0.4416  0.6801
 1122TIP3    H1 3330   1.438   1.618   5.194 -0.7400  0.0214  0.2421
 1122TIP3    H2 3331   1.466   1.660   5.337  0.7693 -2.4726  0.7583
 1123TIP3   OH2 3332   1.571   2.205   2.790  0.0778 -0.6773  0.3879
 1123TIP3    H1 3333   1.557   2.156   2.871 -0.1349  1.6244  1.8420
 1123TIP3    H2 3334   1.586   2.295   2.819  0.1336  0.2079 -2.1488
 1124TIP3   OH2 3335   2.418   0.655   1.220  0.2103 -0.5664 -0.5498
 1124TIP3    H1 3336   2.339   0.645   1.273  2.1362 -0.4987  2.6580
 1124TIP3    H2 3337   2.418   0.747   1.192 -1.2476 -0.8061 -1.4221
 1125TIP3   OH2 3338   1.449   0.253   0.192  0.0637 -0.4497 -0.5715
 1125TIP3    H1 3339   1.429   0.276   0.283 -0.1063 -2.0102 -0.1858
 1125TIP3    H2 3340   1.367   0.270   0.145  0.3824  1.1145 -0.6123
 1126TIP3   OH2 3341   3.452   4.472   3.558 -0.0022 -0.0943 -1.0471
 1126TIP3    H1 3342   3.445   4.488   3.652 -0.5939 -2.6231 -0.5698
 1126TIP3    H2 3343   3.546   4.459   3.543 -0.0217 -0.8855 -0.5411
 1127TIP3   OH2 3344   2.105   1.752   2.127  0.0273  0.6125  0.3254
 1127TIP3    H1 3345   2.148   1.807   2.192 -1.1535  0.6446  1.1255
 1127TIP3    H2 3346   2.079   1.673   2.175 -3.3608  1.8017  0.7348
 1128TIP3   OH2 3347   4.188   4.108   0.708  0.0480 -0.1747  0.2238
 1128TIP3    H1 3348   4.171   4.195   0.672 -0.1368 -0.6194 -0.7907
 1128TIP3    H2 3349   4.111   4.057   0.683 -0.1561 -0.4732  1.3805
 1129TIP3   OH2 3350   3.376   4.623   2.716 -0.2981 -0.1038  0.2937
 1129TIP3    H1 3351   3.354   4.636   2.624 -0.0585  0.4396  0.3087
 1129TIP3    H2 3352   3.472   4.623   2.718 -0.2856  1.5281  0.7547
 1130TIP3   OH2 3353   2.866   1.607   1.543 -0.0991  0.5947 -0.5803
 1130TIP3    H1 3354   2.940   1.609   1.483 -0.6007 -0.7716 -1.3024
 1130TIP3    H2 3355   2.794   1.570   1.491 -0.9202  0.6755  0.4667
 1131TIP3   OH2 3356   4.418   1.341   4.216  0.0265  0.2243 -0.2181
 1131TIP3    H1 3357   4.361   1.349   4.293  1.0441 -1.6781  0.8033
 1131TIP3    H2 3358   4.449   1.430   4.200 -1.8829  1.0252  0.2194
 1132TIP3   OH2 3359   3.211   2.993   0.698 -0.6118  0.3340 -0.9820
 1132TIP3    H1 3360   3.232   3.067   0.755  1.1709 -0.6214 -0.3444
 1132TIP3    H2 3361   3.268   2.922   0.727 -2.1997 -1.3017 -1.6287
 1133TIP3   OH2 3362   2.486   2.289   1.356  0.6213 -0.0209 -0.0228
 1133TIP3    H1 3363   2.446   2.376   1.366 -0.5152  0.0457 -3.5553
 1133TIP3    H2 3364   2.535   2.275   1.437  1.5283  4.2681  0.4052
 1134TIP3   OH2 3365   2.760   0.240   3.463 -0.2738 -0.2866 -0.0902
 1134TIP3    H1 3366   2.678   0.274   3.499  0.3310 -1.0322  2.1351
 1134TIP3    H2 3367   2.772   0.288   3.381 -2.6799  0.1631 -0.2424
 1135TIP3   OH2 3368   5.895   5.870   0.060  0.1422 -0.3743  0.3114
 1135TIP3    H1 3369   5.916   5.903  -0.028  0.4271  1.0619  0.8897
 1135TIP3    H2 3370   5.980   5.844   0.096  0.0293 -0.9346  0.1795
 1136TIP3   OH2 3371   2.083   5.687   3.762  0.0337  0.1325 -0.0124
 1136TIP3    H1 3372   2.142   5.762   3.773  0.4919 -0.2113 -0.0945
 1136TIP3    H2 3373   2.000   5.726   3.734  0.0160  0.6838  0.7439
 1137TIP3   OH2 3374   4.585   2.420   0.242  0.0124 -0.3389 -0.3683
 1137TIP3    H1 3375   4.531   2.463   0.175  0.5848 -0.3911 -0.8740
 1137TIP3    H2 3376   4.635   2.492   0.281 -0.4562 -0.2837  0.1327
 1138TIP3   OH2 3377   3.443   0.181   3.727  0.3815  0.5427  0.1188
 1138TIP3    H1 3378   3.401   0.246   3.783 -1.2053 -0.0566 -0.3162
 1138TIP3    H2 3379   3.466   0.109   3.787 -0.9875  0.0554  0.0982
 1139TIP3   OH2 3380   0.419   3.974   0.307  0.5989  0.4910 -0.3981
 1139TIP3    H1 3381   0.457   3.952   0.222  1.2105  0.7927 -0.2106
 1139TIP3    H2 3382   0.358   3.903   0.325  1.9398 -0.6584 -0.1715
 1140TIP3   OH2 3383   0.643   2.895   3.258 -0.0624 -0.1169 -0.1656
 1140TIP3    H1 3384   0.726   2.909   3.212  0.8270 -3.8782 -0.0562
 1140TIP3    H2 3385   0.665   2.904   3.351 -0.3151  1.0287 -0.2097
 1141TIP3   OH2 3386   4.943   5.472   3.515 -0.6866 -0.1863  0.4158
 1141TIP3    H1 3387   4.861   5.433   3.547 -2.4981  1.8242 -1.4740
 1141TIP3    H2 3388   4.919   5.514   3.432  2.2092  0.8020 -0.0317
 1142TIP3   OH2 3389   2.531   2.783   0.396 -0.2418 -0.0295  0.0215
 1142TIP3    H1 3390   2.507   2.862   0.444 -2.6216  0.4502 -1.7622
 1142TIP3    H2 3391   2.512   2.711   0.456 -0.4370  0.6532  0.7919
 1143TIP3   OH2 3392   3.251   0.581   1.568  0.2518  0.3563  0.0375
 1143TIP3    H1 3393   3.235   0.668   1.530  1.2879  0.5891  0.1104
 1143TIP3    H2 3394   3.305   0.597   1.645 -1.6661 -0.1331  1.5737
 1144TIP3   OH2 3395   0.858   4.099   5.553 -0.0772 -0.2407  0.2945
 1144TIP3    H1 3396   0.781   4.156   5.548 -0.0755 -0.2925 -0.4772
 1144TIP3    H2 3397   0.824   4.012   5.534 -0.3065 -0.7557  2.6846
 1145TIP3   OH2 3398   2.248   2.889   5.101 -0.1780 -0.0786 -0.0665
 1145TIP3    H1 3399   2.213   2.930   5.022  1.2653  0.8443 -0.2653
 1145TIP3    H2 3400   2.342   2.902   5.095 -0.1263  1.7878  2.7426
 1146TIP3   OH2 3401   0.077   3.862   3.424 -0.4395  0.1840 -0.2271
 1146TIP3    H1 3402   0.036   3.804   3.359 -3.9518  2.0150  0.1143
 1146TIP3    H2 3403   0.008   3.877   3.489  1.9759  0.8150  2.3891
 1147TIP3   OH2 3404   6.529   5.764   4.974 -0.3840  0.0045  0.0937
 1147TIP3    H1 3405   6.616   5.726   4.961  0.5096  2.0935 -0.3489
 1147TIP3    H2 3406   6.486   5.704   5.035  0.1745 -2.8000 -2.0553
 1148TIP3   OH2 3407   3.807   3.675   2.765  0.1897  0.7165  0.4070
 1148TIP3    H1 3408   3.761   3.634   2.691 -0.4088  0.1964  1.0629
 1148TIP3    H2 3409   3.741   3.683   2.833  0.9970  0.2271  1.2600
 1149TIP3   OH2 3410   3.777   3.942   4.530 -0.3591  0.1381 -0.0384
 1149TIP3    H1 3411   3.803   3.973   4.617 -0.3389 -0.4490  0.1712
 1149TIP3    H2 3412   3.831   3.865   4.515  0.8755  1.2064 -1.3249
 1150TIP3   OH2 3413   2.399   4.773   2.692 -0.0805 -0.5372 -0.2572
 1150TIP3    H1 3414   2.348   4.832   2.637  1.3332 -0.3758 -1.4547
 1150TIP3    H2 3415   2.436   4.830   2.760  1.2410  0.0146 -1.3820
 1151TIP3   OH2 3416   6.904   4.119   3.836 -0.2235 -0.5652  0.4661
 1151TIP3    H1 3417   6.830   4.162   3.880 -1.3468 -1.9132 -0.0198
 1151TIP3    H2 3418   6.969   4.188   3.826 -0.8540  0.3549  2.1404
 1152TIP3   OH2 3419   7.185   4.255   2.467  0.4203 -0.0018  0.2100
 1152TIP3    H1 3420   7.189   4.300   2.383  0.2173  0.9228  0.6870
 1152TIP3    H2 3421   7.138   4.173   2.448  1.1532 -0.2281 -0.7438
 1153TIP3   OH2 3422   5.521   5.126   3.620  0.1818  0.0363  0.4247
 1153TIP3    H1 3423   5.510   5.056   3.554  0.7356  0.6505 -0.3436
 1153TIP3    H2 3424   5.585   5.090   3.682  0.1766 -0.2887  0.2450
 1154TIP3   OH2 3425   1.563   2.646   0.311 -0.6176  0.0089 -0.1653
 1154TIP3    H1 3426   1.527   2.584   0.247 -0.5585  0.5275 -0.7124
 1154TIP3    H2 3427   1.645   2.675   0.272  0.5283 -1.3153  1.1650
 1155TIP3   OH2 3428   2.758   3.398   0.283  0.4769  0.3131 -0.2517
 1155TIP3    H1 3429   2.800   3.469   0.331 -0.9394  0.6533  0.5245
 1155TIP3    H2 3430   2.709   3.349   0.349 -1.3520  0.6612 -1.2712
 1156TIP3   OH2 3431   3.621   6.209   3.955  0.2908  0.0432 -0.2026
 1156TIP3    H1 3432   3.550   6.208   3.891 -0.6597 -1.8206  0.7780
 1156TIP3    H2 3433   3.600   6.136   4.013  3.3533 -0.9839 -0.2425
 1157TIP3   OH2 3434   6.946   4.633   5.834  0.3214  0.2742 -0.7127
 1157TIP3    H1 3435   6.926   4.569   5.766  1.1709 -0.3862 -0.3652
 1157TIP3    H2 3436   7.041   4.646   5.827  0.4529  0.0682  0.4424
 1158TIP3   OH2 3437   0.992   4.775   3.116 -0.3240  0.3771  0.0777
 1158TIP3    H1 3438   1.021   4.696   3.069 -0.7723  0.5929 -0.5733
 1158TIP3    H2 3439   1.074   4.813   3.149  0.0504  0.4050 -0.8315
 1159TIP3   OH2 3440   1.936   2.067   2.646  0.5408 -0.1809 -0.0626
 1159TIP3    H1 3441   2.022   2.066   2.687  0.4827  4.2846  0.7301
 1159TIP3    H2 3442   1.875   2.044   2.717  0.8801  0.7619  0.5564
 1160TIP3   OH2 3443   3.357   3.812   1.911  0.6444  0.1570  0.0785
 1160TIP3    H1 3444   3.262   3.802   1.917  0.7742 -0.9367  0.7538
 1160TIP3    H2 3445   3.375   3.898   1.950 -0.0165  0.0546  0.6354
 1161TIP3   OH2 3446   5.349   0.908   2.219 -0.3051 -0.2807 -0.7433
 1161TIP3    H1 3447   5.322   0.999   2.207  1.0951  0.2279 -0.2374
 1161TIP3    H2 3448   5.440   0.906   2.189  0.8935 -0.6616  2.5205
 1162TIP3   OH2 3449   3.116   2.141   1.722  0.3772  0.1772 -0.3514
 1162TIP3    H1 3450   3.128   2.215   1.781  1.1881 -0.9808  1.0053
 1162TIP3    H2 3451   3.172   2.072   1.758  0.6197 -0.7053 -2.2832
 1163TIP3   OH2 3452   1.322   1.581   1.113  0.6273  0.1964  0.3299
 1163TIP3    H1 3453   1.398   1.523   1.098  0.1449 -0.1173 -1.0316
 1163TIP3    H2 3454   1.356   1.650   1.169  1.6460 -0.5272  0.6449
 1164TIP3   OH2 3455   0.272   3.810   3.666 -0.6814 -0.2048 -0.0237
 1164TIP3    H1 3456   0.248   3.808   3.574 -0.8582 -1.7546  0.0451
 1164TIP3    H2 3457   0.293   3.720   3.689 -1.7983 -0.0724  1.7653
 1165TIP3   OH2 3458   5.493   4.026   2.384  0.2033  0.1024 -0.5451
 1165TIP3    H1 3459   5.434   4.027   2.458  0.8552  1.3016 -0.0058
 1165TIP3    H2 3460   5.472   3.946   2.337 -0.1575 -0.7269  0.9807
 1166TIP3   OH2 3461   4.214   2.646   4.807  0.0646  0.2157 -0.0822
 1166TIP3    H1 3462   4.175   2.607   4.729 -0.3964  0.5851 -0.0368
 1166TIP3    H2 3463   4.308   2.648   4.789  0.0352 -0.3937 -0.3166
 1167TIP3   OH2 3464   0.176   0.631   4.697  0.1832  0.2070  0.1295
 1167TIP3    H1 3465   0.267   0.659   4.697 -0.0180  0.8965  0.7162
 1167TIP3    H2 3466   0.175   0.551   4.644  1.0359  0.4699 -0.2967
 1168TIP3   OH2 3467   6.329   1.434   0.075 -0.4538  0.2029 -1.0250
 1168TIP3    H1 3468   6.369   1.519   0.092  0.4589 -0.3755 -0.1618
 1168TIP3    H2 3469   6.401   1.371   0.086 -1.5057 -0.8364  0.2529
 1169TIP3   OH2 3470   5.200   4.774   4.790 -0.2601 -0.0858  0.2508
 1169TIP3    H1 3471   5.277   4.719   4.778  0.3450  0.9226 -0.7421
 1169TIP3    H2 3472   5.128   4.713   4.807  0.8911 -0.9973  2.0506
 1170TIP3   OH2 3473   5.237   5.649   3.912  0.8449 -0.5523  0.6223
 1170TIP3    H1 3474   5.148   5.684   3.912  0.6577 -0.9568 -0.9060
 1170TIP3    H2 3475   5.251   5.618   3.822  2.1694 -1.4181  1.0952
 1171TIP3   OH2 3476   0.878   6.462   3.342  0.2448  0.4235  0.0228
 1171TIP3    H1 3477   0.968   6.455   3.312  0.3325  0.4545  0.2746
 1171TIP3    H2 3478   0.882   6.521   3.418  0.5511 -2.1644  2.1899
 1172TIP3   OH2 3479   0.842   6.287   3.524  0.1231 -0.0561  0.5526
 1172TIP3    H1 3480   0.775   6.329   3.579 -0.1354 -0.6685  0.7111
 1172TIP3    H2 3481   0.839   6.337   3.442 -2.1121 -1.4071 -0.2939
 1173TIP3   OH2 3482   6.892   5.349   2.984 -0.7662 -0.4906 -0.1322
 1173TIP3    H1 3483   6.906   5.421   2.922  1.6021 -0.8974 -0.1598
 1173TIP3    H2 3484   6.971   5.295   2.976 -1.0092 -1.3001  2.2323
 1174TIP3   OH2 3485   2.468   2.009   4.850 -0.6766 -0.4424 -0.0793
 1174TIP3    H1 3486   2.383   1.970   4.869 -0.5133 -0.6926  0.1533
 1174TIP3    H2 3487   2.483   1.990   4.758 -0.0662 -2.0037  0.3054
 1175TIP3   OH2 3488   2.443   2.953   2.880  0.5015 -0.6840 -0.6233
 1175TIP3    H1 3489   2.466   3.021   2.943 -0.4550 -0.6426 -0.3041
 1175TIP3    H2 3490   2.476   2.986   2.796 -1.2573  0.9212 -0.7511
 1176TIP3   OH2 3491   6.011   3.554   4.200  0.1176 -0.2809  0.7833
 1176TIP3    H1 3492   5.980   3.463   4.198  2.0786 -1.0205  1.6136
 1176TIP3    H2 3493   5.977   3.589   4.282  1.6944 -1.2121  1.8890
 1177TIP3   OH2 3494   2.514   3.217   5.064  0.3976 -0.1152 -0.2514
 1177TIP3    H1 3495   2.543   3.209   4.974 -0.4965  1.3618 -0.7005
 1177TIP3    H2 3496   2.485   3.129   5.088 -0.2999 -0.3269 -1.7561
 1178TIP3   OH2 3497   6.862   3.489   2.428  0.5790  0.1141  0.4272
 1178TIP3    H1 3498   6.901   3.401   2.423  0.7712  0.1519  1.1405
 1178TIP3    H2 3499   6.929   3.547   2.392  0.9207  0.0950  1.0103
 1179TIP3   OH2 3500   4.703   1.019   4.765 -0.0562  0.0727 -0.0821
 1179TIP3    H1 3501   4.652   0.953   4.717  1.5137 -0.0813 -1.6681
 1179TIP3    H2 3502   4.761   0.968   4.821  0.6592  0.0856 -0.7826
 1180TIP3   OH2 3503   4.177   3.054   4.976  0.4170  0.2589 -0.7798
 1180TIP3    H1 3504   4.255   3.000   4.989  0.0446 -0.1572 -0.1958
 1180TIP3    H2 3505   4.105   2.991   4.968 -0.4101  0.6194  2.3661
 1181TIP3   OH2 3506   3.239   0.555   3.238 -0.3568  0.4448 -0.1827
 1181TIP3    H1 3507   3.252   0.462   3.258  0.6220  0.9424  1.7924
 1181TIP3    H2 3508   3.213   0.593   3.322 -0.5873  1.9751 -0.9338
 1182TIP3   OH2 3509   4.459   1.946   4.981  0.0102  0.0811  0.0201
 1182TIP3    H1 3510   4.492   1.966   5.068  0.8268 -1.4640  0.0910
 1182TIP3    H2 3511   4.524   1.887   4.943 -1.4591 -1.0985 -0.7662
 1183TIP3   OH2 3512   4.400   5.419   5.365 -0.4886  0.3296  0.4345
 1183TIP3    H1 3513   4.489   5.405   5.332 -0.3339 -0.3375  1.1167
 1183TIP3    H2 3514   4.360   5.332   5.363 -1.3638  0.7356 -0.5090
 1184TIP3   OH2 3515   6.889   6.769   5.540  0.3210  0.1031 -0.6390
 1184TIP3    H1 3516   6.884   6.760   5.445  1.0933 -0.1053 -0.6627
 1184TIP3    H2 3517   6.825   6.837   5.561  0.4322  0.4277 -1.3451
 1185TIP3   OH2 3518   1.647   3.479   3.223 -0.3300 -0.1288  0.2726
 1185TIP3    H1 3519   1.578   3.413   3.218 -0.5566  0.1859 -1.3294
 1185TIP3    H2 3520   1.605   3.554   3.264 -0.1313 -0.8699  1.9040
 1186TIP3   OH2 3521   7.092   0.347   1.205 -0.6181  0.1708  0.2529
 1186TIP3    H1 3522   7.041   0.268   1.219  0.0361 -0.6681 -1.7113
 1186TIP3    H2 3523   7.039   0.401   1.147 -0.5837  0.7029  0.6994
 1187TIP3   OH2 3524   7.058   5.574   1.111  0.1398 -0.3554 -0.0902
 1187TIP3    H1 3525   7.060   5.512   1.184 -0.4951 -1.7092 -1.1588
 1187TIP3    H2 3526   7.007   5.648   1.143  1.5081 -0.0158  1.4624
 1188TIP3   OH2 3527   5.136   1.270   4.468  0.0007  0.1546 -0.3492
 1188TIP3    H1 3528   5.106   1.180   4.457  0.5138 -0.1395  0.5129
 1188TIP3    H2 3529   5.076   1.308   4.532 -0.1619  0.3979 -0.6463
 1189TIP3   OH2 3530   0.953   2.770   1.942  0.2093  0.3429 -0.3035
 1189TIP3    H1 3531   1.028   2.710   1.945 -0.2787 -0.2984 -0.5866
 1189TIP3    H2 3532   0.945   2.794   1.849  0.7043  1.2559 -0.1256
 1190TIP3   OH2 3533   6.779   0.485   1.661  0.1208 -0.1925 -0.0384
 1190TIP3    H1 3534   6.768   0.473   1.755  0.1152  0.4196  0.0428
 1190TIP3    H2 3535   6.819   0.571   1.652 -1.7296  0.6448 -0.6979
 1191TIP3   OH2 3536   0.242   1.950   4.114 -0.7273  0.2810  0.1922
 1191TIP3    H1 3537   0.288   1.927   4.033  0.3995 -2.1284  1.4309
 1191TIP3    H2 3538   0.275   2.036   4.137  2.6373 -0.9701  0.5435
 1192TIP3   OH2 3539   5.469   5.384   3.179 -0.5055 -0.1881  0.1681
 1192TIP3    H1 3540   5.396   5.326   3.156 -0.6536 -0.0742  0.3504
 1192TIP3    H2 3541   5.476   5.377   3.275  1.4223 -2.2621 -0.0122
 1193TIP3   OH2 3542   5.195   3.529   2.118  0.2415  0.2081  1.0203
 1193TIP3    H1 3543   5.114   3.478   2.111  0.7489 -0.7748  2.0636
 1193TIP3    H2 3544   5.216   3.528   2.211  1.7444 -0.0143  0.6924
 1194TIP3   OH2 3545   7.059   4.015   2.390 -0.0949  0.5205  0.2132
 1194TIP3    H1 3546   7.050   3.980   2.479  0.4912 -0.6652 -0.1793
 1194TIP3    H2 3547   7.002   3.960   2.336  0.9750  0.0106 -0.4383
 1195TIP3   OH2 3548   1.225   2.967   3.158 -0.4635  0.5659  0.0209
 1195TIP3    H1 3549   1.270   2.939   3.238  0.2085  0.6311 -0.3255
 1195TIP3    H2 3550   1.176   3.045   3.184 -0.3206  0.5347  0.3895
 1196TIP3   OH2 3551   2.432   2.163   5.576  0.2409  0.1456 -0.1904
 1196TIP3    H1 3552   2.426   2.103   5.650  1.7779  1.1991  0.8415
 1196TIP3    H2 3553   2.344   2.200   5.567 -0.6298 -1.8833 -0.5852
 1197TIP3   OH2 3554   0.234   0.104   5.014  0.1158 -0.0360  0.3786
 1197TIP3    H1 3555   0.259   0.099   4.921  0.9031 -0.7512  0.6178
 1197TIP3    H2 3556   0.274   0.027   5.054  1.0255  1.0089  1.5857
 1198TIP3   OH2 3557   1.463   4.722   2.874 -0.0959  0.1103 -0.1101
 1198TIP3    H1 3558   1.369   4.714   2.856 -0.5193 -1.1024  2.2852
 1198TIP3    H2 3559   1.503   4.654   2.819 -0.8253 -0.5433  0.1424
 1199TIP3   OH2 3560   3.575   1.859   4.993  0.1303  0.2805  0.0518
 1199TIP3    H1 3561   3.639   1.890   5.057 -1.0109  2.2578  0.3353
 1199TIP3    H2 3562   3.558   1.768   5.018  1.4906  0.2691  1.0475
 1200TIP3   OH2 3563   6.569   1.458   1.643  0.6084 -0.5424 -0.2849
 1200TIP3    H1 3564   6.540   1.545   1.669  0.5463 -0.8671  0.7840
 1200TIP3    H2 3565   6.602   1.469   1.554 -1.5529  0.0999 -1.0498
 1201TIP3   OH2 3566   3.322   1.389   5.082  0.2604  0.1623 -0.1695
 1201TIP3    H1 3567   3.269   1.466   5.061 -0.0398 -0.0883 -0.3409
 1201TIP3    H2 3568   3.278   1.348   5.156  1.6886  1.4110  1.4399
 1202TIP3   OH2 3569   6.980   2.272   5.643 -0.1487 -0.3168 -0.3599
 1202TIP3    H1 3570   7.008   2.194   5.596 -1.6248 -0.5604 -0.8990
 1202TIP3    H2 3571   7.031   2.344   5.605  1.7299 -1.0685  0.6199
 1203TIP3   OH2 3572   1.836   2.738   5.412  0.2737  0.2667 -0.1141
 1203TIP3    H1 3573   1.804   2.688   5.337  0.2552  0.5556 -0.3002
 1203TIP3    H2 3574   1.777   2.813   5.417 -0.2071 -0.1347  0.6550
 1204TIP3   OH2 3575   3.761   1.893   1.972 -0.1416 -0.5282 -0.7427
 1204TIP3    H1 3576   3.792   1.980   1.946 -2.3751  0.4147 -0.4603
 1204TIP3    H2 3577   3.777   1.838   1.896  1.4587  0.0570 -0.8715
 1205TIP3   OH2 3578   6.213   5.860   0.867 -0.0767 -0.2814  0.0796
 1205TIP3    H1 3579   6.131   5.908   0.873  0.3889  0.7864 -1.5787
 1205TIP3    H2 3580   6.188   5.768   0.877 -1.4231  0.0486 -0.0999
 1206TIP3   OH2 3581   3.786   6.479   0.783 -1.2148  0.1610  0.5733
 1206TIP3    H1 3582   3.877   6.467   0.756 -0.9476 -1.7671  2.0917
 1206TIP3    H2 3583   3.791   6.490   0.878 -2.5957 -0.3604  0.7233
 1207TIP3   OH2 3584   5.829   6.409   1.889 -0.1944  0.7470  0.6180
 1207TIP3    H1 3585   5.824   6.324   1.933 -1.1795  1.2818  1.5723
 1207TIP3    H2 3586   5.921   6.417   1.863 -0.5223 -1.7061 -1.7423
 1208TIP3   OH2 3587   2.369   1.895   1.439 -0.1523 -0.1640  0.4549
 1208TIP3    H1 3588   2.323   1.957   1.496 -1.9346 -1.3641  0.3784
 1208TIP3    H2 3589   2.333   1.809   1.462  1.1819 -1.0192 -0.4861
 1209TIP3   OH2 3590   3.454   4.999   3.844 -0.1192 -0.5936  0.0851
 1209TIP3    H1 3591   3.513   4.936   3.803  0.3035 -0.1917  0.0727
 1209TIP3    H2 3592   3.407   4.948   3.910 -0.1163 -1.0251 -0.2344
 1210TIP3   OH2 3593   5.937   4.594   3.906 -0.5184  1.0467 -0.5751
 1210TIP3    H1 3594   5.844   4.583   3.887 -0.5595  0.5615 -0.0949
 1210TIP3    H2 3595   5.940   4.609   4.000 -0.2322  2.4868 -0.7924
 1211TIP3   OH2 3596   2.561   5.918   4.703 -0.0352 -0.1738  0.2092
 1211TIP3    H1 3597   2.529   5.987   4.761 -1.3397 -0.5817  0.0114
 1211TIP3    H2 3598   2.574   5.960   4.618 -0.2331 -0.0477  0.2433
 1212TIP3   OH2 3599   2.023   5.940   2.844 -0.0526  0.0510  0.0378
 1212TIP3    H1 3600   2.037   6.034   2.858  2.4433 -0.4672  1.5492
 1212TIP3    H2 3601   2.033   5.928   2.749 -0.0005  1.2375 -0.1180
 1213TIP3   OH2 3602   3.448   3.429   2.064 -0.5998  0.1577  0.1743
 1213TIP3    H1 3603   3.357   3.447   2.040  0.2176  1.1247 -2.6826
 1213TIP3    H2 3604   3.483   3.378   1.991  1.1330 -0.3226  1.2608
 1214TIP3   OH2 3605   4.156   4.725   2.023  0.1040 -0.1252 -0.6152
 1214TIP3    H1 3606   4.229   4.769   1.980  0.8213 -0.0861  0.5956
 1214TIP3    H2 3607   4.190   4.699   2.108 -1.5547  0.7806  0.4020
 1215TIP3   OH2 3608   6.361   0.704   1.957  0.0808  0.1098  0.0350
 1215TIP3    H1 3609   6.401   0.704   2.044  0.0398 -0.3521  0.0578
 1215TIP3    H2 3610   6.276   0.662   1.970  0.8933 -1.8597 -0.5734
 1216TIP3   OH2 3611   1.250   4.831   3.188  0.4372  0.8233 -0.2964
 1216TIP3    H1 3612   1.267   4.890   3.262  0.0536  0.1422  0.3532
 1216TIP3    H2 3613   1.334   4.788   3.171  1.0202  2.3292 -1.5091
 1217TIP3   OH2 3614   0.842   3.292   5.721 -0.8295 -0.2250 -0.1891
 1217TIP3    H1 3615   0.884   3.214   5.757  0.4329  0.4249 -0.1746
 1217TIP3    H2 3616   0.801   3.263   5.640 -1.2877 -1.1116  0.3443
 1218TIP3   OH2 3617   1.417   2.662   5.714  0.0161  0.3975 -0.0076
 1218TIP3    H1 3618   1.338   2.616   5.683 -0.3216  1.4960 -0.8290
 1218TIP3    H2 3619   1.385   2.722   5.781  0.4001 -0.2745  0.7900
 1219TIP3   OH2 3620   6.923   1.120   2.058 -0.5782 -0.5957 -0.2969
 1219TIP3    H1 3621   6.973   1.182   2.004 -1.6708  0.0744 -0.5674
 1219TIP3    H2 3622   6.981   1.045   2.068  0.3069 -0.0242 -0.9736
 1220TIP3   OH2 3623   6.736   2.355   3.060  0.0990 -0.5636 -0.2310
 1220TIP3    H1 3624   6.820   2.397   3.080  0.3405 -1.3677  0.5251
 1220TIP3    H2 3625   6.699   2.408   2.990  0.4505  0.8063  0.5825
 1221TIP3   OH2 3626   3.828   6.659   2.097 -0.4533 -0.1403  0.8663
 1221TIP3    H1 3627   3.884   6.584   2.117  0.1485  0.6077  2.1179
 1221TIP3    H2 3628   3.816   6.655   2.002  2.7197  0.3248  0.3335
 1222TIP3   OH2 3629   3.014   5.006   1.811  0.4053 -0.5010 -0.2074
 1222TIP3    H1 3630   3.084   5.041   1.755 -0.3949  0.8367 -0.4384
 1222TIP3    H2 3631   2.947   5.076   1.811  1.1193  0.4330  3.8807
 1223TIP3   OH2 3632   1.609   4.784   5.682  0.4279  0.5851 -0.0408
 1223TIP3    H1 3633   1.615   4.734   5.763 -0.0046 -1.4696 -1.1975
 1223TIP3    H2 3634   1.555   4.860   5.703  0.6367  0.2872  1.6642
 1224TIP3   OH2 3635   3.123   4.957   3.740 -0.4651  0.1302 -0.5617
 1224TIP3    H1 3636   3.178   5.009   3.682 -0.5070 -0.6466 -1.3110
 1224TIP3    H2 3637   3.036   4.996   3.731 -0.8626 -1.0561 -2.4120
 1225TIP3   OH2 3638   4.077   5.546   1.889 -0.2299 -0.4104  0.0621
 1225TIP3    H1 3639   4.113   5.539   1.977  2.6920  0.3954 -0.9315
 1225TIP3    H2 3640   4.074   5.641   1.872 -0.4208 -0.5624 -0.8059
 1226TIP3   OH2 3641   5.191   6.364   2.797  0.3732  0.0164 -0.0353
 1226TIP3    H1 3642   5.264   6.423   2.813 -0.1294  1.4445 -2.4047
 1226TIP3    H2 3643   5.226   6.297   2.739  0.2834 -0.4857  0.4824
 1227TIP3   OH2 3644   0.948   0.655   4.838  0.5303  0.1182  0.1819
 1227TIP3    H1 3645   0.959   0.747   4.814  1.9771 -0.0362  0.1480
 1227TIP3    H2 3646   0.869   0.653   4.890 -0.7001  1.0461 -1.5498
 1228TIP3   OH2 3647   1.107   3.761   2.504  0.4620 -0.0671 -0.3916
 1228TIP3    H1 3648   1.097   3.833   2.567  0.8737 -0.1648 -0.2127
 1228TIP3    H2 3649   1.029   3.707   2.518  0.1581  0.3288 -0.5118
 1229TIP3   OH2 3650   1.062   2.053   2.201  0.5254 -0.4976 -0.6769
 1229TIP3    H1 3651   1.132   2.107   2.239 -0.5729  0.5752 -0.1014
 1229TIP3    H2 3652   1.009   2.027   2.276 -0.3074 -0.3881 -1.2142
 1230TIP3   OH2 3653   4.633   3.923   5.661 -0.2407  0.6518  0.2393
 1230TIP3    H1 3654   4.572   3.934   5.588 -0.3144  1.3131  0.3892
 1230TIP3    H2 3655   4.605   3.987   5.726 -0.2364 -0.0035  0.8997
 1231TIP3   OH2 3656   3.939   2.857   3.970 -0.5850 -0.3767 -0.9789
 1231TIP3    H1 3657   3.949   2.819   3.883  0.1783  0.4984 -1.2901
 1231TIP3    H2 3658   3.926   2.950   3.954  0.1461 -0.1154 -0.1356
 1232TIP3   OH2 3659   4.681   3.500   1.824  0.2132 -0.0425 -0.7741
 1232TIP3    H1 3660   4.599   3.482   1.778  0.0962 -1.1212 -0.1816
 1232TIP3    H2 3661   4.696   3.422   1.877 -0.2026  1.5731  1.8532
 1233TIP3   OH2 3662   5.675   0.155   2.941  0.7850 -0.2784  0.1135
 1233TIP3    H1 3663   5.652   0.130   3.030  0.4684  1.3403  0.5029
 1233TIP3    H2 3664   5.592   0.183   2.902  1.3065  1.3546  0.1129
 1234TIP3   OH2 3665   0.209   3.171   0.775 -0.1884 -0.3519 -0.4113
 1234TIP3    H1 3666   0.231   3.086   0.737  0.2365  0.0545 -1.0861
 1234TIP3    H2 3667   0.291   3.201   0.815 -0.1008  0.1316 -0.9367
 1235TIP3   OH2 3668   4.356   0.699   2.344  0.3770  0.6559 -0.3312
 1235TIP3    H1 3669   4.383   0.790   2.357 -0.9938  0.7962  2.3511
 1235TIP3    H2 3670   4.322   0.672   2.430  0.1306 -2.1886 -1.2192
 1236TIP3   OH2 3671   1.497   4.064   0.615  0.1456  0.6178  0.0483
 1236TIP3    H1 3672   1.475   4.141   0.667  0.8510  1.3937 -0.7703
 1236TIP3    H2 3673   1.591   4.070   0.601  0.3461 -0.8098  0.5950
 1237TIP3   OH2 3674   5.650   6.047   4.871 -0.1102  0.5348 -0.4878
 1237TIP3    H1 3675   5.684   6.007   4.791  0.7892 -0.5497  0.4123
 1237TIP3    H2 3676   5.656   6.141   4.855  2.7015  0.4038 -0.6672
 1238TIP3   OH2 3677   0.489   2.617   3.425 -0.2202  0.0025  0.1918
 1238TIP3    H1 3678   0.556   2.614   3.358 -0.1258  1.0903  0.2274
 1238TIP3    H2 3679   0.533   2.652   3.502 -0.7525  0.4383  0.3054
 1239TIP3   OH2 3680   5.084   4.371   0.058 -0.4009 -0.5461 -0.4073
 1239TIP3    H1 3681   5.040   4.367  -0.028 -1.7883  0.9636  0.1664
 1239TIP3    H2 3682   5.043   4.302   0.109 -1.3040  0.0904 -0.2466
 1240TIP3   OH2 3683   1.938   1.796   5.148 -0.0449  0.5755 -0.3331
 1240TIP3    H1 3684   1.875   1.725   5.150  0.3230  0.2670  1.0659
 1240TIP3    H2 3685   1.887   1.873   5.121 -0.6380 -0.0045 -0.9123
 1241TIP3   OH2 3686   4.539   1.212   2.299  1.0046 -0.3237 -0.2308
 1241TIP3    H1 3687   4.458   1.262   2.310 -0.1064 -1.5957 -2.0280
 1241TIP3    H2 3688   4.604   1.278   2.274  0.1694  0.5388 -0.2026
 1242TIP3   OH2 3689   3.723   5.770   2.889 -0.4747 -0.1899  0.4105
 1242TIP3    H1 3690   3.774   5.815   2.822 -0.9280  0.2717  0.3711
 1242TIP3    H2 3691   3.683   5.696   2.843 -0.3899 -0.1569  0.2836
 1243TIP3   OH2 3692   5.646   2.910   3.278  0.0672  0.0551  0.8632
 1243TIP3    H1 3693   5.656   2.962   3.199 -1.4162  1.6793  1.6762
 1243TIP3    H2 3694   5.719   2.937   3.334  0.7848 -0.6720  0.2906
 1244TIP3   OH2 3695   4.422   1.239   1.714 -0.5636 -0.1351 -0.0183
 1244TIP3    H1 3696   4.338   1.234   1.669 -1.0404  1.5727  0.5997
 1244TIP3    H2 3697   4.411   1.185   1.792 -0.5901 -1.0585 -0.6509
 1245TIP3   OH2 3698   1.031   2.064   1.474  0.5430 -0.1095  0.4963
 1245TIP3    H1 3699   1.085   2.008   1.530 -0.5832  0.0768  1.8185
 1245TIP3    H2 3700   0.957   2.009   1.450 -0.1049  0.5093  1.0463
 1246TIP3   OH2 3701   0.356   4.444   3.031 -0.7288  0.4948  0.0601
 1246TIP3    H1 3702   0.415   4.492   3.088 -0.6494 -0.2838  0.6506
 1246TIP3    H2 3703   0.274   4.438   3.080 -0.4383 -0.8062  0.4251
 1247TIP3   OH2 3704   2.032   3.886   3.820 -0.6926 -0.6456  0.4843
 1247TIP3    H1 3705   2.064   3.796   3.822  0.1935 -0.5168 -2.4849
 1247TIP3    H2 3706   1.948   3.881   3.775 -0.7956 -0.0217  0.5960
 1248TIP3   OH2 3707   1.141   5.219   1.224 -0.2498  0.0344 -0.1009
 1248TIP3    H1 3708   1.134   5.313   1.207 -0.0234  0.2177  0.7908
 1248TIP3    H2 3709   1.234   5.204   1.239 -0.2943 -0.3238 -0.1734
 1249TIP3   OH2 3710   7.195   0.398   5.553  0.3236 -0.9751  0.1861
 1249TIP3    H1 3711   7.165   0.435   5.470 -0.2584 -0.4200  0.6300
 1249TIP3    H2 3712   7.118   0.401   5.610  0.0822 -3.4028  0.0955
 1250TIP3   OH2 3713   2.662   2.079   2.658 -0.6760 -0.1397 -0.5646
 1250TIP3    H1 3714   2.637   2.158   2.610 -0.5083  1.2081  1.4750
 1250TIP3    H2 3715   2.596   2.014   2.632 -2.7894  1.6010  0.1629
 1251TIP3   OH2 3716   4.805   4.543   3.530 -0.1341  0.3001 -0.1811
 1251TIP3    H1 3717   4.710   4.544   3.514 -1.0415 -2.8953  3.4402
 1251TIP3    H2 3718   4.819   4.614   3.592  0.2643  1.8486 -1.9595
 1252TIP3   OH2 3719   1.349   6.353   5.593 -0.2583 -0.0278  0.6590
 1252TIP3    H1 3720   1.344   6.379   5.685 -0.2648  0.6294  0.4721
 1252TIP3    H2 3721   1.400   6.421   5.551  1.1308 -1.1375  0.4680
 1253TIP3   OH2 3722   1.597   0.963   1.655  0.2954 -0.7043  0.3352
 1253TIP3    H1 3723   1.604   0.919   1.740 -1.1824 -2.0936 -0.1898
 1253TIP3    H2 3724   1.513   1.009   1.659  0.8162  0.2861  0.0751
 1254TIP3   OH2 3725   4.564   1.023   1.428  0.1145 -0.1984 -0.3446
 1254TIP3    H1 3726   4.481   1.005   1.383  0.7188 -2.6331 -0.6496
 1254TIP3    H2 3727   4.616   1.072   1.364 -1.5480  2.7948  0.4022
 1255TIP3   OH2 3728   6.465   1.670   4.068 -0.2896  0.3988  0.4648
 1255TIP3    H1 3729   6.539   1.729   4.053  1.1450 -1.6170 -0.9153
 1255TIP3    H2 3730   6.486   1.625   4.150 -1.4096  1.7437  1.5460
 1256TIP3   OH2 3731   0.728   3.454   2.284 -0.3521 -0.7545  0.3168
 1256TIP3    H1 3732   0.817   3.487   2.270 -0.0252 -0.7306  2.1730
 1256TIP3    H2 3733   0.713   3.392   2.212  0.4529  0.5822 -1.0705
 1257TIP3   OH2 3734   3.328   3.560   0.940  0.0654  0.4265 -0.4390
 1257TIP3    H1 3735   3.257   3.522   0.889  0.5782 -2.9237  1.1214
 1257TIP3    H2 3736   3.301   3.550   1.031  2.4654 -1.0322  0.2050
 1258TIP3   OH2 3737   6.907   3.312   0.104 -0.0932  0.1535  0.0182
 1258TIP3    H1 3738   6.954   3.239   0.144 -0.5053  0.3249  0.8362
 1258TIP3    H2 3739   6.945   3.391   0.143  1.1266  0.4712 -1.6809
 1259TIP3   OH2 3740   1.336   4.598   5.166 -0.2962 -0.4089 -0.5042
 1259TIP3    H1 3741   1.323   4.685   5.130 -1.5956 -0.3307  0.1085
 1259TIP3    H2 3742   1.422   4.571   5.133  0.2974  1.2460 -0.3707
 1260TIP3   OH2 3743   0.439   4.517   1.534  0.0913 -0.0551  0.3787
 1260TIP3    H1 3744   0.399   4.528   1.447  1.1123  2.4912  0.1481
 1260TIP3    H2 3745   0.395   4.581   1.589 -0.3301 -1.4422  1.7276
 1261TIP3   OH2 3746   0.153   5.678   1.186 -0.0976 -0.0140  0.6019
 1261TIP3    H1 3747   0.103   5.665   1.106  2.0777  0.5352 -0.9496
 1261TIP3    H2 3748   0.117   5.759   1.224 -0.0378  0.6853 -0.7728
 1262TIP3   OH2 3749   1.990   3.060   5.829 -0.2227 -0.1680  0.2528
 1262TIP3    H1 3750   1.973   3.050   5.735  0.9220 -0.3903  0.0577
 1262TIP3    H2 3751   1.943   2.987   5.870 -0.3232 -0.3523 -0.1880
 1263TIP3   OH2 3752   6.293   5.047   2.952 -0.1928 -0.2372  0.0569
 1263TIP3    H1 3753   6.265   5.139   2.946 -0.6198 -0.2971  1.0592
 1263TIP3    H2 3754   6.219   4.997   2.917 -0.9581 -0.3281  1.7118
 1264TIP3   OH2 3755   4.290   4.381   3.616  0.6544 -0.4095 -0.2473
 1264TIP3    H1 3756   4.288   4.369   3.710  2.1461 -0.8860 -0.2516
 1264TIP3    H2 3757   4.211   4.431   3.596  0.8243  0.5775  1.3860
 1265TIP3   OH2 3758   0.348   3.539   3.332 -0.1334  0.2832 -0.0419
 1265TIP3    H1 3759   0.267   3.557   3.380  0.4122  1.7488  0.3603
 1265TIP3    H2 3760   0.354   3.609   3.267  0.7278  0.0900 -0.1813
 1266TIP3   OH2 3761   0.008   1.449   3.382 -0.5278  0.2765  0.5924
 1266TIP3    H1 3762   0.027   1.541   3.365 -1.7987  0.3652 -0.4724
 1266TIP3    H2 3763   0.088   1.403   3.355 -1.0220  0.7912 -2.0430
 1267TIP3   OH2 3764   0.295   5.524   3.519 -0.6509  0.1121 -0.1576
 1267TIP3    H1 3765   0.359   5.592   3.539 -0.7786  0.3862 -0.6741
 1267TIP3    H2 3766   0.239   5.521   3.597 -0.4980  0.4282 -0.0311
 1268TIP3   OH2 3767   3.829   4.175   1.550  0.0457  0.1412 -1.0671
 1268TIP3    H1 3768   3.790   4.225   1.622  0.7785 -0.3781 -0.3021
 1268TIP3    H2 3769   3.798   4.086   1.564  0.4116 -0.0112 -1.2376
 1269TIP3   OH2 3770   1.079   2.141   2.918 -0.3788 -0.2641 -0.4617
 1269TIP3    H1 3771   1.144   2.100   2.861 -0.4952  0.5077 -1.1658
 1269TIP3    H2 3772   1.130   2.178   2.990 -0.0720  0.0142 -0.8201
 1270TIP3   OH2 3773   1.928   2.251   3.768 -0.2005  0.1209  0.2127
 1270TIP3    H1 3774   1.845   2.292   3.744 -0.2040 -0.8271 -1.5592
 1270TIP3    H2 3775   1.967   2.225   3.684  1.8543  0.4607  1.0036
 1271TIP3   OH2 3776   3.405   5.644   1.496 -0.5045 -0.2230  0.0513
 1271TIP3    H1 3777   3.414   5.652   1.401 -0.4206 -0.0883  0.0713
 1271TIP3    H2 3778   3.456   5.566   1.518  0.4908  0.4338  0.1423
 1272TIP3   OH2 3779   5.366   4.437   2.937  1.1193 -0.5495 -0.5007
 1272TIP3    H1 3780   5.346   4.364   2.996  0.2775 -0.3140 -0.4796
 1272TIP3    H2 3781   5.379   4.512   2.995  2.4071 -0.7587 -0.4958
 1273TIP3   OH2 3782   0.770   6.061   0.311  0.3187 -0.8484  0.0254
 1273TIP3    H1 3783   0.844   6.048   0.252 -0.1982 -0.6103 -0.6907
 1273TIP3    H2 3784   0.727   6.140   0.279 -0.6492 -1.3663 -0.0041
 1274TIP3   OH2 3785   3.192   1.771   5.763  0.4671  0.4846  0.2954
 1274TIP3    H1 3786   3.267   1.780   5.704 -1.0970  0.6925 -1.7788
 1274TIP3    H2 3787   3.202   1.684   5.802  2.1466  0.8025  0.6405
 1275TIP3   OH2 3788   3.261   4.153   1.272 -0.2335 -0.3247 -0.1239
 1275TIP3    H1 3789   3.257   4.070   1.222 -0.5674 -0.3186 -0.1096
 1275TIP3    H2 3790   3.177   4.195   1.255  0.2158  0.3617 -0.7257
 1276TIP3   OH2 3791   6.249   4.409   4.251 -0.7367 -0.3620  0.0207
 1276TIP3    H1 3792   6.262   4.454   4.167 -2.5066  0.9307  0.3851
 1276TIP3    H2 3793   6.332   4.364   4.267  0.9684  2.2806 -0.6849
 1277TIP3   OH2 3794   4.896   2.155   3.220 -0.0496  0.2113  0.1920
 1277TIP3    H1 3795   4.927   2.178   3.132 -0.1560 -0.5244 -0.0477
 1277TIP3    H2 3796   4.846   2.231   3.249 -0.1368  0.4039 -0.4506
 1278TIP3   OH2 3797   4.887   4.164   1.661 -0.3669  0.0346  0.4163
 1278TIP3    H1 3798   4.856   4.146   1.750 -0.1800  1.5259  0.8084
 1278TIP3    H2 3799   4.933   4.247   1.668  2.5346 -1.3724 -0.4419
 1279TIP3   OH2 3800   6.092   4.559   0.581 -0.6482 -0.2045 -0.5138
 1279TIP3    H1 3801   6.074   4.465   0.582  0.4311 -0.4329 -0.5598
 1279TIP3    H2 3802   6.045   4.594   0.656 -0.7912 -0.8405 -0.3020
 1280TIP3   OH2 3803   4.839   3.153   3.446 -0.7430  0.4226 -0.1534
 1280TIP3    H1 3804   4.896   3.114   3.512 -0.8890  1.0794  0.3718
 1280TIP3    H2 3805   4.891   3.151   3.365 -0.6079 -0.4854 -0.0508
 1281TIP3   OH2 3806   0.208   2.856   2.545  0.1718 -0.0619  0.3630
 1281TIP3    H1 3807   0.269   2.798   2.499  0.9010  1.1058 -0.1941
 1281TIP3    H2 3808   0.167   2.800   2.611  0.9121 -1.1873 -0.0975
 1282TIP3   OH2 3809   0.248   3.525   5.073 -0.2860  0.0038  0.0290
 1282TIP3    H1 3810   0.260   3.571   5.156  1.1747  1.1382 -0.7695
 1282TIP3    H2 3811   0.336   3.503   5.044 -0.8174 -1.1008 -0.8442
 1283TIP3   OH2 3812   0.518   5.686   5.482  0.6014 -0.0500  0.7305
 1283TIP3    H1 3813   0.606   5.723   5.471  0.3561  0.3183 -0.0781
 1283TIP3    H2 3814   0.497   5.647   5.397 -0.6630  1.3101  0.3768
 1284TIP3   OH2 3815   1.972   6.176   0.970 -0.1819  0.2192  0.0832
 1284TIP3    H1 3816   2.064   6.171   0.995  0.4617  0.4679 -1.9826
 1284TIP3    H2 3817   1.924   6.153   1.049  1.5817  2.0015  1.7770
 1285TIP3   OH2 3818   2.977   3.038   0.857  0.2451 -0.1559 -0.0754
 1285TIP3    H1 3819   2.908   2.973   0.875 -0.2881  0.4672  0.1483
 1285TIP3    H2 3820   3.039   2.992   0.800 -0.9055 -0.3811 -1.1777
 1286TIP3   OH2 3821   4.239   0.041   0.574 -0.5372 -0.5414  0.4372
 1286TIP3    H1 3822   4.171   0.035   0.507  0.2678 -0.4941 -0.3967
 1286TIP3    H2 3823   4.223   0.125   0.616 -0.7162 -0.3185 -0.0674
 1287TIP3   OH2 3824   2.102   6.400   2.316 -0.5427  0.1160 -0.7824
 1287TIP3    H1 3825   2.196   6.411   2.301 -0.3191  0.9911  0.9621
 1287TIP3    H2 3826   2.091   6.306   2.331 -0.2342 -0.2360 -2.5982
 1288TIP3   OH2 3827   0.937   1.834   3.929 -0.0769 -0.1523 -0.4010
 1288TIP3    H1 3828   0.964   1.925   3.934  0.4992 -0.3898  1.9822
 1288TIP3    H2 3829   0.861   1.835   3.871  1.4539  1.4041 -2.5214
 1289TIP3   OH2 3830   2.913   2.836   5.779  0.2886  0.1013 -0.2754
 1289TIP3    H1 3831   2.943   2.769   5.717  1.1010  0.1808  0.0135
 1289TIP3    H2 3832   2.876   2.905   5.723 -0.5100 -0.5602 -0.5764
 1290TIP3   OH2 3833   2.825   1.431   2.419 -0.0248  0.1833  0.2106
 1290TIP3    H1 3834   2.899   1.484   2.448 -0.0179 -0.2298  0.9660
 1290TIP3    H2 3835   2.749   1.475   2.457 -0.2689  1.0984 -1.2619
 1291TIP3   OH2 3836   6.924   3.600   5.068  0.0894 -0.9190 -0.0206
 1291TIP3    H1 3837   7.008   3.558   5.047  0.7460 -0.3733  1.3634
 1291TIP3    H2 3838   6.900   3.562   5.153 -0.7325 -0.5607 -0.0903
 1292TIP3   OH2 3839   0.723   6.491   2.385 -0.1144 -0.3703  0.6437
 1292TIP3    H1 3840   0.686   6.577   2.363  0.3550 -0.3681 -0.1644
 1292TIP3    H2 3841   0.658   6.428   2.353 -0.0671 -0.3390  0.4890
 1293TIP3   OH2 3842   5.989   6.719   0.223  0.1307 -0.0479 -0.5185
 1293TIP3    H1 3843   6.073   6.687   0.254  0.1500  0.9165  0.4942
 1293TIP3    H2 3844   5.938   6.640   0.205  1.2788 -0.6425 -1.2781
 1294TIP3   OH2 3845   1.873   6.493   4.822 -0.3254 -0.1619 -0.4336
 1294TIP3    H1 3846   1.915   6.420   4.867  0.7102  0.4964 -0.3027
 1294TIP3    H2 3847   1.801   6.519   4.880 -1.0146 -1.3723 -0.7120
 1295TIP3   OH2 3848   2.722   2.459   0.676 -0.7247  0.3957 -0.0521
 1295TIP3    H1 3849   2.652   2.433   0.616 -1.2069  0.6387  0.3990
 1295TIP3    H2 3850   2.731   2.553   0.662 -2.0263  0.7837  1.4664
 1296TIP3   OH2 3851   5.468   4.584   2.285 -0.3302  0.4109  0.2081
 1296TIP3    H1 3852   5.489   4.519   2.352 -3.6094 -0.8748  0.1425
 1296TIP3    H2 3853   5.446   4.533   2.207 -1.2814  1.6590 -0.3758
 1297TIP3   OH2 3854   1.107   3.493   0.433  0.4796 -0.3420 -0.1332
 1297TIP3    H1 3855   1.110   3.559   0.503 -1.6348 -0.3020 -0.0290
 1297TIP3    H2 3856   1.088   3.543   0.354  1.1764 -0.5933 -0.4742
 1298TIP3   OH2 3857   3.339   2.966   0.300  0.2796  0.3808 -0.3712
 1298TIP3    H1 3858   3.320   2.895   0.240  2.2808  0.7332 -1.5134
 1298TIP3    H2 3859   3.253   2.997   0.330 -0.6638 -3.0461  0.9018
 1299TIP3   OH2 3860   4.213   1.612   0.490  0.2559 -0.2412 -0.2098
 1299TIP3    H1 3861   4.162   1.621   0.570 -0.3417 -0.9568 -0.5002
 1299TIP3    H2 3862   4.257   1.696   0.480 -0.1368  0.0624  0.5416
 1300TIP3   OH2 3863   1.484   4.213   1.068 -0.3664  0.3747 -0.6351
 1300TIP3    H1 3864   1.488   4.304   1.037 -0.7531  0.4844 -0.3701
 1300TIP3    H2 3865   1.402   4.208   1.116 -0.1720 -0.0237 -0.3422
 1301TIP3   OH2 3866   5.080   5.931   1.184 -0.0058 -0.5845  0.8912
 1301TIP3    H1 3867   5.015   5.930   1.114  2.3828 -0.2755 -1.5048
 1301TIP3    H2 3868   5.127   5.848   1.175  1.7599  0.3886  0.6265
 1302TIP3   OH2 3869   0.203   0.599   2.492 -0.2441  0.0924 -0.3541
 1302TIP3    H1 3870   0.267   0.557   2.550  0.7126  1.1562 -0.5954
 1302TIP3    H2 3871   0.128   0.616   2.549  0.1703 -0.0588  0.2588
 1303TIP3   OH2 3872   7.146   5.500   1.952 -0.2495  0.2013  0.2258
 1303TIP3    H1 3873   7.117   5.543   1.872  1.3054  1.3527  0.2293
 1303TIP3    H2 3874   7.133   5.566   2.020  0.3874  0.0000  0.5546
 1304TIP3   OH2 3875   3.043   3.929   1.230 -0.0923 -0.1624 -0.1542
 1304TIP3    H1 3876   3.037   3.863   1.161 -0.4933 -0.8381  0.5111
 1304TIP3    H2 3877   3.009   4.009   1.190 -0.6586 -0.6362 -0.6342
 1305TIP3   OH2 3878   1.357   2.154   3.543 -0.5447 -0.1759 -0.6805
 1305TIP3    H1 3879   1.301   2.120   3.473 -0.1301 -0.2221 -0.9933
 1305TIP3    H2 3880   1.428   2.198   3.497 -1.2156  1.3919 -0.3006
 1306TIP3   OH2 3881   0.393   5.516   4.329 -0.1898 -0.2623 -0.4142
 1306TIP3    H1 3882   0.357   5.444   4.278 -0.1109 -1.5097  1.1928
 1306TIP3    H2 3883   0.317   5.561   4.365 -0.2158 -0.3366 -0.3765
 1307TIP3   OH2 3884   1.388   1.812   3.761 -0.2910  0.6323 -0.1225
 1307TIP3    H1 3885   1.467   1.860   3.788 -0.8265  1.1281  0.5843
 1307TIP3    H2 3886   1.410   1.720   3.776 -0.5262  0.8812  1.9156
 1308TIP3   OH2 3887   0.039   3.453   3.445  0.3324 -0.3899 -0.2121
 1308TIP3    H1 3888   0.082   3.370   3.425  2.4460  0.1177  1.7812
 1308TIP3    H2 3889   0.048   3.504   3.364 -2.8534 -2.6324 -2.2458
 1309TIP3   OH2 3890   5.600   6.493   2.508 -0.3040 -0.6398  0.2075
 1309TIP3    H1 3891   5.627   6.401   2.502  2.6899  0.1784 -0.0799
 1309TIP3    H2 3892   5.670   6.536   2.555 -1.7896  1.5043  0.6070
 1310TIP3   OH2 3893   1.790   1.552   4.403  0.2931 -0.3464  0.1593
 1310TIP3    H1 3894   1.780   1.470   4.450 -1.2888  0.4480  1.3078
 1310TIP3    H2 3895   1.738   1.615   4.454 -0.1081  0.9299 -1.7391
 1311TIP3   OH2 3896   3.911   6.635   5.188  0.0167  0.2205  0.3738
 1311TIP3    H1 3897   3.983   6.604   5.244 -0.2734 -1.7015 -0.2390
 1311TIP3    H2 3898   3.945   6.715   5.147  1.2006  0.2111  1.2845
 1312TIP3   OH2 3899   1.394   0.503   5.417  0.1504 -0.9027 -0.0439
 1312TIP3    H1 3900   1.401   0.453   5.335 -1.4295  0.3060 -0.9912
 1312TIP3    H2 3901   1.354   0.586   5.390 -0.1322 -0.3531  1.9276
 1313TIP3   OH2 3902   0.791   3.691   0.138  0.2320 -0.2455  0.1012
 1313TIP3    H1 3903   0.878   3.655   0.122  0.3231  0.6394 -1.5680
 1313TIP3    H2 3904   0.759   3.716   0.052 -1.2919  0.3405  0.8029
 1314TIP3   OH2 3905   2.666   4.678   5.681  0.6628 -0.1463 -0.3476
 1314TIP3    H1 3906   2.676   4.749   5.744  1.1668  0.1033 -0.7049
 1314TIP3    H2 3907   2.663   4.599   5.735  1.8884 -0.0057 -0.0457
 1315TIP3   OH2 3908   6.606   5.804   1.172  0.1874  0.2128 -0.2018
 1315TIP3    H1 3909   6.576   5.788   1.082 -1.7987 -0.1160  0.4559
 1315TIP3    H2 3910   6.525   5.814   1.222  1.1833  4.2444  0.9469
 1316TIP3   OH2 3911   5.654   6.339   3.782  0.4206 -0.4689 -0.0512
 1316TIP3    H1 3912   5.625   6.415   3.732  1.6767 -0.3181 -0.5989
 1316TIP3    H2 3913   5.735   6.367   3.823  0.7669 -1.4290 -0.0479
 1317TIP3   OH2 3914   0.418   3.058   5.598 -0.0550 -0.0085  0.5672
 1317TIP3    H1 3915   0.325   3.045   5.581 -0.2515 -0.2689  1.7507
 1317TIP3    H2 3916   0.433   3.151   5.584  0.0747 -0.3518 -2.1000
 1318TIP3   OH2 3917   0.244   6.134   5.098 -0.2044 -0.2861  0.0726
 1318TIP3    H1 3918   0.258   6.040   5.086 -0.5530 -0.3941  0.4979
 1318TIP3    H2 3919   0.217   6.143   5.190 -1.6423  0.0644 -0.3616
 1319TIP3   OH2 3920   1.515   6.367   1.225 -0.2572 -0.0847 -0.0895
 1319TIP3    H1 3921   1.495   6.459   1.245  1.8607  0.3230  0.4179
 1319TIP3    H2 3922   1.508   6.322   1.309 -0.9338 -0.3336 -0.2716
 1320TIP3   OH2 3923   1.299   6.018   0.929 -0.0605 -0.2107  0.3410
 1320TIP3    H1 3924   1.207   6.009   0.906  0.3885 -2.8677 -0.8465
 1320TIP3    H2 3925   1.313   6.112   0.935 -2.5888  0.3121 -0.5406
 1321TIP3   OH2 3926   5.314   1.675   5.295 -0.7047 -0.0345 -0.1355
 1321TIP3    H1 3927   5.286   1.677   5.387  0.4455  1.0610  0.2182
 1321TIP3    H2 3928   5.388   1.735   5.291  0.6529 -1.6955 -1.3497
 1322TIP3   OH2 3929   4.592   5.100   5.008  0.6166 -0.0768 -0.1668
 1322TIP3    H1 3930   4.681   5.094   5.045 -0.4954  0.4402  2.8834
 1322TIP3    H2 3931   4.601   5.160   4.934  2.5989  1.0830  0.9223
 1323TIP3   OH2 3932   3.887   4.345   5.850  0.1727  0.3544 -0.3830
 1323TIP3    H1 3933   3.978   4.355   5.877  0.3762  0.4721 -1.0946
 1323TIP3    H2 3934   3.891   4.294   5.769 -0.0797  3.2936 -2.4053
 1324TIP3   OH2 3935   6.053   3.964   2.694  0.3535  0.7489 -0.3493
 1324TIP3    H1 3936   6.069   3.958   2.789  0.2059 -0.4183 -0.3838
 1324TIP3    H2 3937   5.962   3.994   2.687  0.5537  1.4246 -0.1318
 1325TIP3   OH2 3938   2.326   4.460   1.825 -0.2737  0.1986 -0.1064
 1325TIP3    H1 3939   2.350   4.373   1.859 -3.3824 -0.5587  0.5083
 1325TIP3    H2 3940   2.334   4.452   1.730  0.9800 -0.2374  0.0273
 1326TIP3   OH2 3941   3.104   4.371   4.183  0.1381  0.1420  0.4213
 1326TIP3    H1 3942   3.075   4.282   4.164 -0.1874  0.3131  0.1109
 1326TIP3    H2 3943   3.036   4.427   4.147  0.3460  0.5199  0.6055
 1327TIP3   OH2 3944   4.424   0.247   4.400  0.0532 -0.0174 -0.4493
 1327TIP3    H1 3945   4.420   0.312   4.330 -0.7072 -0.2332 -0.6124
 1327TIP3    H2 3946   4.334   0.214   4.408  0.1709 -0.1556  0.4739
 1328TIP3   OH2 3947   3.844   1.426   0.130 -0.1502  0.2907  0.0525
 1328TIP3    H1 3948   3.772   1.448   0.070 -0.1841  2.1726  0.7171
 1328TIP3    H2 3949   3.920   1.415   0.073 -0.9585 -2.0301 -0.6912
 1329TIP3   OH2 3950   2.800   0.499   5.450 -0.3465 -0.4015  0.6596
 1329TIP3    H1 3951   2.754   0.547   5.380 -1.9885 -0.3162  1.7448
 1329TIP3    H2 3952   2.790   0.407   5.427  1.0751 -0.3315 -0.3692
 1330TIP3   OH2 3953   4.080   5.795   1.793  0.7384  0.1601  0.7898
 1330TIP3    H1 3954   4.015   5.865   1.789  0.8520  0.2098 -0.9594
 1330TIP3    H2 3955   4.164   5.840   1.785  0.8481 -0.0909  0.5018
 1331TIP3   OH2 3956   3.170   2.267   0.671  0.5484  0.1553 -0.1719
 1331TIP3    H1 3957   3.109   2.305   0.608  0.2960  0.8498  0.4742
 1331TIP3    H2 3958   3.163   2.324   0.748  1.0144 -0.5461  0.3992
 1332TIP3   OH2 3959   5.045   4.809   3.287  0.0698 -0.4351 -0.3986
 1332TIP3    H1 3960   4.952   4.828   3.273  0.0154 -1.1187 -1.0316
 1332TIP3    H2 3961   5.049   4.714   3.297  0.7964 -0.4997 -1.1922
 1333TIP3   OH2 3962   3.538   4.195   2.564  0.4252  0.4912 -0.1012
 1333TIP3    H1 3963   3.534   4.184   2.659 -3.6944  0.0265 -0.1350
 1333TIP3    H2 3964   3.507   4.285   2.549 -1.8575 -0.3859 -1.0105
 1334TIP3   OH2 3965   2.973   6.518   3.861 -0.1781  0.4672  0.7475
 1334TIP3    H1 3966   2.992   6.488   3.950 -0.9248 -0.3384  0.6456
 1334TIP3    H2 3967   3.049   6.570   3.837  0.1714  0.4467  1.7451
 1335TIP3   OH2 3968   1.896   5.484   1.942  0.5729 -0.1211  0.2636
 1335TIP3    H1 3969   1.956   5.468   2.014 -1.2801  0.4959  2.0604
 1335TIP3    H2 3970   1.836   5.409   1.943  0.2726  0.1006 -0.3447
 1336TIP3   OH2 3971   6.763   5.432   1.058 -0.5418  0.4281  0.4085
 1336TIP3    H1 3972   6.769   5.471   1.145  0.4317  2.1873 -0.3987
 1336TIP3    H2 3973   6.719   5.348   1.072 -1.1362  1.0365  2.4645
 1337TIP3   OH2 3974   3.470   5.999   0.799 -0.1562 -0.0134  0.4694
 1337TIP3    H1 3975   3.397   6.032   0.852  1.7834  2.6035  1.7656
 1337TIP3    H2 3976   3.504   6.077   0.755  2.3725 -0.9950  0.5654
 1338TIP3   OH2 3977   1.825   4.100   3.352  0.8877 -0.2962 -0.3311
 1338TIP3    H1 3978   1.894   4.166   3.342 -0.0270  0.7079 -0.1793
 1338TIP3    H2 3979   1.758   4.142   3.406  0.5554 -1.5808  0.2981
 1339TIP3   OH2 3980   6.538   1.540   4.306 -0.0981  0.4120 -0.3942
 1339TIP3    H1 3981   6.588   1.463   4.280  0.3108  0.4113  0.3509
 1339TIP3    H2 3982   6.454   1.506   4.336 -0.2425  0.3389 -0.8743
 1340TIP3   OH2 3983   3.333   1.031   2.066  0.0417  0.5121 -0.1477
 1340TIP3    H1 3984   3.276   1.045   2.142 -0.3624  2.4340 -0.7457
 1340TIP3    H2 3985   3.275   0.998   1.998 -0.0266  0.7876 -0.2268
 1341TIP3   OH2 3986   2.486   2.045   4.556 -0.1767 -0.3226  0.0585
 1341TIP3    H1 3987   2.437   2.126   4.537 -1.9092 -0.9785  1.4712
 1341TIP3    H2 3988   2.458   1.984   4.488  0.0702 -0.1537 -0.1965
 1342TIP3   OH2 3989   1.174   3.995   3.972  0.4344 -0.3564 -0.0494
 1342TIP3    H1 3990   1.114   3.930   3.936 -0.6771 -0.2480  1.4925
 1342TIP3    H2 3991   1.151   4.076   3.926 -1.1245 -0.1648  0.9949
 1343TIP3   OH2 3992   6.486   4.731   5.324 -0.3246  0.1198  0.2862
 1343TIP3    H1 3993   6.412   4.741   5.383 -0.6720  0.4341 -0.1933
 1343TIP3    H2 3994   6.558   4.775   5.368 -0.5739  0.3307  0.4884
 1344TIP3   OH2 3995   5.675   2.998   1.171 -0.5837  0.6722  0.2167
 1344TIP3    H1 3996   5.634   3.005   1.085 -1.8434  0.1476  0.7584
 1344TIP3    H2 3997   5.628   3.061   1.226 -0.6802  0.0653  0.8482
 1345TIP3   OH2 3998   2.831   2.133   3.210 -0.2092 -0.3915 -0.2493
 1345TIP3    H1 3999   2.819   2.067   3.278 -1.2334  1.0975  1.0996
 1345TIP3    H2 4000   2.767   2.110   3.143 -1.8572  0.1871  1.0393
 1346TIP3   OH2 4001   3.054   5.626   0.359  0.0150 -0.0093 -0.5238
 1346TIP3    H1 4002   3.012   5.692   0.304 -1.7840 -0.7659 -0.1479
 1346TIP3    H2 4003   3.097   5.567   0.297  0.1875  0.5615 -0.9579
 1347TIP3   OH2 4004   6.268   5.581   1.392  0.0640  0.6609 -0.1880
 1347TIP3    H1 4005   6.212   5.555   1.319  0.3735  0.1646 -0.2562
 1347TIP3    H2 4006   6.320   5.503   1.411  0.9171  1.1875 -0.2984
 1348TIP3   OH2 4007   5.256   3.901   1.567 -0.0217  0.1009 -0.4203
 1348TIP3    H1 4008   5.261   3.864   1.656  1.7274 -0.8487 -0.8732
 1348TIP3    H2 4009   5.165   3.887   1.541  0.6235 -4.9337 -0.9116
 1349TIP3   OH2 4010   6.243   6.733   5.268 -0.1783  0.3787 -0.2670
 1349TIP3    H1 4011   6.267   6.654   5.219 -0.1848 -0.7271  1.4114
 1349TIP3    H2 4012   6.221   6.700   5.356  1.3678  2.4000  0.9580
 1350TIP3   OH2 4013   4.043   2.579   0.186  0.0776 -0.0543  0.3423
 1350TIP3    H1 4014   3.966   2.573   0.241  0.0671  0.5977  0.4034
 1350TIP3    H2 4015   4.038   2.666   0.145  1.2714  0.3966  1.0969
 1351TIP3   OH2 4016   3.864   4.973   0.405  0.7020  0.7326  0.3796
 1351TIP3    H1 4017   3.956   4.994   0.386  0.4551  0.7946 -0.7672
 1351TIP3    H2 4018   3.818   4.987   0.323 -0.1275 -0.5237  0.6026
 1352TIP3   OH2 4019   5.900   0.855   1.578  0.2172  0.5177  0.1939
 1352TIP3    H1 4020   5.954   0.928   1.546 -0.8426  1.3822  0.3278
 1352TIP3    H2 4021   5.960   0.805   1.634  1.2109  0.7678 -0.6001
 1353TIP3   OH2 4022   5.476   3.080   1.758 -0.1157  0.1017  0.6184
 1353TIP3    H1 4023   5.533   3.107   1.829  0.1158  0.6953  0.2143
 1353TIP3    H2 4024   5.443   2.994   1.785  1.9743 -0.8734  0.2832
 1354TIP3   OH2 4025   4.094   1.913   0.370  0.1436 -0.4973 -0.6461
 1354TIP3    H1 4026   4.071   2.003   0.395 -0.0366 -0.5274 -0.6991
 1354TIP3    H2 4027   4.019   1.861   0.400  0.0323 -0.5671 -1.0321
 1355TIP3   OH2 4028   2.407   1.168   3.854 -0.1826  0.1070 -0.4294
 1355TIP3    H1 4029   2.502   1.176   3.859 -0.1768  0.2864 -0.7503
 1355TIP3    H2 4030   2.376   1.199   3.939 -0.0181  1.3259 -0.7943
 1356TIP3   OH2 4031   5.733   6.650   2.746  0.3132 -1.0466  0.3576
 1356TIP3    H1 4032   5.662   6.707   2.716 -0.7391 -2.3157  0.3852
 1356TIP3    H2 4033   5.753   6.683   2.834 -2.9158 -2.9652  1.9994
 1357TIP3   OH2 4034   6.030   2.518   2.803  0.0607 -0.7757  0.4114
 1357TIP3    H1 4035   5.984   2.531   2.886  1.7221 -1.1481  1.4562
 1357TIP3    H2 4036   6.004   2.430   2.775  0.5934 -1.2548  1.3390
 1358TIP3   OH2 4037   3.902   1.916   3.327 -0.2910 -0.1249  0.1523
 1358TIP3    H1 4038   3.909   1.851   3.258  0.3013 -0.2507  0.3307
 1358TIP3    H2 4039   3.850   1.987   3.288 -1.0488 -0.7542  0.0006
 1359TIP3   OH2 4040   1.500   1.953   4.799  0.2216 -0.1852  0.0956
 1359TIP3    H1 4041   1.485   1.982   4.888 -2.3344 -1.8625  0.3183
 1359TIP3    H2 4042   1.501   1.857   4.805 -0.3871 -0.3411 -1.7041
 1360TIP3   OH2 4043   2.094   4.858   3.121  0.2732 -0.7638  0.8335
 1360TIP3    H1 4044   2.073   4.765   3.124 -1.1852 -0.4414  2.1272
 1360TIP3    H2 4045   2.112   4.876   3.029 -2.2663 -1.7736  0.0383
 1361TIP3   OH2 4046   4.343   2.100   4.624 -0.3031  0.3308 -0.4394
 1361TIP3    H1 4047   4.376   2.150   4.550 -0.0932  0.9536  0.0643
 1361TIP3    H2 4048   4.308   2.165   4.684  0.3589 -0.0840  0.4200
 1362TIP3   OH2 4049   4.887   1.721   3.354 -0.2642  0.7233  0.0059
 1362TIP3    H1 4050   4.839   1.694   3.276  0.7345 -1.8522  0.1953
 1362TIP3    H2 4051   4.872   1.651   3.417  1.7292  1.0496  0.9220
 1363TIP3   OH2 4052   1.842   5.701   0.550  0.4108 -0.2650  0.1957
 1363TIP3    H1 4053   1.774   5.762   0.580 -1.2044 -1.8412 -0.0765
 1363TIP3    H2 4054   1.830   5.623   0.603  1.9572 -0.6427  0.0354
 1364TIP3   OH2 4055   5.921   3.522   2.783  0.4231  0.2061 -0.5465
 1364TIP3    H1 4056   5.933   3.451   2.720  0.4921 -1.4013  1.1837
 1364TIP3    H2 4057   5.985   3.588   2.757  2.1846 -1.4687 -0.7424
 1365TIP3   OH2 4058   5.310   3.801   0.626 -0.3179 -0.3098  0.1206
 1365TIP3    H1 4059   5.331   3.808   0.533  1.2952 -0.8047  0.4207
 1365TIP3    H2 4060   5.251   3.874   0.643  0.5983  0.7233 -0.9684
 1366TIP3   OH2 4061   4.282   4.108   3.135  0.2967  0.3768 -0.0352
 1366TIP3    H1 4062   4.303   4.016   3.121 -0.9503 -0.1222  1.1738
 1366TIP3    H2 4063   4.333   4.133   3.212 -0.7421  0.1691  0.7345
 1367TIP3   OH2 4064   1.656   2.468   2.580 -0.3961  0.2455 -0.0422
 1367TIP3    H1 4065   1.620   2.393   2.533  1.1891  0.0043 -0.9368
 1367TIP3    H2 4066   1.601   2.542   2.554 -0.5367 -0.1829 -1.0091
 1368TIP3   OH2 4067   0.328   2.400   1.701  0.3377 -0.2704 -0.4424
 1368TIP3    H1 4068   0.406   2.358   1.737  0.0107 -1.6851 -1.2977
 1368TIP3    H2 4069   0.255   2.344   1.727 -0.4560  1.1364  0.5172
 1369TIP3   OH2 4070   2.697   2.917  -0.014 -0.4064  0.2491 -0.5986
 1369TIP3    H1 4071   2.714   2.973   0.061 -0.0224  0.7373 -1.0449
 1369TIP3    H2 4072   2.623   2.862   0.013 -0.1680  0.3058  0.1897
 1370TIP3   OH2 4073   3.569   4.859   4.623  0.8287  0.0736  0.4877
 1370TIP3    H1 4074   3.658   4.890   4.636  0.9643 -0.1548  0.1238
 1370TIP3    H2 4075   3.578   4.765   4.609  0.3582 -0.2882  2.3384
 1371TIP3   OH2 4076   2.668   0.342   1.568 -0.1527  0.1334  1.1369
 1371TIP3    H1 4077   2.592   0.391   1.538  0.2884 -0.0576 -0.3777
 1371TIP3    H2 4078   2.632   0.259   1.600 -0.7691  0.9018  2.5140
 1372TIP3   OH2 4079   0.105   2.110   2.795 -0.3515  0.0417  0.3398
 1372TIP3    H1 4080   0.110   2.016   2.816  0.2821 -0.2172 -0.8385
 1372TIP3    H2 4081   0.190   2.145   2.821 -0.3862  0.1749  0.2748
 1373TIP3   OH2 4082   4.911   6.050   4.216  0.0661  0.2522 -0.2654
 1373TIP3    H1 4083   4.994   6.095   4.233 -0.3129  0.5175  1.0104
 1373TIP3    H2 4084   4.936   5.958   4.209  0.4828  0.3298  0.0796
 1374TIP3   OH2 4085   0.255   2.563   0.097  1.0568 -0.2569 -0.0298
 1374TIP3    H1 4086   0.314   2.546   0.023  1.7449 -0.1150  0.4738
 1374TIP3    H2 4087   0.175   2.596   0.057  1.6073  0.3152 -0.6871
 1375TIP3   OH2 4088   3.069   2.026   4.948 -0.0645 -0.2353 -0.0070
 1375TIP3    H1 4089   2.993   1.983   4.987 -0.0555 -0.8559 -0.6577
 1375TIP3    H2 4090   3.144   1.974   4.977 -0.0781 -0.8592 -1.0295
 1376TIP3   OH2 4091   5.852   6.099   5.807 -0.1378 -0.0123  0.0518
 1376TIP3    H1 4092   5.769   6.147   5.805 -0.5476 -0.6416  0.8444
 1376TIP3    H2 4093   5.826   6.007   5.797  0.2493 -0.4045  2.1708
 1377TIP3   OH2 4094   4.350   4.878   0.908 -0.1813 -0.4690  0.2554
 1377TIP3    H1 4095   4.359   4.967   0.941  0.7092 -1.6955  3.6996
 1377TIP3    H2 4096   4.419   4.870   0.842  2.1805  0.3948  2.4649
 1378TIP3   OH2 4097   0.551   3.469   3.550  0.5817 -0.0927 -0.0525
 1378TIP3    H1 4098   0.476   3.527   3.536  1.6597  1.4728  0.2965
 1378TIP3    H2 4099   0.567   3.429   3.465  0.3066  0.7790 -0.5319
 1379TIP3   OH2 4100   6.260   3.483   3.621  0.0559 -0.0326  0.0096
 1379TIP3    H1 4101   6.212   3.536   3.557  0.0128 -0.1976 -0.0957
 1379TIP3    H2 4102   6.342   3.531   3.635  0.2113 -0.1664 -0.4198
 1380TIP3   OH2 4103   0.912   6.224   3.797  0.2387 -0.4612  0.7536
 1380TIP3    H1 4104   1.001   6.251   3.818  0.2045 -0.0326  0.3710
 1380TIP3    H2 4105   0.905   6.236   3.702  1.0922 -4.3396 -0.0004
 1381TIP3   OH2 4106   5.832   0.104   3.578 -0.3733  0.0772  0.3195
 1381TIP3    H1 4107   5.850   0.124   3.485  0.0163  1.9480  0.7447
 1381TIP3    H2 4108   5.742   0.073   3.579 -0.3363 -0.1013 -0.7174
 1382TIP3   OH2 4109   5.274   6.706   4.345 -0.4533 -0.2268 -0.1395
 1382TIP3    H1 4110   5.219   6.775   4.307 -0.4870 -1.2481 -2.1029
 1382TIP3    H2 4111   5.363   6.728   4.317 -0.0802  0.3574  1.3869
 1383TIP3   OH2 4112   5.613   1.030   2.740 -0.3270 -0.2220 -0.0514
 1383TIP3    H1 4113   5.704   1.004   2.733 -0.2978 -1.1707  2.5778
 1383TIP3    H2 4114   5.613   1.124   2.724  0.7951 -0.4868 -1.8616
 1384TIP3   OH2 4115   7.129   0.783   2.091  0.0387  0.2207 -0.0529
 1384TIP3    H1 4116   7.166   0.711   2.040 -1.6758  0.8121 -2.2723
 1384TIP3    H2 4117   7.148   0.760   2.182  2.3537 -1.3868 -0.8495
 1385TIP3   OH2 4118   5.769   1.514   0.180 -0.2424  0.1198  0.1136
 1385TIP3    H1 4119   5.858   1.481   0.184  0.6198  2.1357 -0.8884
 1385TIP3    H2 4120   5.742   1.501   0.089 -1.2595 -1.0642  0.5481
 1386TIP3   OH2 4121   6.567   2.261   0.635 -0.0854  0.0576  0.1401
 1386TIP3    H1 4122   6.582   2.251   0.541  1.3201 -2.1924  0.5151
 1386TIP3    H2 4123   6.490   2.208   0.654 -0.6598  0.9009  0.2014
 1387TIP3   OH2 4124   1.795   4.502   0.290 -0.2987  0.1640 -0.1421
 1387TIP3    H1 4125   1.716   4.451   0.310 -0.4748 -0.1387 -1.4814
 1387TIP3    H2 4126   1.866   4.438   0.291 -0.1214  0.3701  0.7040
 1388TIP3   OH2 4127   7.110   4.441   4.358 -0.0389 -0.3810 -0.6771
 1388TIP3    H1 4128   7.038   4.503   4.346  0.5263  0.3888 -0.2015
 1388TIP3    H2 4129   7.189   4.494   4.347  0.5342 -0.2110  3.1100
 1389TIP3   OH2 4130   4.809   1.851   5.210  0.3643  0.4136  0.0836
 1389TIP3    H1 4131   4.769   1.937   5.197  0.0403  0.2988  0.3124
 1389TIP3    H2 4132   4.833   1.849   5.303  0.6340  0.3691  0.0129
 1390TIP3   OH2 4133   5.637   6.717   3.982  0.8183 -0.5256 -0.4801
 1390TIP3    H1 4134   5.622   6.647   4.045  0.6939 -0.2936 -0.2484
 1390TIP3    H2 4135   5.706   6.770   4.021  1.8074 -1.2275 -1.2474
 1391TIP3   OH2 4136   6.751   6.326   2.197 -0.3072 -0.2540  0.1670
 1391TIP3    H1 4137   6.733   6.335   2.291 -1.3847 -0.2972 -0.0234
 1391TIP3    H2 4138   6.832   6.275   2.193  0.4510  0.8302  1.0928
 1392TIP3   OH2 4139   5.954   0.338   1.069 -0.4663  0.3387 -0.2096
 1392TIP3    H1 4140   5.926   0.320   0.979 -0.3473  1.3483 -0.4518
 1392TIP3    H2 4141   6.049   0.350   1.063 -0.2351 -1.0047  0.2910
 1393TIP3   OH2 4142   4.089   4.549   5.645  0.7650 -0.0551  0.1425
 1393TIP3    H1 4143   4.024   4.614   5.619 -1.8520 -1.3102  2.9199
 1393TIP3    H2 4144   4.090   4.485   5.573 -0.0724  0.6869 -0.5481
 1394TIP3   OH2 4145   2.013   5.184   0.520 -0.9120 -0.6279 -0.2814
 1394TIP3    H1 4146   1.925   5.169   0.486 -1.6227 -1.8900  1.8802
 1394TIP3    H2 4147   2.043   5.097   0.547  0.4604 -0.0259  0.2192
 1395TIP3   OH2 4148   7.104   0.734   0.499  0.1292 -0.2362 -0.2586
 1395TIP3    H1 4149   7.165   0.662   0.485 -0.6574 -0.8349 -0.7374
 1395TIP3    H2 4150   7.142   0.784   0.571  2.1055  0.4796 -1.7105
 1396TIP3   OH2 4151   4.344   2.871   2.563 -0.4033 -0.3208  0.0344
 1396TIP3    H1 4152   4.282   2.891   2.633 -0.7020  1.9363 -0.7952
 1396TIP3    H2 4153   4.290   2.846   2.488 -0.3000  0.8990 -0.4633
 1397TIP3   OH2 4154   1.981   2.543   4.865  0.4653  0.0485  0.6440
 1397TIP3    H1 4155   1.941   2.615   4.817  0.7836 -1.2890 -1.7673
 1397TIP3    H2 4156   2.059   2.581   4.905 -0.5808  1.5385  1.3723
 1398TIP3   OH2 4157   0.549   5.647   2.167  0.2749 -0.7153 -0.2259
 1398TIP3    H1 4158   0.534   5.731   2.210  2.2355 -0.4334 -0.0246
 1398TIP3    H2 4159   0.547   5.667   2.074  2.0801 -0.1486 -0.1732
 1399TIP3   OH2 4160   3.469   0.117   5.361 -0.4152  0.3547 -0.3629
 1399TIP3    H1 4161   3.530   0.178   5.402  0.2288  0.2541 -1.1342
 1399TIP3    H2 4162   3.424   0.169   5.295 -0.9566  0.3586  0.0104
 1400TIP3   OH2 4163   1.285   1.067   2.662  0.0794 -0.0865  0.0008
 1400TIP3    H1 4164   1.320   1.050   2.575  0.6236  0.1118  0.1752
 1400TIP3    H2 4165   1.362   1.065   2.720 -0.5425 -2.5118  0.8428
 1401TIP3   OH2 4166   6.810   4.170   3.567  0.2802  0.3001  0.0488
 1401TIP3    H1 4167   6.758   4.090   3.580 -0.1757  0.6287  0.2523
 1401TIP3    H2 4168   6.846   4.189   3.654  2.4397 -1.0706 -0.4589
 1402TIP3   OH2 4169   3.499   1.046   0.856  0.5848 -0.1857 -0.1955
 1402TIP3    H1 4170   3.586   1.055   0.818  1.1199  1.7678  1.3213
 1402TIP3    H2 4171   3.511   0.988   0.932  0.7591  0.7320  0.4933
 1403TIP3   OH2 4172   6.184   3.882   3.648 -0.9600 -1.1422  0.4623
 1403TIP3    H1 4173   6.181   3.893   3.743 -1.5243  0.9261  0.2617
 1403TIP3    H2 4174   6.247   3.812   3.634  1.6617  0.6601  2.2816
 1404TIP3   OH2 4175   6.516   4.422   1.743 -0.7772 -0.0694  0.2953
 1404TIP3    H1 4176   6.498   4.443   1.652  1.3219  2.4334  0.3403
 1404TIP3    H2 4177   6.431   4.398   1.780 -2.0678  1.0488 -1.7621
 1405TIP3   OH2 4178   2.268   6.419   5.361 -0.0675 -0.6949 -0.4836
 1405TIP3    H1 4179   2.281   6.464   5.277 -0.9384  1.0946  0.2724
 1405TIP3    H2 4180   2.297   6.483   5.426 -2.4055 -0.7404  0.7024
 1406TIP3   OH2 4181   5.460   0.119   5.701 -0.1939 -0.0194 -0.4853
 1406TIP3    H1 4182   5.532   0.064   5.732  1.0159  0.0709 -2.8926
 1406TIP3    H2 4183   5.434   0.080   5.618 -0.0840  2.2871 -1.7021
 1407TIP3   OH2 4184   1.292   6.547   2.636  0.0143 -0.0650 -0.1902
 1407TIP3    H1 4185   1.216   6.575   2.585 -0.7469 -0.7857  0.5104
 1407TIP3    H2 4186   1.353   6.620   2.630 -0.8396  0.6444 -0.5492
 1408TIP3   OH2 4187   1.862   6.514   5.120  0.4051 -0.2390  0.1559
 1408TIP3    H1 4188   1.913   6.457   5.179  0.1992  0.0874  0.6551
 1408TIP3    H2 4189   1.864   6.599   5.163 -0.7299 -0.2661  0.2835
 1409TIP3   OH2 4190   5.974   4.594   2.860  0.1234  0.3919 -0.0249
 1409TIP3    H1 4191   6.032   4.528   2.823  2.4388  2.5797 -0.5750
 1409TIP3    H2 4192   5.917   4.620   2.787 -0.3589 -0.5104  0.0225
 1410TIP3   OH2 4193   2.011   1.952   0.385  0.1047 -0.1709  0.1009
 1410TIP3    H1 4194   1.981   1.876   0.335  2.4401 -1.3028  0.2608
 1410TIP3    H2 4195   1.992   1.930   0.476  1.3072 -0.8775  0.2012
 1411TIP3   OH2 4196   6.118   2.076   5.513  0.5583 -0.1189  0.2746
 1411TIP3    H1 4197   6.196   2.030   5.544  1.6266  1.4008 -0.0532
 1411TIP3    H2 4198   6.146   2.120   5.433 -0.4484  1.0206  0.5290
 1412TIP3   OH2 4199   5.402   5.998   1.020 -0.4131 -0.1589  0.1427
 1412TIP3    H1 4200   5.487   5.984   1.063 -0.9188 -0.0523  1.2001
 1412TIP3    H2 4201   5.410   5.951   0.937  1.1388  0.9029 -0.3712
 1413TIP3   OH2 4202   0.890   2.356   0.478 -0.3578  0.0073  0.0132
 1413TIP3    H1 4203   0.840   2.285   0.519  1.1494 -0.2503  1.5311
 1413TIP3    H2 4204   0.826   2.424   0.461 -1.2848 -0.3686  1.7541
 1414TIP3   OH2 4205   4.436   3.435   2.187 -0.1689  0.3876 -0.2384
 1414TIP3    H1 4206   4.365   3.488   2.152 -0.3807 -0.9594 -1.9430
 1414TIP3    H2 4207   4.420   3.347   2.153  3.7042  0.5101 -2.9660
 1415TIP3   OH2 4208   3.722   6.039   4.534  0.9722  0.2873 -0.1182
 1415TIP3    H1 4209   3.650   5.977   4.548 -0.0146  1.7922  2.1035
 1415TIP3    H2 4210   3.708   6.107   4.601  2.9837  1.9969 -1.3172
 1416TIP3   OH2 4211   1.329   5.483   1.810  0.0107  0.6891  0.7737
 1416TIP3    H1 4212   1.312   5.518   1.897 -0.4642  0.2049  0.8854
 1416TIP3    H2 4213   1.263   5.525   1.754  1.0132  1.8424  0.4199
 1417TIP3   OH2 4214   1.279   0.414   2.595  0.0615  0.4078 -0.0705
 1417TIP3    H1 4215   1.346   0.481   2.608  0.8401  0.6791 -4.1201
 1417TIP3    H2 4216   1.196   0.462   2.605  0.5470  1.2090  0.2442
 1418TIP3   OH2 4217   5.239   2.584   3.173  0.0161 -0.1677  0.4043
 1418TIP3    H1 4218   5.314   2.630   3.135 -0.9844  1.1100 -0.1149
 1418TIP3    H2 4219   5.269   2.494   3.184  1.3113  0.0992 -0.6770
 1419TIP3   OH2 4220   3.476   4.108   4.694  0.1056 -0.3435  0.0069
 1419TIP3    H1 4221   3.522   4.035   4.735 -1.1986 -1.2604 -0.0737
 1419TIP3    H2 4222   3.409   4.066   4.640 -1.8040  0.9111  1.2827
 1420TIP3   OH2 4223   4.639   5.361   5.212  0.2399  0.1241  0.0070
 1420TIP3    H1 4224   4.695   5.415   5.157 -1.4052  0.0163 -1.8966
 1420TIP3    H2 4225   4.697   5.294   5.247  1.1772 -0.7312 -2.8632
 1421TIP3   OH2 4226   4.040   0.378   4.606 -0.4400  0.2830  0.2854
 1421TIP3    H1 4227   4.077   0.302   4.560 -0.7629  1.2914 -1.7740
 1421TIP3    H2 4228   3.959   0.345   4.644  0.6117 -0.9852  1.5647
 1422TIP3   OH2 4229   2.088   2.286   4.795 -0.0199  0.5774 -0.1739
 1422TIP3    H1 4230   2.071   2.221   4.727  2.5555  0.2246 -0.5735
 1422TIP3    H2 4231   2.127   2.360   4.748 -0.8697  1.5140  0.5669
 1423TIP3   OH2 4232   3.803   2.291   5.007 -0.0556  0.0040  0.4499
 1423TIP3    H1 4233   3.867   2.354   4.975 -0.8458  0.4074 -0.3945
 1423TIP3    H2 4234   3.836   2.206   4.976  2.4071 -0.4425  3.7805
 1424TIP3   OH2 4235   4.788   4.429   4.983  0.2352 -0.4442 -0.6620
 1424TIP3    H1 4236   4.780   4.412   5.076 -2.0902  2.4087 -0.1760
 1424TIP3    H2 4237   4.877   4.462   4.971  0.5688 -0.8960  0.5204
 1425TIP3   OH2 4238   4.947   3.975   4.533 -0.8273 -0.1776 -0.3654
 1425TIP3    H1 4239   4.856   3.987   4.506 -0.7287  0.7063 -0.3291
 1425TIP3    H2 4240   4.969   4.055   4.581 -0.0401 -0.3982 -0.3381
 1426TIP3   OH2 4241   0.103   4.384   4.868  0.4830 -0.5801 -0.3382
 1426TIP3    H1 4242   0.015   4.418   4.882  0.6266 -0.1420 -0.4929
 1426TIP3    H2 4243   0.112   4.380   4.773  1.0058  0.3597 -0.3330
 1427TIP3   OH2 4244   7.063   1.249   5.412 -1.0303  0.2983  0.3811
 1427TIP3    H1 4245   7.004   1.214   5.479  0.5284 -2.8861  0.2851
 1427TIP3    H2 4246   7.135   1.288   5.462 -0.4073 -1.0884  0.6064
 1428TIP3   OH2 4247   5.806   4.921   0.001  0.1912 -0.5359  0.0237
 1428TIP3    H1 4248   5.830   4.981   0.072 -2.3750  0.7917 -0.1162
 1428TIP3    H2 4249   5.879   4.926  -0.060  1.6431 -0.3210  1.6940
 1429TIP3   OH2 4250   6.343   0.381   4.298  0.5902 -0.4217  0.2926
 1429TIP3    H1 4251   6.425   0.334   4.314  0.2184 -1.4108 -0.6004
 1429TIP3    H2 4252   6.370   0.471   4.279  1.3514 -0.3774  1.4618
 1430TIP3   OH2 4253   6.798   6.032   2.286  0.0341  0.3917  0.2774
 1430TIP3    H1 4254   6.819   5.978   2.363  2.6896 -1.5272 -1.6225
 1430TIP3    H2 4255   6.836   6.117   2.306 -0.2880  0.2867  1.4880
 1431TIP3   OH2 4256   5.236   5.203   2.629 -0.0421  0.6132  0.7859
 1431TIP3    H1 4257   5.142   5.199   2.611  0.2790  0.8449 -1.1634
 1431TIP3    H2 4258   5.262   5.291   2.601  1.1306 -0.1913 -0.7894
 1432TIP3   OH2 4259   7.174   2.566   1.437  0.4761  0.1706  0.3279
 1432TIP3    H1 4260   7.206   2.497   1.494 -2.1649 -2.0345 -0.6187
 1432TIP3    H2 4261   7.186   2.531   1.348 -0.6414  1.0269 -0.1891
 1433TIP3   OH2 4262   4.920   0.712   1.105 -0.3515 -0.4456 -0.4683
 1433TIP3    H1 4263   4.838   0.670   1.132 -0.7894  0.1608 -0.8464
 1433TIP3    H2 4264   4.899   0.805   1.100  0.9494  0.0563  1.7300
 1434TIP3   OH2 4265   0.047   3.597   0.947 -0.5046 -0.1140  0.3609
 1434TIP3    H1 4266   0.065   3.688   0.972  2.8045 -0.5668  0.1228
 1434TIP3    H2 4267   0.074   3.545   1.023  0.6279 -0.9896 -0.5918
 1435TIP3   OH2 4268   0.928   3.173   1.190  0.5053 -0.0343  0.3794
 1435TIP3    H1 4269   0.914   3.233   1.263  0.3807 -0.1845  0.4821
 1435TIP3    H2 4270   0.968   3.226   1.121  1.0146  0.0109  0.7092
 1436TIP3   OH2 4271   5.104   3.810   2.929 -0.7368  0.4946 -0.3912
 1436TIP3    H1 4272   5.124   3.762   2.849  0.4095 -1.1849  0.8322
 1436TIP3    H2 4273   5.172   3.878   2.933  0.1515 -0.3788 -0.1091
 1437TIP3   OH2 4274   2.016   4.238   3.844 -0.4150  0.3907  0.1253
 1437TIP3    H1 4275   2.059   4.152   3.845 -1.5532 -0.2028  0.0531
 1437TIP3    H2 4276   2.070   4.293   3.901  1.2894  0.1254 -1.1844
 1438TIP3   OH2 4277   0.643   4.666   2.356  0.6878 -0.0638 -0.0147
 1438TIP3    H1 4278   0.612   4.741   2.407  0.9662 -0.1018  0.2145
 1438TIP3    H2 4279   0.715   4.703   2.303  0.8908 -0.1928  0.1724
 1439TIP3   OH2 4280   1.582   4.855   1.415  0.0076  0.0956  0.2431
 1439TIP3    H1 4281   1.644   4.874   1.345  0.5562 -0.6827  0.4997
 1439TIP3    H2 4282   1.532   4.936   1.426 -0.0791  0.2358 -1.0335
 1440TIP3   OH2 4283   3.379   2.770   0.821 -0.4997 -0.0293  0.0973
 1440TIP3    H1 4284   3.430   2.697   0.785 -1.3098 -0.4360 -0.2460
 1440TIP3    H2 4285   3.385   2.759   0.916 -1.8952 -1.4619  0.0488
 1441TIP3   OH2 4286   1.770   0.342   4.095 -0.5469 -0.6734  0.4977
 1441TIP3    H1 4287   1.698   0.278   4.093  0.9891 -2.5244 -1.8601
 1441TIP3    H2 4288   1.761   0.389   4.012  0.9662 -0.9919  0.1311
 1442TIP3   OH2 4289   2.981   3.422   4.947 -0.3719 -0.0399  0.6832
 1442TIP3    H1 4290   3.060   3.395   4.994 -0.1981 -0.7613 -0.0039
 1442TIP3    H2 4291   3.005   3.420   4.855 -1.4629 -1.2604  0.3952
 1443TIP3   OH2 4292   3.231   2.344   0.136 -0.6211  0.0460 -0.2483
 1443TIP3    H1 4293   3.195   2.300   0.059 -2.0910  1.6983 -0.5617
 1443TIP3    H2 4294   3.154   2.369   0.187  0.2011  1.5264  0.2966
 1444TIP3   OH2 4295   7.199   0.390   4.027  0.0551 -0.2947 -0.2453
 1444TIP3    H1 4296   7.249   0.462   4.066 -1.0300  0.4642 -0.2327
 1444TIP3    H2 4297   7.175   0.335   4.102  1.0771 -0.8056 -0.2802
 1445TIP3   OH2 4298   2.720   1.087   4.478 -0.2549 -0.1129 -0.2100
 1445TIP3    H1 4299   2.687   1.158   4.422  0.2084  0.5960  0.3927
 1445TIP3    H2 4300   2.662   1.013   4.460  0.2621 -0.0967 -2.0810
 1446TIP3   OH2 4301   0.720   6.404   0.268  0.4404  0.0621 -0.0039
 1446TIP3    H1 4302   0.671   6.387   0.349  0.1114 -0.6453 -0.3377
 1446TIP3    H2 4303   0.782   6.473   0.291 -1.5234  1.8894  0.1268
 1447TIP3   OH2 4304   7.209   1.312   1.737  0.8422  0.5136 -0.3670
 1447TIP3    H1 4305   7.197   1.331   1.644 -0.1183  0.9710 -0.1559
 1447TIP3    H2 4306   7.217   1.216   1.740 -2.1060  0.1499 -0.6541
 1448TIP3   OH2 4307   5.609   4.406   2.464  0.1653 -0.0020 -0.1184
 1448TIP3    H1 4308   5.701   4.425   2.481  0.3959 -1.3557  0.2501
 1448TIP3    H2 4309   5.610   4.354   2.384 -0.4923  1.9042 -1.4234
 1449TIP3   OH2 4310   3.211   2.953   3.644 -0.1988  0.1364  0.7127
 1449TIP3    H1 4311   3.126   2.983   3.613 -0.6021 -1.3156  0.3034
 1449TIP3    H2 4312   3.269   3.028   3.636 -0.5943  0.2298 -2.3204
 1450TIP3   OH2 4313   1.433   6.731   3.763 -0.5362  0.1212 -0.1764
 1450TIP3    H1 4314   1.444   6.651   3.712 -1.2435 -0.0785 -0.0263
 1450TIP3    H2 4315   1.510   6.784   3.742 -0.0166 -0.6339 -0.2095
 1451TIP3   OH2 4316   3.385   3.858   1.573  0.8000 -0.1069 -0.4207
 1451TIP3    H1 4317   3.360   3.819   1.489 -0.0607 -0.7076  0.1093
 1451TIP3    H2 4318   3.395   3.951   1.553 -0.9094  0.0154 -0.8783
 1452TIP3   OH2 4319   1.967   1.112   4.905 -0.1140 -0.3690  0.4314
 1452TIP3    H1 4320   1.933   1.023   4.898  0.0458 -0.3528 -0.7865
 1452TIP3    H2 4321   1.966   1.131   4.999  1.8266 -2.4224  0.9445
 1453TIP3   OH2 4322   0.740   0.480   5.453 -0.3625  0.0997 -0.1804
 1453TIP3    H1 4323   0.656   0.507   5.416  0.7249  0.4856 -2.5678
 1453TIP3    H2 4324   0.779   0.560   5.487  1.1055  1.0167 -3.6084
 1454TIP3   OH2 4325   6.931   0.021   1.671 -0.3127 -0.6276  0.2919
 1454TIP3    H1 4326   6.844   0.051   1.646  0.1023  0.4609  0.0677
 1454TIP3    H2 4327   6.984   0.032   1.592  0.6879  1.5174  1.1745
 1455TIP3   OH2 4328   2.934   3.580   0.068 -0.0002 -0.2439 -0.0029
 1455TIP3    H1 4329   2.853   3.575   0.120  0.7202  1.9636  1.4661
 1455TIP3    H2 4330   3.000   3.537   0.123  0.2879 -0.0447 -0.1928
 1456TIP3   OH2 4331   1.850   3.194   3.347  0.4645 -0.0028  0.4317
 1456TIP3    H1 4332   1.866   3.106   3.311  1.8466 -0.4067  1.9243
 1456TIP3    H2 4333   1.771   3.184   3.400  0.8368 -0.4517  0.9106
 1457TIP3   OH2 4334   4.696   0.964   3.165  0.0327 -0.3973  0.1681
 1457TIP3    H1 4335   4.699   0.975   3.070 -0.6578 -0.2021  0.1637
 1457TIP3    H2 4336   4.691   0.869   3.178  1.0862 -0.4834  0.0498
 1458TIP3   OH2 4337   4.033   6.031   0.396  0.2192 -0.2456 -0.5710
 1458TIP3    H1 4338   3.942   6.028   0.367  0.3905 -1.1313 -1.0891
 1458TIP3    H2 4339   4.048   6.121   0.423 -0.4719  0.1903 -1.6057
 1459TIP3   OH2 4340   4.380   3.992   2.230 -0.4070 -0.0898 -0.4488
 1459TIP3    H1 4341   4.366   3.969   2.322  1.5774  0.6749  0.1007
 1459TIP3    H2 4342   4.338   4.077   2.220 -0.3562 -0.0278 -0.1468
 1460TIP3   OH2 4343   0.906   4.075   1.038  0.0170 -0.6486  0.3435
 1460TIP3    H1 4344   0.964   4.150   1.045  2.3509 -2.1863 -1.0912
 1460TIP3    H2 4345   0.877   4.076   0.947 -1.3295 -0.5528  0.7526
 1461TIP3   OH2 4346   6.285   0.365   2.080 -0.3460 -0.4309 -0.3337
 1461TIP3    H1 4347   6.321   0.284   2.042  1.5529  0.0513  0.3065
 1461TIP3    H2 4348   6.303   0.357   2.174  0.6793  1.0877 -0.3666
 1462TIP3   OH2 4349   4.263   6.006   1.178 -0.1009  0.1194 -0.0586
 1462TIP3    H1 4350   4.217   5.923   1.194  1.0713 -0.1709  2.1629
 1462TIP3    H2 4351   4.354   5.979   1.161  1.1684  0.9660  4.3324
 1463TIP3   OH2 4352   0.886   2.424   5.624 -0.3626  0.0942  0.6176
 1463TIP3    H1 4353   0.957   2.380   5.577 -0.3807  2.8420 -2.4021
 1463TIP3    H2 4354   0.812   2.365   5.618  0.4416 -0.8487 -0.3280
 1464TIP3   OH2 4355   3.576   1.245   5.048 -0.0646 -0.0915 -0.6188
 1464TIP3    H1 4356   3.544   1.167   5.093  0.1785  1.1804  1.9025
 1464TIP3    H2 4357   3.499   1.303   5.044  0.4163  0.6048  0.0239
 1465TIP3   OH2 4358   6.743   6.063   0.485  0.0347 -0.0949  0.0951
 1465TIP3    H1 4359   6.751   6.077   0.579 -0.2347 -1.1906  0.3029
 1465TIP3    H2 4360   6.748   6.150   0.447  1.5232  0.2591  1.0146
 1466TIP3   OH2 4361   5.128   4.520   5.422  0.1986  0.2170  0.3389
 1466TIP3    H1 4362   5.158   4.532   5.332 -0.5369 -0.1316  0.0428
 1466TIP3    H2 4363   5.207   4.497   5.470  0.1655 -2.6762 -0.7923
 1467TIP3   OH2 4364   6.537   1.968   3.689  0.3197 -0.3852  0.1454
 1467TIP3    H1 4365   6.574   1.948   3.603 -0.7286 -0.8337 -0.2148
 1467TIP3    H2 4366   6.612   1.996   3.742  1.0564 -0.6381 -0.7521
 1468TIP3   OH2 4367   5.659   2.018   3.414 -0.2912  0.0264 -0.0773
 1468TIP3    H1 4368   5.729   1.955   3.432 -1.1513 -1.0159 -0.2905
 1468TIP3    H2 4369   5.582   1.982   3.457 -0.7829  0.9795 -0.1379
 1469TIP3   OH2 4370   1.489   6.630   1.306  0.1305  0.5043 -0.4074
 1469TIP3    H1 4371   1.459   6.683   1.379  0.2595 -0.5546  0.4462
 1469TIP3    H2 4372   1.544   6.689   1.254  0.2361  1.2173  0.4830
 1470TIP3   OH2 4373   1.641   3.986   1.200  0.0687 -0.0342  0.3726
 1470TIP3    H1 4374   1.688   3.905   1.216 -0.5237 -1.1222 -2.6878
 1470TIP3    H2 4375   1.581   3.995   1.274  0.6413 -2.0065  1.1226
 1471TIP3   OH2 4376   4.145   0.680   0.569 -0.5529 -0.1931 -0.3568
 1471TIP3    H1 4377   4.060   0.718   0.546  0.1632  0.6702 -1.7132
 1471TIP3    H2 4378   4.128   0.628   0.648 -1.9504  1.4770  0.4954
 1472TIP3   OH2 4379   1.533   2.478   4.944 -0.1148 -0.0777  0.3244
 1472TIP3    H1 4380   1.465   2.470   4.876 -0.2479 -0.1464  0.4653
 1472TIP3    H2 4381   1.614   2.456   4.899 -0.3615 -1.4247  0.4936
 1473TIP3   OH2 4382   6.144   6.088   1.706 -0.2027 -0.3631 -0.1820
 1473TIP3    H1 4383   6.209   6.018   1.702 -0.6253 -0.7396 -0.7060
 1473TIP3    H2 4384   6.060   6.042   1.710 -0.5838  0.0740 -2.1286
 1474TIP3   OH2 4385   6.637   2.337   4.604 -0.0002 -0.3088 -0.5117
 1474TIP3    H1 4386   6.573   2.346   4.676 -1.2026  0.1601 -1.5910
 1474TIP3    H2 4387   6.587   2.360   4.526  1.8636  1.5377 -1.2592
 1475TIP3   OH2 4388   1.445   1.183   2.242 -0.0428 -0.1312  0.1203
 1475TIP3    H1 4389   1.535   1.207   2.263 -0.2481  0.5438  0.2607
 1475TIP3    H2 4390   1.392   1.256   2.276 -0.7396 -1.0424  1.0744
 1476TIP3   OH2 4391   1.695   3.936   1.535 -0.4591 -0.2833  0.2774
 1476TIP3    H1 4392   1.695   4.029   1.511 -0.4664 -0.6397 -1.2021
 1476TIP3    H2 4393   1.699   3.936   1.630  0.1444  1.2349  0.2848
 1477TIP3   OH2 4394   5.355   2.068   5.138 -0.1614  0.2399  0.1288
 1477TIP3    H1 4395   5.317   2.106   5.059 -0.9872  0.7465  0.7478
 1477TIP3    H2 4396   5.281   2.024   5.181 -0.2829  1.8644  1.7384
 1478TIP3   OH2 4397   3.732   1.901   5.202  0.3781  0.5565 -0.2372
 1478TIP3    H1 4398   3.697   1.841   5.269  0.4738  1.2242  0.4207
 1478TIP3    H2 4399   3.825   1.879   5.198  0.4317  0.7264  0.0712
 1479TIP3   OH2 4400   0.728   6.109   1.019 -0.0714 -0.5993 -0.1686
 1479TIP3    H1 4401   0.739   6.202   1.038 -0.2245 -0.7186  0.5103
 1479TIP3    H2 4402   0.643   6.086   1.056  0.1684 -1.1131  0.0669
 1480TIP3   OH2 4403   2.904   3.994   5.059 -0.2112 -0.1588 -0.5541
 1480TIP3    H1 4404   2.958   4.071   5.044  1.4477 -1.1386  0.0255
 1480TIP3    H2 4405   2.956   3.940   5.118 -1.8763 -1.1572  0.0694
 1481TIP3   OH2 4406   4.561   5.292   5.715 -0.1920  0.0197 -0.0735
 1481TIP3    H1 4407   4.647   5.331   5.699 -0.2215 -0.0525 -0.4088
 1481TIP3    H2 4408   4.576   5.229   5.786  0.4164 -1.3063 -1.3126
 1482TIP3   OH2 4409   3.139   1.655   2.478  0.7129  0.5123 -0.3577
 1482TIP3    H1 4410   3.198   1.726   2.503  0.7804 -0.0251  1.1367
 1482TIP3    H2 4411   3.095   1.687   2.400  3.0142  0.9150 -1.5981
 1483TIP3   OH2 4412   6.692   5.031   4.572 -0.8685 -0.0621  0.5903
 1483TIP3    H1 4413   6.676   5.071   4.486 -0.8583  0.3291  0.7674
 1483TIP3    H2 4414   6.782   4.999   4.566 -0.4615  0.9839  0.8364
 1484TIP3   OH2 4415   7.023   2.572   3.346  0.0246  0.1018  0.2540
 1484TIP3    H1 4416   7.089   2.617   3.293  0.2725 -0.3062  0.2132
 1484TIP3    H2 4417   7.047   2.480   3.340 -0.6714 -0.0672  0.0751
 1485TIP3   OH2 4418   4.455   0.240   2.821 -0.5044 -0.3749  0.5011
 1485TIP3    H1 4419   4.411   0.168   2.775 -1.5415  0.1943  0.5667
 1485TIP3    H2 4420   4.384   0.301   2.843  0.6064  1.7660 -1.5018
 1486TIP3   OH2 4421   3.799   0.267   4.614  0.5132  0.1046  0.0817
 1486TIP3    H1 4422   3.789   0.172   4.624  0.2984 -0.0297 -1.3115
 1486TIP3    H2 4423   3.743   0.290   4.540  0.0877  1.4275  0.7808
 1487TIP3   OH2 4424   4.480   1.325   3.922 -0.9638 -0.4049 -0.0814
 1487TIP3    H1 4425   4.495   1.420   3.926  1.3942 -0.6929 -0.7751
 1487TIP3    H2 4426   4.436   1.305   4.005  0.0275  1.0571  0.8469
 1488TIP3   OH2 4427   7.203   2.199   0.090 -0.2184  0.7226  0.0470
 1488TIP3    H1 4428   7.215   2.110   0.120  2.5877  0.5863 -1.1913
 1488TIP3    H2 4429   7.165   2.190   0.002  2.4015  0.5251 -1.1541
 1489TIP3   OH2 4430   0.629   4.651   5.415 -0.1926 -0.2097  0.0062
 1489TIP3    H1 4431   0.606   4.707   5.489  3.6905  0.6497  0.7946
 1489TIP3    H2 4432   0.609   4.704   5.338  0.8844  1.2588  0.6836
 1490TIP3   OH2 4433   6.784   2.647   5.082 -0.4987  0.6407 -0.4975
 1490TIP3    H1 4434   6.792   2.559   5.044  0.8656  0.9610 -0.9963
 1490TIP3    H2 4435   6.690   2.657   5.099 -0.7230 -0.7570 -0.8017
 1491TIP3   OH2 4436   2.020   0.273   3.311  0.3642  0.7917 -0.1810
 1491TIP3    H1 4437   2.095   0.321   3.275 -0.0822  0.6515 -1.3689
 1491TIP3    H2 4438   2.055   0.187   3.333  0.8993  1.2476  0.8172
 1492TIP3   OH2 4439   3.142   2.165   5.721 -0.5308  0.3485  0.1525
 1492TIP3    H1 4440   3.158   2.233   5.656 -0.8353 -0.1074 -0.4086
 1492TIP3    H2 4441   3.230   2.132   5.743 -0.4936 -0.3891 -1.0075
 1493TIP3   OH2 4442   3.829   4.923   5.737 -0.7372  0.1685  0.2257
 1493TIP3    H1 4443   3.742   4.962   5.745 -0.6411  0.4799 -0.2214
 1493TIP3    H2 4444   3.872   4.973   5.667 -0.0389  0.3110  0.7424
 1494TIP3   OH2 4445   1.791   6.225   4.666  0.7181 -0.4426 -1.1743
 1494TIP3    H1 4446   1.717   6.267   4.711  1.4759 -1.5252  1.1994
 1494TIP3    H2 4447   1.769   6.233   4.573 -1.4441  0.9518 -0.6273
 1495TIP3   OH2 4448   6.351   2.944   2.415  0.1248  0.1359  0.0439
 1495TIP3    H1 4449   6.363   2.958   2.508 -0.2594  0.9450 -0.0210
 1495TIP3    H2 4450   6.295   2.866   2.409 -0.2340  0.3525  0.5066
 1496TIP3   OH2 4451   1.375   2.847   0.424  0.0903 -0.0813  0.4033
 1496TIP3    H1 4452   1.388   2.853   0.518 -2.5602 -0.7660  0.8754
 1496TIP3    H2 4453   1.415   2.763   0.400 -1.0309 -0.8995  1.3044
 1497TIP3   OH2 4454   3.770   5.820   5.357  0.4358 -1.0231  0.5073
 1497TIP3    H1 4455   3.846   5.861   5.398 -1.4071  0.7067  2.4521
 1497TIP3    H2 4456   3.740   5.885   5.292  0.4619 -1.5838 -0.0743
 1498TIP3   OH2 4457   1.358   0.564   0.389 -0.0992 -0.3737  0.2199
 1498TIP3    H1 4458   1.313   0.624   0.330 -0.4625  0.7850  1.5961
 1498TIP3    H2 4459   1.440   0.609   0.411  1.2403 -1.9233 -1.3168
 1499TIP3   OH2 4460   0.208   2.951   3.588  0.3903 -0.5019 -0.0631
 1499TIP3    H1 4461   0.124   2.908   3.573 -0.7239  2.0123 -1.7196
 1499TIP3    H2 4462   0.262   2.929   3.512 -0.4966  1.5462 -1.3729
 1500TIP3   OH2 4463   2.772   6.180   2.195 -0.0975 -0.5701  0.0795
 1500TIP3    H1 4464   2.738   6.102   2.239 -0.1851 -1.1937 -1.0422
 1500TIP3    H2 4465   2.783   6.153   2.103  0.1662  0.6466 -0.2699
 1501TIP3   OH2 4466   0.903   2.118   4.439  0.0519  0.0150 -0.0190
 1501TIP3    H1 4467   0.871   2.053   4.502 -0.3221 -1.4158 -1.6077
 1501TIP3    H2 4468   0.968   2.070   4.387 -0.1337  0.9618 -1.1442
 1502TIP3   OH2 4469   1.539   3.332   1.190  0.2813 -0.2880 -0.0186
 1502TIP3    H1 4470   1.470   3.329   1.257 -0.0478 -1.4128 -0.3965
 1502TIP3    H2 4471   1.620   3.320   1.239  0.0196 -1.4057  0.1607
 1503TIP3   OH2 4472   5.052   3.699   4.846  0.3422  0.6322  0.4337
 1503TIP3    H1 4473   5.138   3.656   4.847 -0.1323 -0.3736 -0.3127
 1503TIP3    H2 4474   5.021   3.688   4.756 -0.1014  1.9560  0.4063
 1504TIP3   OH2 4475   7.178   5.447   3.183  0.1856  0.1340 -0.4952
 1504TIP3    H1 4476   7.179   5.352   3.176  0.1393  0.2079 -1.6062
 1504TIP3    H2 4477   7.086   5.470   3.193  0.2351  0.0458  0.2711
 1505TIP3   OH2 4478   1.529   1.119   5.832  0.6044  0.7256  0.0133
 1505TIP3    H1 4479   1.619   1.090   5.819  0.8803  1.2587  0.6499
 1505TIP3    H2 4480   1.515   1.187   5.767  0.8604  1.0535  0.2999
 1506TIP3   OH2 4481   5.046   4.368   4.276  0.0127  0.3189  0.3588
 1506TIP3    H1 4482   4.985   4.318   4.329 -1.8782 -0.9874 -2.7511
 1506TIP3    H2 4483   5.007   4.368   4.188  4.8198 -1.2961 -2.1278
 1507TIP3   OH2 4484   6.838   1.960   0.527 -0.0728  0.2156  0.9662
 1507TIP3    H1 4485   6.929   1.930   0.521 -0.1059  0.2496  0.0648
 1507TIP3    H2 4486   6.786   1.880   0.516 -0.1612  0.1361  1.8854
 1508TIP3   OH2 4487   0.827   0.635   1.720  0.1511  0.2241  0.2245
 1508TIP3    H1 4488   0.839   0.676   1.805 -1.2191 -1.2068  1.1849
 1508TIP3    H2 4489   0.898   0.571   1.714 -1.2476 -1.6106  1.6249
 1509TIP3   OH2 4490   3.188   0.894   0.616  0.4188 -0.1751  0.8361
 1509TIP3    H1 4491   3.246   0.818   0.609 -0.1396 -0.4132 -3.3889
 1509TIP3    H2 4492   3.248   0.969   0.625  1.1121 -0.7731  1.3301
 1510TIP3   OH2 4493   7.140   1.992   1.567 -0.4879 -0.2820  0.4934
 1510TIP3    H1 4494   7.223   1.944   1.571  0.4143  1.2307  3.6882
 1510TIP3    H2 4495   7.156   2.061   1.502  0.6152 -0.2725  0.7462
 1511TIP3   OH2 4496   3.850   5.816   4.688  0.5870  0.8966  0.6811
 1511TIP3    H1 4497   3.837   5.892   4.631  0.7297  0.7124  0.3975
 1511TIP3    H2 4498   3.804   5.838   4.769 -0.7904  0.5989  0.0103
 1512TIP3   OH2 4499   5.621   1.906   4.617  0.4478  0.1590 -0.0391
 1512TIP3    H1 4500   5.609   1.972   4.549 -0.8471  0.3404  0.3440
 1512TIP3    H2 4501   5.585   1.826   4.579 -1.2016  0.4806  0.7582
 1513TIP3   OH2 4502   0.673   1.816   5.599  0.3814 -0.1264 -0.0822
 1513TIP3    H1 4503   0.619   1.741   5.575  0.8661 -0.5642  0.1680
 1513TIP3    H2 4504   0.727   1.832   5.521 -0.2513  0.4539 -0.4152
 1514TIP3   OH2 4505   1.595   5.947   5.257 -0.2811 -0.7464 -0.1444
 1514TIP3    H1 4506   1.507   5.923   5.231  0.1518 -2.2804 -0.2499
 1514TIP3    H2 4507   1.583   5.990   5.342 -1.1504 -0.6493 -0.3041
 1515TIP3   OH2 4508   0.431   0.059   5.713 -0.0264  0.0189 -0.2936
 1515TIP3    H1 4509   0.497   0.068   5.644  0.5712  0.3605  0.3140
 1515TIP3    H2 4510   0.472   0.095   5.791 -0.1150 -1.7297  0.6139
 1516TIP3   OH2 4511   1.712   0.756   3.117 -0.0690 -0.3434 -0.6401
 1516TIP3    H1 4512   1.762   0.747   3.198  1.3446  2.5290 -1.0926
 1516TIP3    H2 4513   1.622   0.773   3.145  0.3134  0.1240  0.3295
 1517TIP3   OH2 4514   3.207   6.796   3.462  0.0022 -0.5320 -0.0256
 1517TIP3    H1 4515   3.202   6.724   3.399  1.5505 -1.0976  0.4386
 1517TIP3    H2 4516   3.197   6.875   3.409 -0.4360 -1.0498 -0.7249
 1518TIP3   OH2 4517   0.078   5.928   3.436 -0.4505  0.4127 -0.4435
 1518TIP3    H1 4518   0.165   5.931   3.396  0.2844  0.3710  1.0632
 1518TIP3    H2 4519   0.057   5.835   3.440 -0.5028  0.4139 -0.6720
 1519TIP3   OH2 4520   5.803   0.512   0.286 -0.1365  0.2196  0.3051
 1519TIP3    H1 4521   5.728   0.563   0.256 -1.6265 -1.1045  1.6043
 1519TIP3    H2 4522   5.828   0.459   0.210 -0.6193  0.5507 -0.0907
 1520TIP3   OH2 4523   0.299   1.051   3.012  0.0537  0.2636 -0.0892
 1520TIP3    H1 4524   0.211   1.028   3.044 -0.6332 -0.5863 -2.3972
 1520TIP3    H2 4525   0.321   1.133   3.057 -2.0610  0.6774  0.2741
 1521TIP3   OH2 4526   7.164   3.551   1.881  0.5639  0.3803  0.0116
 1521TIP3    H1 4527   7.084   3.527   1.927  0.5013 -1.8889 -1.1276
 1521TIP3    H2 4528   7.154   3.645   1.862 -2.8566 -0.1930 -1.9540
 1522TIP3   OH2 4529   3.354   4.818   3.070  0.2785 -0.2501 -0.2747
 1522TIP3    H1 4530   3.428   4.773   3.032  0.7844 -0.6991  1.1669
 1522TIP3    H2 4531   3.367   4.811   3.165 -0.2704  1.8529  0.0158
 1523TIP3   OH2 4532   5.552   3.996   0.456  0.2843 -0.3751 -0.0679
 1523TIP3    H1 4533   5.566   3.952   0.372 -0.6535 -1.0455  0.1192
 1523TIP3    H2 4534   5.578   4.087   0.439  2.0025 -0.9017 -0.5266
 1524TIP3   OH2 4535   0.500   4.686   3.593 -0.6109  0.0340  0.2371
 1524TIP3    H1 4536   0.463   4.774   3.590  1.3597  0.9453  1.1175
 1524TIP3    H2 4537   0.579   4.695   3.646  0.3232 -2.0302 -0.7075
 1525TIP3   OH2 4538   6.842   1.889   2.101 -0.5093 -0.3377  0.0209
 1525TIP3    H1 4539   6.924   1.840   2.110 -0.6423 -0.5579  0.0460
 1525TIP3    H2 4540   6.853   1.965   2.158  0.3235  0.5066 -1.2322
 1526TIP3   OH2 4541   3.099   6.197   0.607 -0.0493 -0.1619  0.0543
 1526TIP3    H1 4542   3.035   6.137   0.646  0.9294 -0.4888  1.2021
 1526TIP3    H2 4543   3.060   6.284   0.616 -0.8224 -0.4592 -0.2949
 1527TIP3   OH2 4544   0.993   0.218   5.716  0.2871  0.4993 -0.1943
 1527TIP3    H1 4545   1.040   0.245   5.795  1.0214  0.5550 -0.6389
 1527TIP3    H2 4546   0.981   0.123   5.727 -0.1048  0.5939  0.2313
 1528TIP3   OH2 4547   5.840   0.430   5.870 -0.2432  0.0796 -0.4168
 1528TIP3    H1 4548   5.754   0.403   5.837  1.0031 -1.2197 -2.8848
 1528TIP3    H2 4549   5.873   0.354   5.916 -0.4223  0.6261  0.6487
 1529TIP3   OH2 4550   0.018   4.844   0.012  0.5262  0.1775 -0.1765
 1529TIP3    H1 4551   0.030   4.771   0.073 -0.8911  0.1269  0.0778
 1529TIP3    H2 4552  -0.032   4.909   0.063  1.3649  1.1334 -0.5460
 1530TIP3   OH2 4553   4.672   6.112   3.758  0.2112 -0.3065  0.1888
 1530TIP3    H1 4554   4.577   6.121   3.748  0.1089 -2.5620 -1.6455
 1530TIP3    H2 4555   4.685   6.090   3.850 -1.1842 -1.3149  0.1670
 1531TIP3   OH2 4556   4.315   5.404   4.376  0.3799 -0.2823  0.0402
 1531TIP3    H1 4557   4.228   5.389   4.339  0.5105 -1.4108  0.1610
 1531TIP3    H2 4558   4.299   5.431   4.466  0.1761 -2.1657  0.6077
 1532TIP3   OH2 4559   0.027   2.320   1.573  0.7141  0.0304 -0.4266
 1532TIP3    H1 4560   0.042   2.275   1.656 -0.9861 -1.3401 -0.8124
 1532TIP3    H2 4561   0.053   2.256   1.506 -1.1092 -0.1808 -0.9738
 1533TIP3   OH2 4562   4.532   2.884   0.423 -0.3042  0.2870 -0.1346
 1533TIP3    H1 4563   4.547   2.890   0.517 -0.2761  0.4113 -0.1462
 1533TIP3    H2 4564   4.597   2.943   0.385 -1.5601  1.7529 -0.1202
 1534TIP3   OH2 4565   3.824   1.743   1.759  0.2185 -0.2963  0.1536
 1534TIP3    H1 4566   3.739   1.720   1.720 -1.1669  1.2348  2.0534
 1534TIP3    H2 4567   3.881   1.760   1.684 -1.3961 -0.5129 -1.1875
 1535TIP3   OH2 4568   6.244   0.949   1.412 -0.3587 -0.2907 -0.0627
 1535TIP3    H1 4569   6.286   0.878   1.461  0.8739  1.2108  1.1677
 1535TIP3    H2 4570   6.183   0.988   1.474 -1.3846 -0.5496 -0.8850
 1536TIP3   OH2 4571   5.464   3.132   1.013  0.4291 -0.3861 -0.2456
 1536TIP3    H1 4572   5.427   3.171   1.092  1.3857 -0.4653  0.2626
 1536TIP3    H2 4573   5.405   3.061   0.990  0.0009 -0.1926  0.2392
 1537TIP3   OH2 4574   2.101   3.171   1.140 -0.1911 -0.0432 -0.4052
 1537TIP3    H1 4575   2.152   3.093   1.117 -0.8825 -0.2657 -1.1992
 1537TIP3    H2 4576   2.112   3.230   1.066  0.2022  0.5636  0.1266
 1538TIP3   OH2 4577   3.245   0.972   3.552 -0.4230  0.4549  0.3692
 1538TIP3    H1 4578   3.203   0.921   3.621  0.6514 -0.8673  0.1011
 1538TIP3    H2 4579   3.211   0.934   3.471 -0.6710  1.1143  0.1586
 1539TIP3   OH2 4580   5.817   2.473   3.539  0.1271 -0.0282 -0.0588
 1539TIP3    H1 4581   5.827   2.560   3.501  0.3745 -0.4846 -1.0720
 1539TIP3    H2 4582   5.870   2.475   3.619  0.3984  0.6352 -0.2555
 1540TIP3   OH2 4583   0.059   4.953   3.037  0.1877 -0.3382 -0.2942
 1540TIP3    H1 4584   0.153   4.937   3.031  0.6107  1.8312 -0.0958
 1540TIP3    H2 4585   0.027   4.887   3.099  1.8243 -0.1786  0.7738
 1541TIP3   OH2 4586   3.390   6.114   4.648  0.2277  0.5617 -0.0349
 1541TIP3    H1 4587   3.366   6.073   4.565  0.6313 -0.7657  0.4663
 1541TIP3    H2 4588   3.349   6.200   4.646  1.2963  1.0741 -2.1450
 1542TIP3   OH2 4589   6.386   5.023   2.644 -0.3851 -0.3466  0.8386
 1542TIP3    H1 4590   6.318   5.085   2.618 -2.0587 -1.9235  1.2632
 1542TIP3    H2 4591   6.446   5.075   2.697 -1.4084  1.0457  0.6883
 1543TIP3   OH2 4592   5.319   2.307   3.766 -0.1386  0.2881  0.1746
 1543TIP3    H1 4593   5.360   2.223   3.789 -2.2922 -0.7371  0.5603
 1543TIP3    H2 4594   5.250   2.318   3.832 -0.6562  1.7913 -0.5759
 1544TIP3   OH2 4595   1.250   2.498   0.545 -0.5650 -0.0898  0.3811
 1544TIP3    H1 4596   1.316   2.550   0.591 -0.7964  0.7577 -0.2171
 1544TIP3    H2 4597   1.178   2.490   0.607  0.3173 -1.5359  1.2651
 1545TIP3   OH2 4598   1.108   3.677   0.618  0.0331 -0.0833  0.6232
 1545TIP3    H1 4599   1.148   3.701   0.701  0.0304  1.4397  0.2238
 1545TIP3    H2 4600   1.025   3.725   0.616 -0.0024 -0.1584 -0.2026
 1546TIP3   OH2 4601   4.261   6.700   5.322 -0.8662  0.6164  0.0413
 1546TIP3    H1 4602   4.238   6.668   5.235 -0.0186  0.1363 -0.0151
 1546TIP3    H2 4603   4.348   6.663   5.339 -0.4747  1.7442  0.5678
 1547TIP3   OH2 4604   5.558   5.385   0.727  0.9601  0.5675 -0.0105
 1547TIP3    H1 4605   5.558   5.464   0.674 -1.4056  1.7653  1.6033
 1547TIP3    H2 4606   5.475   5.342   0.706  1.6227 -0.8220  0.1054
 1548TIP3   OH2 4607   6.705   1.566   4.712  0.8352  0.2060  0.0330
 1548TIP3    H1 4608   6.698   1.471   4.727  1.0913  0.1732 -0.0388
 1548TIP3    H2 4609   6.789   1.589   4.752  1.0533  0.2970 -0.4719
 1549TIP3   OH2 4610   3.107   0.112   1.272  0.3466  0.6864 -0.6066
 1549TIP3    H1 4611   3.116   0.018   1.254  0.3177  0.3286  1.0187
 1549TIP3    H2 4612   3.196   0.140   1.294 -0.0576  0.2734  1.9636
 1550TIP3   OH2 4613   5.668   5.004   0.986  0.2067  0.0940 -0.3596
 1550TIP3    H1 4614   5.629   5.002   1.074 -0.7100  1.8222 -0.6763
 1550TIP3    H2 4615   5.600   4.967   0.929 -0.7838  2.3828 -0.8009
 1551TIP3   OH2 4616   2.695   0.401   2.309  0.4997  0.2514  0.0216
 1551TIP3    H1 4617   2.621   0.370   2.361  0.1756  1.8986  0.5924
 1551TIP3    H2 4618   2.706   0.334   2.241 -0.6394 -0.6944  0.7241
 1552TIP3   OH2 4619   1.637   5.458   5.660  0.3983  0.2447 -0.3156
 1552TIP3    H1 4620   1.560   5.461   5.716  1.4610  0.7648  1.1794
 1552TIP3    H2 4621   1.703   5.411   5.711  1.6461  1.4057 -0.7891
 1553TIP3   OH2 4622   3.655   2.663   2.836 -0.1207  0.4116  0.4269
 1553TIP3    H1 4623   3.565   2.685   2.811 -0.0513 -0.0565 -0.2634
 1553TIP3    H2 4624   3.686   2.607   2.766  1.1988  1.7052 -0.0795
 1554TIP3   OH2 4625   4.493   5.234   2.419 -0.4863  0.4398  0.3684
 1554TIP3    H1 4626   4.419   5.174   2.432  0.6802 -1.9208 -2.6293
 1554TIP3    H2 4627   4.470   5.281   2.339  1.5588 -1.1273 -1.2644
 1555TIP3   OH2 4628   2.389   0.158   0.972 -0.6305 -0.1016 -0.0470
 1555TIP3    H1 4629   2.456   0.156   0.904 -1.4935  0.6696 -0.9448
 1555TIP3    H2 4630   2.379   0.250   0.994  0.7459 -0.4248  2.3077
 1556TIP3   OH2 4631   0.298   5.998   1.955 -0.0408 -0.3144  0.3663
 1556TIP3    H1 4632   0.283   5.908   1.925  0.0545  0.0652 -0.8616
 1556TIP3    H2 4633   0.283   6.052   1.878  1.1748  0.6292  0.7657
 1557TIP3   OH2 4634   2.412   0.953   3.338 -0.0404 -0.1394  0.4472
 1557TIP3    H1 4635   2.429   0.910   3.422  0.3878 -1.0204 -0.0804
 1557TIP3    H2 4636   2.354   0.894   3.291 -0.1826  0.2914  0.0705
 1558TIP3   OH2 4637   1.706   0.247   0.119 -0.5456 -0.2500  0.5029
 1558TIP3    H1 4638   1.749   0.162   0.115  1.0273  0.5289 -0.1059
 1558TIP3    H2 4639   1.618   0.228   0.154 -0.2155 -2.0848  0.4502
 1559TIP3   OH2 4640   6.784   5.031   2.468 -0.3146 -0.1200  0.0184
 1559TIP3    H1 4641   6.855   4.989   2.420 -0.4078 -1.5679  1.1026
 1559TIP3    H2 4642   6.704   4.999   2.425 -0.3760 -0.8374  0.6475
 1560TIP3   OH2 4643   1.825   2.658   0.169  0.2718 -0.4744 -0.2374
 1560TIP3    H1 4644   1.920   2.668   0.178  0.5131 -0.7711 -2.1323
 1560TIP3    H2 4645   1.797   2.735   0.119 -1.0167  1.2220  2.7599
 1561TIP3   OH2 4646   6.975   0.403   5.706 -0.1225 -0.1892 -0.3309
 1561TIP3    H1 4647   6.961   0.487   5.750  3.1163 -1.1852  3.1596
 1561TIP3    H2 4648   6.901   0.349   5.733  0.8513 -0.2002  2.7337
 1562TIP3   OH2 4649   2.885   5.360   1.302  0.5429 -0.2390 -0.5914
 1562TIP3    H1 4650   2.967   5.386   1.262  0.7107 -1.2664 -0.9594
 1562TIP3    H2 4651   2.818   5.382   1.238  0.1032  3.3845  0.8706
 1563TIP3   OH2 4652   4.292   0.139   3.754  0.2231  0.1889  0.7489
 1563TIP3    H1 4653   4.387   0.138   3.742  0.2911  3.4642  0.1410
 1563TIP3    H2 4654   4.279   0.164   3.845 -0.1927 -2.8720  1.6520
 1564TIP3   OH2 4655   1.688   1.092   0.870 -0.1454  0.0341 -0.1611
 1564TIP3    H1 4656   1.672   1.009   0.915 -1.2466 -0.0967 -0.7491
 1564TIP3    H2 4657   1.639   1.157   0.921  1.8751  0.6249  1.1469
 1565TIP3   OH2 4658   3.683   6.376   4.209  0.5839 -0.3674  0.5195
 1565TIP3    H1 4659   3.689   6.353   4.116  1.9298  1.2647  0.1461
 1565TIP3    H2 4660   3.590   6.390   4.225  0.2152 -1.7572 -0.2901
 1566TIP3   OH2 4661   6.930   0.080   4.006 -0.7972 -0.3525 -0.1764
 1566TIP3    H1 4662   6.972   0.136   4.071 -1.6842 -1.4796  1.4398
 1566TIP3    H2 4663   7.001   0.031   3.966 -0.3533 -0.6134  0.9098
 1567TIP3   OH2 4664   3.238   1.292   1.374 -0.0825 -0.1403  0.3297
 1567TIP3    H1 4665   3.160   1.281   1.320 -0.0546 -1.7172  0.5670
 1567TIP3    H2 4666   3.220   1.370   1.426 -0.3853  1.0432 -1.4501
 1568TIP3   OH2 4667   6.179   1.705   5.483  0.1862  0.4021 -0.1982
 1568TIP3    H1 4668   6.143   1.616   5.481  0.0165  0.4692 -0.2236
 1568TIP3    H2 4669   6.274   1.693   5.486  0.3089  0.2160 -2.8424
 1569TIP3   OH2 4670   5.302   1.969   3.291 -0.3376  0.3881 -0.1334
 1569TIP3    H1 4671   5.222   1.967   3.344 -0.0658  0.1825  0.2811
 1569TIP3    H2 4672   5.371   1.945   3.353 -0.0323 -0.0195 -0.6289
 1570TIP3   OH2 4673   1.422   4.169   1.725 -0.6281 -0.2111 -0.5760
 1570TIP3    H1 4674   1.467   4.179   1.641 -1.1266 -1.1358 -0.9694
 1570TIP3    H2 4675   1.332   4.195   1.708 -0.2335  1.9388  0.2888
 1571TIP3   OH2 4676   3.075   6.043   2.723 -0.2670 -0.3434 -0.4721
 1571TIP3    H1 4677   3.156   6.093   2.736 -0.3890 -0.4199  0.5937
 1571TIP3    H2 4678   3.044   6.072   2.637  0.3543  0.4434 -0.4490
 1572TIP3   OH2 4679   5.737   4.485   1.357  0.1475 -0.1015  0.4091
 1572TIP3    H1 4680   5.798   4.480   1.430 -0.2809 -1.3507  0.7093
 1572TIP3    H2 4681   5.659   4.526   1.393  0.4021  0.4814  0.3072
 1573TIP3   OH2 4682   5.280   0.775   0.123 -0.1072  0.0585  0.2456
 1573TIP3    H1 4683   5.326   0.789   0.206  0.3054  1.4085 -0.1845
 1573TIP3    H2 4684   5.326   0.831   0.060 -1.4641  0.3901 -0.5075
 1574TIP3   OH2 4685   1.448   4.877   2.387  0.1381 -0.0555  0.1605
 1574TIP3    H1 4686   1.406   4.937   2.325  0.2018 -1.1270 -0.9470
 1574TIP3    H2 4687   1.377   4.824   2.422  0.2490 -0.1877  0.1848
 1575TIP3   OH2 4688   6.911   0.173   1.269 -0.5151  0.0929  0.4017
 1575TIP3    H1 4689   6.936   0.133   1.352 -2.9664 -1.1624  0.6191
 1575TIP3    H2 4690   6.843   0.236   1.292 -1.4816 -0.5199 -0.6586
 1576TIP3   OH2 4691   0.670   6.043   2.287 -0.3996  1.0245  0.3414
 1576TIP3    H1 4692   0.603   5.986   2.248 -1.6851  1.4864  1.7466
 1576TIP3    H2 4693   0.630   6.073   2.368  1.5432  1.3631  1.2111
 1577TIP3   OH2 4694   0.732   5.688   4.112  0.0590  0.4551  0.0383
 1577TIP3    H1 4695   0.732   5.735   4.029  3.4064 -0.2468 -0.5191
 1577TIP3    H2 4696   0.772   5.604   4.092 -1.5493 -0.8412  1.8957
 1578TIP3   OH2 4697   2.269   1.792   1.750 -0.2004 -0.0459 -0.4614
 1578TIP3    H1 4698   2.282   1.720   1.812  0.2789 -0.9669 -1.5961
 1578TIP3    H2 4699   2.354   1.836   1.747 -0.5431  0.7169  0.3699
 1579TIP3   OH2 4700   0.972   3.004   0.028  0.4130 -0.4391  0.4900
 1579TIP3    H1 4701   1.005   3.081   0.075 -0.4078  0.5916 -0.5898
 1579TIP3    H2 4702   1.012   3.010  -0.059  0.9445 -1.6697  0.6280
 1580TIP3   OH2 4703   3.866   5.163   3.968  0.4816  0.4059 -0.2103
 1580TIP3    H1 4704   3.776   5.162   4.000  0.8243 -1.1883  0.8412
 1580TIP3    H2 4705   3.879   5.252   3.935 -1.7617  0.3820 -1.3145
 1581TIP3   OH2 4706   5.127   5.377   1.624  0.1849 -0.2078 -0.1041
 1581TIP3    H1 4707   5.156   5.432   1.551  0.5162  0.6062  0.6155
 1581TIP3    H2 4708   5.182   5.299   1.619  0.5545  0.0690 -0.4420
 1582TIP3   OH2 4709   5.736   6.031   0.864 -0.3582 -0.2147 -0.1091
 1582TIP3    H1 4710   5.759   6.083   0.787  1.5447 -2.0889 -0.8975
 1582TIP3    H2 4711   5.655   5.986   0.838  0.0833 -0.5711 -0.9373
 1583TIP3   OH2 4712   2.763   4.683   3.374 -0.2213 -0.7854 -0.4869
 1583TIP3    H1 4713   2.709   4.614   3.336 -0.0545 -0.7468 -0.7977
 1583TIP3    H2 4714   2.853   4.657   3.353 -0.1194 -0.8129 -0.0362
 1584TIP3   OH2 4715   2.081   0.996   3.174 -0.4416  0.0673 -0.5161
 1584TIP3    H1 4716   2.109   0.905   3.170 -1.7026 -0.4136  0.7550
 1584TIP3    H2 4717   2.127   1.032   3.250  1.6005  1.1197 -2.1296
 1585TIP3   OH2 4718   2.238   4.010   2.545  0.5901  0.1344 -0.7992
 1585TIP3    H1 4719   2.216   3.921   2.517  0.6106 -0.0023 -0.3948
 1585TIP3    H2 4720   2.178   4.066   2.497 -0.0632 -0.1718 -0.3545
 1586TIP3   OH2 4721   0.211   0.350   5.156  0.0045 -0.3370 -0.1294
 1586TIP3    H1 4722   0.212   0.278   5.093  0.9449 -0.0215 -0.4960
 1586TIP3    H2 4723   0.222   0.429   5.103 -0.6692  0.0503  0.2966
 1587TIP3   OH2 4724   0.758   5.792   3.860  0.2580  0.0248  0.3264
 1587TIP3    H1 4725   0.704   5.747   3.795 -1.5746  2.1640  0.2357
 1587TIP3    H2 4726   0.831   5.828   3.810 -1.0392  1.4958 -0.6189
 1588TIP3   OH2 4727   2.660   1.999   2.026 -1.0275  0.3664  0.1400
 1588TIP3    H1 4728   2.637   2.004   2.119  1.4336 -2.4442  1.0551
 1588TIP3    H2 4729   2.618   1.919   1.995  0.0219  0.0651 -0.5446
 1589TIP3   OH2 4730   1.484   0.872   3.236 -0.2417 -0.0691  0.0035
 1589TIP3    H1 4731   1.469   0.948   3.180 -1.2837  0.2584  0.6867
 1589TIP3    H2 4732   1.405   0.865   3.289  0.4946 -0.6677  1.0831
 1590TIP3   OH2 4733   3.589   3.577   0.895 -0.1267 -0.7059 -0.0528
 1590TIP3    H1 4734   3.496   3.554   0.901 -0.5991  1.2250  0.4936
 1590TIP3    H2 4735   3.591   3.672   0.902  1.8642 -0.6638 -0.6613
 1591TIP3   OH2 4736   0.028   6.556   1.776  0.0873  0.3707 -0.1401
 1591TIP3    H1 4737  -0.016   6.634   1.743 -1.3712 -0.0822  0.6090
 1591TIP3    H2 4738   0.063   6.513   1.698 -1.3584  0.4506 -0.8724
 1592TIP3   OH2 4739   6.466   5.367   4.671 -0.0895 -0.0897  0.3678
 1592TIP3    H1 4740   6.473   5.294   4.609 -0.6501 -0.1514  0.3704
 1592TIP3    H2 4741   6.413   5.333   4.743  1.5348 -0.4081  1.4805
 1593TIP3   OH2 4742   0.158   5.180   2.896 -0.2224 -0.2729  0.0895
 1593TIP3    H1 4743   0.154   5.103   2.953  0.2735 -0.4103 -0.0549
 1593TIP3    H2 4744   0.248   5.210   2.902 -0.6771  0.9895  1.0146
 1594TIP3   OH2 4745   1.548   0.115   5.120 -0.1261  0.2947 -0.1487
 1594TIP3    H1 4746   1.633   0.085   5.152 -0.0987  1.8149  1.3376
 1594TIP3    H2 4747   1.487   0.045   5.144  0.8825 -1.7106 -2.8954
 1595TIP3   OH2 4748   3.339   0.667   4.779 -0.5251 -0.3415  0.1928
 1595TIP3    H1 4749   3.266   0.660   4.840 -1.1845 -1.2772 -0.6736
 1595TIP3    H2 4750   3.415   0.683   4.834 -1.4187  1.0783  1.0964
 1596TIP3   OH2 4751   0.352   5.398   4.685  0.5626 -0.6001 -0.1129
 1596TIP3    H1 4752   0.332   5.417   4.777  0.6499 -2.7633  0.4254
 1596TIP3    H2 4753   0.424   5.457   4.663  0.2646  0.2488  1.0722
 1597TIP3   OH2 4754   6.658   5.987   2.960  0.2958 -0.0136 -0.0053
 1597TIP3    H1 4755   6.707   6.067   2.942  2.2551 -1.1485  0.0957
 1597TIP3    H2 4756   6.588   6.016   3.020  1.6572  1.4254  0.9792
 1598TIP3   OH2 4757   1.947   1.846   5.780 -0.2932 -0.1536  0.2823
 1598TIP3    H1 4758   1.959   1.940   5.762 -0.5084 -0.6289 -2.8513
 1598TIP3    H2 4759   1.853   1.836   5.794 -0.0264  0.3536  2.9890
 1599TIP3   OH2 4760   0.433   5.536   5.681 -0.0773  0.0298  0.4489
 1599TIP3    H1 4761   0.442   5.596   5.607 -1.2827 -0.6872 -0.3022
 1599TIP3    H2 4762   0.512   5.482   5.678  0.0303  0.2162 -0.1225
 1600TIP3   OH2 4763   1.722   3.893   3.188  0.3847 -0.0760  0.1717
 1600TIP3    H1 4764   1.664   3.960   3.152  1.5313  0.8545 -0.0111
 1600TIP3    H2 4765   1.783   3.941   3.244  1.6463 -0.8480 -0.4853
 1601TIP3   OH2 4766   0.966   3.775   3.305  0.3097 -0.1829 -0.1591
 1601TIP3    H1 4767   0.899   3.712   3.281 -1.3186  1.1155  0.7601
 1601TIP3    H2 4768   0.957   3.786   3.399 -0.3759  2.3300 -0.4408
 1602TIP3   OH2 4769   3.714   1.746   1.111  0.2103 -0.4564  0.5436
 1602TIP3    H1 4770   3.749   1.657   1.109 -0.6765 -0.8061 -0.6312
 1602TIP3    H2 4771   3.659   1.752   1.033 -2.3911  0.0550  2.2869
 1603TIP3   OH2 4772   4.611   1.556   0.563 -0.6340  0.1319  0.1237
 1603TIP3    H1 4773   4.599   1.584   0.654 -0.2070  0.0693  0.2001
 1603TIP3    H2 4774   4.618   1.637   0.513  4.1060  0.3747  0.7640
 1604TIP3   OH2 4775   0.784   6.503   0.855  0.4426 -0.4419 -0.1574
 1604TIP3    H1 4776   0.751   6.592   0.861  1.4651 -0.1207  1.3400
 1604TIP3    H2 4777   0.713   6.449   0.891  0.0807 -0.1778 -0.4619
 1605TIP3   OH2 4778   4.745   2.252   4.144 -0.0006 -0.5143 -0.4473
 1605TIP3    H1 4779   4.813   2.311   4.175  0.7381 -1.3740 -0.3927
 1605TIP3    H2 4780   4.680   2.309   4.103  0.6402  0.3352 -0.2971
 1606TIP3   OH2 4781   1.915   5.428   3.491 -0.2340  0.2905 -0.6979
 1606TIP3    H1 4782   1.837   5.430   3.435 -1.0714 -1.3655  0.3143
 1606TIP3    H2 4783   1.969   5.358   3.454 -0.3603 -0.1847  0.0042
 1607TIP3   OH2 4784   6.675   2.906   0.735 -0.0531  0.0256  0.4868
 1607TIP3    H1 4785   6.583   2.930   0.747 -0.0040  0.6966 -0.3544
 1607TIP3    H2 4786   6.672   2.834   0.671 -0.0246 -0.3193  0.8717
 1608TIP3   OH2 4787   1.465   5.109   3.136 -0.3440  0.2483 -0.6355
 1608TIP3    H1 4788   1.386   5.159   3.117  1.5022  2.8280 -2.1328
 1608TIP3    H2 4789   1.510   5.101   3.052  1.3134 -0.5351  0.2598
 1609TIP3   OH2 4790   2.224   0.145   3.945  0.0061  0.1868  0.3191
 1609TIP3    H1 4791   2.149   0.118   3.998 -0.1863  0.4032  0.1560
 1609TIP3    H2 4792   2.209   0.238   3.927 -0.2029 -0.0025 -0.5583
 1610TIP3   OH2 4793   6.692   5.894   4.648  0.2439 -0.5746 -0.5130
 1610TIP3    H1 4794   6.713   5.896   4.555 -0.7188 -1.0011 -0.7494
 1610TIP3    H2 4795   6.758   5.835   4.686  0.0966 -1.1081 -1.0736
 1611TIP3   OH2 4796   4.065   5.894   5.348  0.1795  0.1429  0.3612
 1611TIP3    H1 4797   4.091   5.803   5.363 -1.3632 -0.5367 -0.8360
 1611TIP3    H2 4798   4.019   5.893   5.264 -2.5086  1.4229  1.6858
 1612TIP3   OH2 4799   4.648   6.035   3.416  0.0925 -0.1104 -0.6171
 1612TIP3    H1 4800   4.703   6.101   3.459  2.1534 -2.7337  1.1024
 1612TIP3    H2 4801   4.680   6.030   3.327  1.0251  0.1024 -0.2992
 1613TIP3   OH2 4802   6.027   1.708   3.394  0.6991  0.3766 -0.4866
 1613TIP3    H1 4803   6.062   1.651   3.462 -0.8919  1.7983  1.6476
 1613TIP3    H2 4804   6.098   1.715   3.329  3.0474  0.4814  1.9351
 1614TIP3   OH2 4805   4.997   4.982   2.415  0.1884 -0.0823 -0.0946
 1614TIP3    H1 4806   4.952   4.967   2.331 -0.4553 -1.4634  0.4507
 1614TIP3    H2 4807   4.954   4.921   2.475  0.8996  0.6153  1.1536
 1615TIP3   OH2 4808   3.182   1.645   5.070 -0.2798 -0.7225  0.2420
 1615TIP3    H1 4809   3.187   1.655   5.165 -0.9356  0.2334  0.1908
 1615TIP3    H2 4810   3.089   1.647   5.051 -0.1209  0.1208 -0.5137
 1616TIP3   OH2 4811   2.791   2.144   2.911  0.2705 -0.1714 -0.1018
 1616TIP3    H1 4812   2.879   2.169   2.882 -0.3190  0.3375 -1.5898
 1616TIP3    H2 4813   2.743   2.128   2.829 -1.8913  2.6063  0.4569
 1617TIP3   OH2 4814   3.564   3.230   1.884 -0.1005  0.1154  0.2100
 1617TIP3    H1 4815   3.625   3.259   1.816  0.8285  1.0433  1.3863
 1617TIP3    H2 4816   3.608   3.157   1.927 -0.8392 -0.7002 -0.3778
 1618TIP3   OH2 4817   1.589   5.390   4.371  0.4619  0.4841  0.1767
 1618TIP3    H1 4818   1.577   5.301   4.338  0.4205 -0.2885  2.1957
 1618TIP3    H2 4819   1.661   5.425   4.319  0.3985 -0.6515 -0.7324
 1619TIP3   OH2 4820   5.288   1.049   4.041 -0.1307 -0.1359  0.7609
 1619TIP3    H1 4821   5.231   1.116   4.078 -0.9903 -0.1139 -0.5326
 1619TIP3    H2 4822   5.296   1.073   3.949  0.0400 -1.4697  0.4114
 1620TIP3   OH2 4823   1.315   5.055   4.109 -0.5969 -0.2113 -0.1364
 1620TIP3    H1 4824   1.302   5.104   4.191 -1.5250  0.1311 -0.4831
 1620TIP3    H2 4825   1.396   5.092   4.073  1.6484 -2.4729  2.1056
 1621TIP3   OH2 4826   2.118   5.205   2.675  0.5496  0.2078  0.0580
 1621TIP3    H1 4827   2.204   5.246   2.671  0.3676  0.4847 -1.9768
 1621TIP3    H2 4828   2.058   5.278   2.692  0.4621  0.4852 -1.3091
 1622TIP3   OH2 4829   0.498   0.361   4.509 -0.5902  0.2685 -0.4096
 1622TIP3    H1 4830   0.409   0.334   4.488 -0.5968 -1.0133  1.1041
 1622TIP3    H2 4831   0.537   0.285   4.551  1.6321  0.3994 -2.0602
 1623TIP3   OH2 4832   6.215   6.382   0.218  0.1369 -0.2879 -0.1371
 1623TIP3    H1 4833   6.222   6.467   0.261  5.4154 -0.1319 -0.5920
 1623TIP3    H2 4834   6.231   6.318   0.288  0.7978 -0.5330 -0.4982
 1624TIP3   OH2 4835   6.766   5.504   1.327 -0.3150  0.0331 -0.3775
 1624TIP3    H1 4836   6.829   5.475   1.393 -0.8730 -0.8179 -0.2001
 1624TIP3    H2 4837   6.732   5.587   1.361  0.1916  0.1495 -0.1412
 1625TIP3   OH2 4838   1.951   4.375   0.536  0.0641 -0.0023 -0.3390
 1625TIP3    H1 4839   1.877   4.435   0.532  0.3896  0.3600 -1.1360
 1625TIP3    H2 4840   1.970   4.354   0.444  0.8639 -0.1960 -0.1408
 1626TIP3   OH2 4841   4.540   1.427   3.149 -0.7352  0.5736  0.0559
 1626TIP3    H1 4842   4.606   1.375   3.105 -0.3102  0.5136  0.7468
 1626TIP3    H2 4843   4.547   1.514   3.110  0.3985  0.8194  0.7715
 1627TIP3   OH2 4844   6.741   2.348   3.600  0.0906 -0.2033  0.5428
 1627TIP3    H1 4845   6.787   2.370   3.519 -0.9615  1.2259  0.2991
 1627TIP3    H2 4846   6.790   2.393   3.669  1.4173 -1.9997  0.8624
 1628TIP3   OH2 4847   5.283   4.093   2.080  0.6816  0.1834  0.3249
 1628TIP3    H1 4848   5.221   4.084   2.152  0.8396 -0.2374  0.4123
 1628TIP3    H2 4849   5.242   4.155   2.020  0.1884 -0.0801  0.3878
 1629TIP3   OH2 4850   2.349   6.300   2.273  0.2670 -0.1951 -0.0611
 1629TIP3    H1 4851   2.386   6.230   2.327  1.3907 -1.1175 -1.9498
 1629TIP3    H2 4852   2.316   6.256   2.195  1.4246  1.3875 -1.5227
 1630TIP3   OH2 4853   4.183   4.955   4.231  0.1962 -0.1007  0.2467
 1630TIP3    H1 4854   4.192   4.904   4.151  0.3879  0.3242 -0.0055
 1630TIP3    H2 4855   4.268   4.998   4.242  0.3932 -0.6841  1.0455
 1631TIP3   OH2 4856   5.966   4.102   4.051 -0.1667 -0.5162  0.2508
 1631TIP3    H1 4857   5.986   4.103   4.144 -0.5842 -0.7360  0.3498
 1631TIP3    H2 4858   5.887   4.156   4.043  0.2090 -0.0050 -0.0625
 1632TIP3   OH2 4859   7.094   6.103   2.574 -0.6123  0.4161  0.4926
 1632TIP3    H1 4860   7.003   6.130   2.574 -0.5588  0.7682  2.8919
 1632TIP3    H2 4861   7.134   6.153   2.645  1.8432  1.4335 -1.4295
 1633TIP3   OH2 4862   6.635   4.686   3.153 -0.7144 -0.1385 -0.0876
 1633TIP3    H1 4863   6.712   4.629   3.145 -0.9149 -0.6775  1.5701
 1633TIP3    H2 4864   6.667   4.773   3.130  0.4819 -0.2877  0.9386
 1634TIP3   OH2 4865   0.936   6.044   2.301  0.5159 -0.1696 -0.4139
 1634TIP3    H1 4866   0.846   6.054   2.269  0.9903  2.3575 -1.2031
 1634TIP3    H2 4867   0.944   5.951   2.322 -1.7512 -0.7888 -1.9154
 1635TIP3   OH2 4868   4.940   1.724   1.146  0.2855  0.0482 -0.3449
 1635TIP3    H1 4869   4.935   1.799   1.087 -0.2178  0.8145  0.6480
 1635TIP3    H2 4870   5.018   1.676   1.117  0.7212  1.0564 -0.8799
 1636TIP3   OH2 4871   0.906   4.113   0.762 -0.0343 -0.5481 -0.0028
 1636TIP3    H1 4872   0.848   4.172   0.714 -1.1708 -2.1177 -0.6450
 1636TIP3    H2 4873   0.986   4.110   0.709 -0.5302 -0.7167 -0.7587
 1637TIP3   OH2 4874   3.104   0.439   4.899  0.3920  0.1154 -0.4685
 1637TIP3    H1 4875   3.110   0.474   4.988 -0.0212 -0.0253 -0.3811
 1637TIP3    H2 4876   3.047   0.501   4.853 -0.4619 -0.5120 -0.2717
 1638TIP3   OH2 4877   4.341   1.833   0.348 -0.4296  1.0089 -0.3955
 1638TIP3    H1 4878   4.253   1.871   0.346 -1.0174 -0.2795 -0.0518
 1638TIP3    H2 4879   4.358   1.805   0.258 -1.0784 -0.2605 -0.1387
 1639TIP3   OH2 4880   3.972   2.227   3.555 -0.2730  0.5406 -0.1495
 1639TIP3    H1 4881   3.881   2.207   3.574  0.2508 -0.8191  1.1857
 1639TIP3    H2 4882   4.004   2.273   3.633  0.5546 -0.3407  0.0518
 1640TIP3   OH2 4883   4.765   4.778   3.142 -0.2580 -0.9497  0.1719
 1640TIP3    H1 4884   4.758   4.683   3.145 -1.8411 -0.9418 -1.3644
 1640TIP3    H2 4885   4.757   4.800   3.049  1.0090  0.6511  0.3835
 1641TIP3   OH2 4886   7.213   4.356   2.193 -0.2758  0.3541  0.3908
 1641TIP3    H1 4887   7.201   4.272   2.147  0.6065  0.3326  0.1879
 1641TIP3    H2 4888   7.200   4.422   2.125 -0.7806  0.3850  0.5105
 1642TIP3   OH2 4889   4.779   6.178   2.764  0.1466  0.4378 -0.0218
 1642TIP3    H1 4890   4.846   6.238   2.796 -0.0621  0.9202 -0.4742
 1642TIP3    H2 4891   4.805   6.092   2.798 -0.7428  1.0934  2.5357
 1643TIP3   OH2 4892   0.520   1.006   4.411 -0.6406  0.2704 -0.4739
 1643TIP3    H1 4893   0.427   1.026   4.399 -1.1239 -1.4451  0.1111
 1643TIP3    H2 4894   0.566   1.079   4.369 -2.2260  1.6811  0.1202
 1644TIP3   OH2 4895   4.578   2.819   5.399  0.3001 -0.2510 -0.3646
 1644TIP3    H1 4896   4.626   2.742   5.430 -0.1406 -0.3238  0.1544
 1644TIP3    H2 4897   4.645   2.885   5.386  0.3351  0.9916  4.2037
 1645TIP3   OH2 4898   4.192   6.220   3.109  0.1178 -0.2335  0.0212
 1645TIP3    H1 4899   4.147   6.286   3.057  1.2254  0.5962  0.0856
 1645TIP3    H2 4900   4.207   6.262   3.193  1.4685 -0.2804 -0.1698
 1646TIP3   OH2 4901   4.837   6.649   5.802  0.4214 -0.3084  0.3251
 1646TIP3    H1 4902   4.859   6.736   5.768  1.2302 -0.7173 -0.2443
 1646TIP3    H2 4903   4.852   6.655   5.896 -0.6085  0.4822  0.4460
 1647TIP3   OH2 4904   0.424   4.481   1.248  0.5950 -0.3232 -0.3531
 1647TIP3    H1 4905   0.344   4.476   1.195 -0.7099  1.2461  1.3130
 1647TIP3    H2 4906   0.485   4.532   1.194  0.2419 -0.9469 -1.3659
 1648TIP3   OH2 4907   6.048   5.294   2.779 -0.2423  0.1821 -0.0907
 1648TIP3    H1 4908   5.984   5.235   2.740 -1.3608  2.1168 -1.3551
 1648TIP3    H2 4909   6.129   5.279   2.730 -1.2555  1.5917 -2.3208
 1649TIP3   OH2 4910   2.750   0.207   4.934 -0.4922 -0.3652 -0.5048
 1649TIP3    H1 4911   2.819   0.155   4.894 -1.1362 -0.0297 -2.1184
 1649TIP3    H2 4912   2.669   0.162   4.912 -0.8540 -0.5083  0.9850
 1650TIP3   OH2 4913   0.297   0.818   0.521  0.1512  0.5910 -0.3775
 1650TIP3    H1 4914   0.305   0.900   0.570  0.5306 -0.1837  0.9141
 1650TIP3    H2 4915   0.219   0.830   0.468  0.7590  2.1674 -0.9894
 1651TIP3   OH2 4916   1.692   5.852   0.712  0.1470 -0.4210  0.0167
 1651TIP3    H1 4917   1.652   5.810   0.789  0.9017  1.5964  1.6169
 1651TIP3    H2 4918   1.618   5.877   0.657 -0.7813  1.2775  1.8628
 1652TIP3   OH2 4919   4.030   4.555   2.698 -0.0448 -0.2365  0.4166
 1652TIP3    H1 4920   4.119   4.572   2.727 -0.1410  3.9129 -0.8963
 1652TIP3    H2 4921   3.976   4.572   2.775  0.1503  2.8346  0.0351
 1653TIP3   OH2 4922   3.896   3.066   4.625  0.2281 -0.0622  0.0111
 1653TIP3    H1 4923   3.890   2.987   4.571  0.1693  0.3752 -0.6419
 1653TIP3    H2 4924   3.983   3.101   4.607 -0.5669  1.2740 -1.5408
 1654TIP3   OH2 4925   4.606   2.110   5.658 -0.6986 -0.2134  0.5547
 1654TIP3    H1 4926   4.615   2.163   5.578 -0.4590 -2.1821 -0.7950
 1654TIP3    H2 4927   4.520   2.135   5.693  0.2759  2.6150  1.2431
 1655TIP3   OH2 4928   4.996   3.279   4.113 -0.0947  0.3031  0.5317
 1655TIP3    H1 4929   4.988   3.210   4.046  1.0037  0.9121 -0.2523
 1655TIP3    H2 4930   5.084   3.267   4.149 -0.5608  0.1738  1.6990
 1656TIP3   OH2 4931   0.610   0.311   4.137 -0.0020  0.0210 -0.0359
 1656TIP3    H1 4932   0.525   0.343   4.169  0.7868  1.0760  1.1197
 1656TIP3    H2 4933   0.672   0.336   4.205  0.9024 -3.0467  0.4290
 1657TIP3   OH2 4934   3.655   3.746   3.900 -0.0627  0.0174  0.3268
 1657TIP3    H1 4935   3.651   3.660   3.941 -0.4140  1.2974  3.1479
 1657TIP3    H2 4936   3.582   3.747   3.838 -0.0557 -1.6889  0.2634
 1658TIP3   OH2 4937   7.212   0.932   0.346  0.0592  0.1549  0.2244
 1658TIP3    H1 4938   7.164   0.859   0.384 -0.0683 -0.0133 -0.2536
 1658TIP3    H2 4939   7.217   0.997   0.417  1.7431 -1.0219  1.2557
 1659TIP3   OH2 4940   6.376   2.092   0.701 -0.7594  0.0485 -0.3613
 1659TIP3    H1 4941   6.324   2.029   0.751 -0.9915 -0.7224 -1.5353
 1659TIP3    H2 4942   6.326   2.107   0.621  1.2570 -1.5588 -2.0535
 1660TIP3   OH2 4943   3.638   6.349   1.356 -0.4533 -0.2654 -0.2611
 1660TIP3    H1 4944   3.670   6.300   1.432  0.8508 -1.3386 -1.4324
 1660TIP3    H2 4945   3.679   6.435   1.365 -0.8272 -0.1621  0.5710
 1661TIP3   OH2 4946   0.886   0.065   1.422  0.3550  0.4229  0.2015
 1661TIP3    H1 4947   0.834   0.025   1.492  1.8216 -1.3502  0.3447
 1661TIP3    H2 4948   0.966   0.096   1.465  1.2646 -0.6675 -0.6339
 1662TIP3   OH2 4949   4.395   2.977   5.883 -0.2682 -0.0592 -0.0347
 1662TIP3    H1 4950   4.476   3.008   5.842 -1.1777  0.4971 -1.4821
 1662TIP3    H2 4951   4.421   2.898   5.931  1.1157  0.0942 -0.4909
 1663TIP3   OH2 4952   3.327   2.265   4.244 -0.1063 -0.3165  0.4023
 1663TIP3    H1 4953   3.327   2.188   4.300 -0.7997 -0.1637  0.6125
 1663TIP3    H2 4954   3.323   2.340   4.304 -0.7970 -0.1517  0.1530
 1664TIP3   OH2 4955   0.098   5.676   0.583  0.0670 -0.2697 -0.5695
 1664TIP3    H1 4956   0.111   5.587   0.615  1.1210 -0.0737 -0.4261
 1664TIP3    H2 4957   0.033   5.714   0.642  1.7060 -0.0300  1.1715
 1665TIP3   OH2 4958   7.095   1.099   4.180  0.3130  0.2116  0.3634
 1665TIP3    H1 4959   7.180   1.056   4.184  0.5830  0.6802 -0.1726
 1665TIP3    H2 4960   7.081   1.134   4.268  2.2360  3.0441 -0.2873
 1666TIP3   OH2 4961   0.529   6.187   1.388  0.5017  0.3880  0.3495
 1666TIP3    H1 4962   0.542   6.111   1.445 -0.4237  0.6552  0.9429
 1666TIP3    H2 4963   0.608   6.239   1.398 -0.0811  0.9775  2.2605
 1667TIP3   OH2 4964   2.430   2.691   1.942  0.2708 -0.2562 -0.4416
 1667TIP3    H1 4965   2.451   2.599   1.959  3.3018 -0.0269 -2.2333
 1667TIP3    H2 4966   2.484   2.739   2.005 -1.2301  0.3540  0.4231
 1668TIP3   OH2 4967   3.221   3.947   5.076  0.2078 -0.0765 -0.6035
 1668TIP3    H1 4968   3.193   3.875   5.133  2.4498 -0.0165  0.6781
 1668TIP3    H2 4969   3.149   3.956   5.013 -2.8381  0.3377  2.5982
 1669TIP3   OH2 4970   3.545   0.906   1.930 -0.7953  0.1308  0.2490
 1669TIP3    H1 4971   3.482   0.932   1.997 -0.2895  1.5770  0.2186
 1669TIP3    H2 4972   3.513   0.822   1.898 -2.9689  0.9995 -0.0747
 1670TIP3   OH2 4973   1.811   1.806   0.217  0.0543  0.8924 -0.6579
 1670TIP3    H1 4974   1.888   1.751   0.233 -0.8035 -0.1838 -0.0767
 1670TIP3    H2 4975   1.836   1.863   0.144  1.0271 -0.1822 -1.1936
 1671TIP3   OH2 4976   2.736   4.624   4.332 -0.1587  0.0324 -0.7382
 1671TIP3    H1 4977   2.716   4.531   4.319 -1.4806 -0.1668  2.0746
 1671TIP3    H2 4978   2.659   4.660   4.375  1.4661  1.7102  0.9879
 1672TIP3   OH2 4979   3.510   1.021   3.019  0.2934  0.3557  0.1781
 1672TIP3    H1 4980   3.476   1.017   2.930 -1.6892  1.5314  0.8057
 1672TIP3    H2 4981   3.554   0.937   3.032 -1.1272 -0.6783 -1.2597
 1673TIP3   OH2 4982   6.577   5.912   5.600  0.3425 -0.2002 -0.4075
 1673TIP3    H1 4983   6.644   5.858   5.642  1.4816 -0.1697 -2.0803
 1673TIP3    H2 4984   6.520   5.848   5.557 -0.5509 -0.2078  0.7329
 1674TIP3   OH2 4985   1.392   3.115   1.467 -0.5871 -0.0494 -0.1000
 1674TIP3    H1 4986   1.320   3.053   1.452 -1.1509 -0.5912  3.8025
 1674TIP3    H2 4987   1.349   3.199   1.481 -0.0534  0.5785 -1.8991
 1675TIP3   OH2 4988   6.768   0.719   5.124  0.3516  0.2464 -0.2776
 1675TIP3    H1 4989   6.741   0.783   5.059 -1.9856 -0.9720 -0.5927
 1675TIP3    H2 4990   6.812   0.771   5.192  0.6450  1.8398 -1.6232
 1676TIP3   OH2 4991   5.183   0.756   0.539 -0.1934 -0.3675  0.0324
 1676TIP3    H1 4992   5.236   0.834   0.553  2.3344 -2.1326  1.2284
 1676TIP3    H2 4993   5.116   0.759   0.607  0.6630  0.1626  0.8844
 1677TIP3   OH2 4994   1.421   0.190   2.345  0.0127 -0.1553  0.2707
 1677TIP3    H1 4995   1.444   0.282   2.331 -0.6791  0.2661  1.7139
 1677TIP3    H2 4996   1.502   0.149   2.374 -0.1113  0.4619  1.5523
 1678TIP3   OH2 4997   2.637   3.430   1.865 -0.4355 -0.3225 -0.3841
 1678TIP3    H1 4998   2.609   3.507   1.815  3.4610  2.5682  1.3345
 1678TIP3    H2 4999   2.593   3.440   1.950  0.5816  0.4817  0.0696
 1679TIP3   OH2 5000   0.386   1.644   4.721  0.0612  0.6859  0.2716
 1679TIP3    H1 5001   0.317   1.701   4.685  0.0049 -0.4277 -1.5379
 1679TIP3    H2 5002   0.376   1.651   4.816 -0.8316  2.5813  0.0842
 1680TIP3   OH2 5003   6.185   0.619   3.459  0.1075  0.1648 -0.3767
 1680TIP3    H1 5004   6.200   0.713   3.469 -1.2020  0.4547 -0.8856
 1680TIP3    H2 5005   6.096   0.613   3.423  0.6206 -1.2230 -1.5001
 1681TIP3   OH2 5006   4.124   5.103   3.849 -0.2384  0.2746  0.8655
 1681TIP3    H1 5007   4.033   5.118   3.875 -1.1919 -0.2372 -1.8377
 1681TIP3    H2 5008   4.142   5.171   3.784  0.6395 -0.7367  0.0097
 1682TIP3   OH2 5009   2.361   4.047   1.680  0.4141  0.0679  0.1833
 1682TIP3    H1 5010   2.291   3.992   1.644  0.2969 -0.0760  0.6254
 1682TIP3    H2 5011   2.335   4.136   1.658 -0.3193  0.0778  1.0196
 1683TIP3   OH2 5012   0.160   4.667   2.136 -0.3623  0.0880  0.9155
 1683TIP3    H1 5013   0.120   4.742   2.180 -1.2669 -0.2854  0.7482
 1683TIP3    H2 5014   0.094   4.638   2.072  0.8563  0.5371 -0.6224
 1684TIP3   OH2 5015   0.412   4.232   4.341 -0.6194 -0.2796  0.7443
 1684TIP3    H1 5016   0.325   4.270   4.331 -1.4912 -2.3990 -0.3474
 1684TIP3    H2 5017   0.459   4.259   4.262 -1.2327 -1.3805 -0.0249
 1685TIP3   OH2 5018   5.373   4.809   5.226 -0.1035  0.2232 -0.3440
 1685TIP3    H1 5019   5.410   4.874   5.167  0.2003  1.1539  0.8255
 1685TIP3    H2 5020   5.321   4.860   5.288  1.3125 -0.4548  1.4841
 1686TIP3   OH2 5021   3.421   2.662   3.155  0.1546  0.0769 -0.4330
 1686TIP3    H1 5022   3.373   2.599   3.101 -0.4658  0.3354 -0.1939
 1686TIP3    H2 5023   3.380   2.655   3.242  1.0312 -0.2160 -0.0296
 1687TIP3   OH2 5024   5.630   3.932   5.647 -0.3103 -0.1550 -0.2577
 1687TIP3    H1 5025   5.563   3.993   5.615 -0.5254  0.1868  0.8211
 1687TIP3    H2 5026   5.713   3.973   5.621 -0.4657  0.3890  0.0825
 1688TIP3   OH2 5027   0.999   0.034   5.345  0.0052  0.0590 -0.6716
 1688TIP3    H1 5028   1.066   0.102   5.339 -1.1798  1.2832 -0.7294
 1688TIP3    H2 5029   0.964   0.043   5.434  0.4677 -1.1346 -0.3491
 1689TIP3   OH2 5030   3.034   0.776   0.388  0.0200 -0.2355  0.5704
 1689TIP3    H1 5031   3.056   0.824   0.468 -1.1523 -0.8788  1.3085
 1689TIP3    H2 5032   2.994   0.695   0.419  1.1302 -1.2971 -0.6602
 1690TIP3   OH2 5033   2.816   5.752   2.118  0.0555 -0.1921  0.0989
 1690TIP3    H1 5034   2.855   5.709   2.042  1.4181  0.6088  0.3257
 1690TIP3    H2 5035   2.888   5.799   2.160 -1.5321  3.2830 -0.7521
 1691TIP3   OH2 5036   5.664   4.723   2.949  0.5169  0.5499  0.0979
 1691TIP3    H1 5037   5.610   4.798   2.925  0.7958  0.8462  0.3741
 1691TIP3    H2 5038   5.679   4.676   2.867 -0.1105  0.4945  0.0115
 1692TIP3   OH2 5039   3.615   5.177   2.976 -0.0568  0.5134 -0.7740
 1692TIP3    H1 5040   3.641   5.119   3.047 -1.3825 -0.5517 -1.1275
 1692TIP3    H2 5041   3.535   5.139   2.941 -0.1905  1.7796 -1.9518
 1693TIP3   OH2 5042   1.161   0.411   2.180  0.0775  0.0183 -0.0905
 1693TIP3    H1 5043   1.123   0.325   2.198  0.8792  0.2260  3.1780
 1693TIP3    H2 5044   1.254   0.400   2.198  0.5013  1.1756 -1.4286
 1694TIP3   OH2 5045   3.038   4.537   3.308  0.4305  0.1140 -0.1006
 1694TIP3    H1 5046   3.053   4.449   3.274  1.4407  0.2225  0.0542
 1694TIP3    H2 5047   3.031   4.525   3.403  2.8849  0.4679  0.1728
 1695TIP3   OH2 5048   5.338   3.303   4.925  0.4071 -0.2825  0.4675
 1695TIP3    H1 5049   5.260   3.353   4.899  1.3012  0.8989 -0.0008
 1695TIP3    H2 5050   5.304   3.215   4.943 -1.3863  0.6697  2.2380
 1696TIP3   OH2 5051   3.476   0.228   3.447 -0.1812  0.4980 -0.4097
 1696TIP3    H1 5052   3.569   0.248   3.457 -0.0224 -0.7084  0.9273
 1696TIP3    H2 5053   3.447   0.205   3.536 -1.4517 -0.3733 -1.0187
 1697TIP3   OH2 5054   0.991   1.120   4.576  0.0507 -0.2422  0.4086
 1697TIP3    H1 5055   0.993   1.215   4.561 -0.7973 -0.2498  0.2447
 1697TIP3    H2 5056   1.065   1.087   4.525 -1.0437  0.0644 -1.4790
 1698TIP3   OH2 5057   5.560   3.647   1.661  0.2589  0.2108  0.3508
 1698TIP3    H1 5058   5.541   3.632   1.754 -0.9861 -0.5285 -0.0003
 1698TIP3    H2 5059   5.596   3.735   1.658  0.1623  0.3060  1.5146
 1699TIP3   OH2 5060   0.231   5.195   3.227 -0.2750  0.2075  0.0880
 1699TIP3    H1 5061   0.164   5.214   3.162 -1.3432 -0.4813  0.9481
 1699TIP3    H2 5062   0.190   5.130   3.285  1.2921 -0.5595  0.3816
 1700TIP3   OH2 5063   6.014   3.215   4.735  0.5156 -0.4450 -0.5094
 1700TIP3    H1 5064   5.996   3.259   4.653 -0.4336  2.2392  1.0275
 1700TIP3    H2 5065   6.103   3.241   4.758  0.6629 -0.9320 -0.5031
 1701TIP3   OH2 5066   4.195   1.954   3.818 -0.3591  0.1250  0.1057
 1701TIP3    H1 5067   4.212   1.971   3.726 -1.9556 -1.1541 -0.4798
 1701TIP3    H2 5068   4.202   1.858   3.826 -1.8482  0.0532  0.9096
 1702TIP3   OH2 5069   1.622   0.442   4.304  0.1459  0.4388 -0.1810
 1702TIP3    H1 5070   1.701   0.421   4.255 -0.4037  0.1898 -0.9599
 1702TIP3    H2 5071   1.557   0.466   4.238 -0.1263  1.7173  0.4977
 1703TIP3   OH2 5072   6.209   0.635   5.679  0.1600 -0.0412  0.2280
 1703TIP3    H1 5073   6.174   0.629   5.590 -2.7275  0.6892  1.1793
 1703TIP3    H2 5074   6.192   0.725   5.706  0.6012 -0.3477  1.6527
 1704TIP3   OH2 5075   3.793   5.911   1.332 -0.4226 -0.4779 -0.4738
 1704TIP3    H1 5076   3.720   5.900   1.272 -0.6421 -0.6104 -0.1812
 1704TIP3    H2 5077   3.809   5.823   1.367 -1.2651 -0.1491  0.7928
 1705TIP3   OH2 5078   1.019   3.887   2.745 -0.3475  0.0974 -1.0323
 1705TIP3    H1 5079   1.055   3.858   2.829 -0.5645 -0.9374 -1.2848
 1705TIP3    H2 5080   1.038   3.981   2.743  0.6152 -0.0566 -0.2995
 1706TIP3   OH2 5081   1.216   3.905   1.164 -0.1149 -0.1951  0.6749
 1706TIP3    H1 5082   1.137   3.851   1.159 -1.9371  2.3303 -0.2335
 1706TIP3    H2 5083   1.242   3.917   1.073  1.0866 -0.6429  0.9485
 1707TIP3   OH2 5084   6.554   1.152   2.313  0.1562 -0.1330 -0.3173
 1707TIP3    H1 5085   6.637   1.179   2.352 -0.6975 -0.6652  2.0475
 1707TIP3    H2 5086   6.503   1.233   2.306 -0.6565 -0.2894  2.3556
 1708TIP3   OH2 5087   6.916   2.776   0.851  0.0531 -0.0038  0.0319
 1708TIP3    H1 5088   6.886   2.760   0.940 -1.6423  0.7613 -0.3516
 1708TIP3    H2 5089   6.840   2.812   0.806  0.9608 -0.0452 -1.6455
 1709TIP3   OH2 5090   3.926   5.851   5.713  0.0386  0.1493 -0.4373
 1709TIP3    H1 5091   3.972   5.768   5.723 -0.5373 -0.1562 -0.2654
 1709TIP3    H2 5092   3.994   5.918   5.721  0.3410 -0.2610  0.5576
 1710TIP3   OH2 5093   1.940   2.835   4.304  0.3812  0.0414  0.4756
 1710TIP3    H1 5094   2.005   2.878   4.360  0.9242 -1.2999  0.9152
 1710TIP3    H2 5095   1.976   2.842   4.215  0.4286  0.5496  0.5350
 1711TIP3   OH2 5096   2.497   0.803   5.152 -0.8601  0.5587  0.4727
 1711TIP3    H1 5097   2.452   0.887   5.148  0.5549  1.3451  0.5555
 1711TIP3    H2 5098   2.506   0.785   5.246 -2.4659 -0.4401  0.4731
 1712TIP3   OH2 5099   3.076   5.762   1.321 -0.2608  0.5363 -0.5226
 1712TIP3    H1 5100   3.046   5.714   1.399  0.7643 -0.0241 -0.4643
 1712TIP3    H2 5101   3.005   5.750   1.257 -0.2803 -0.5639 -0.3045
 1713TIP3   OH2 5102   2.238   0.624   0.363 -0.0755  0.4176  0.2006
 1713TIP3    H1 5103   2.328   0.648   0.384  0.0206 -0.7510  1.2403
 1713TIP3    H2 5104   2.210   0.691   0.300  1.7208  0.4387 -0.6711
 1714TIP3   OH2 5105   3.874   5.648   3.082  0.5531  0.0541  0.4715
 1714TIP3    H1 5106   3.879   5.717   3.148  0.0473  0.3811  0.1757
 1714TIP3    H2 5107   3.801   5.674   3.026  0.0523 -0.9631  0.6348
 1715TIP3   OH2 5108   1.057   1.468   0.853  0.1305 -0.1211 -0.1463
 1715TIP3    H1 5109   1.089   1.557   0.871 -1.0356  0.2908 -0.0287
 1715TIP3    H2 5110   1.053   1.426   0.939 -0.9746  0.3040  0.0286
 1716TIP3   OH2 5111   5.546   3.219   3.103  0.5765  0.5651  0.5824
 1716TIP3    H1 5112   5.637   3.191   3.090  0.8690  1.3761  0.8649
 1716TIP3    H2 5113   5.494   3.145   3.070  1.3356 -0.2841  1.2357
 1717TIP3   OH2 5114   1.222   5.630   0.399 -0.1051 -0.0219  0.3601
 1717TIP3    H1 5115   1.253   5.540   0.403 -0.2535 -0.1291 -0.6380
 1717TIP3    H2 5116   1.215   5.649   0.305 -2.7637  0.1007  0.5117
 1718TIP3   OH2 5117   3.112   1.883   4.638 -0.1082 -0.4729  0.4203
 1718TIP3    H1 5118   3.113   1.948   4.708  1.7908 -0.9293  0.8715
 1718TIP3    H2 5119   3.043   1.912   4.578 -0.8651  0.6519  1.7949
 1719TIP3   OH2 5120   3.921   6.395   3.226  0.0589 -0.2137  0.3644
 1719TIP3    H1 5121   3.999   6.358   3.267  0.4136  0.7467  0.5805
 1719TIP3    H2 5122   3.850   6.373   3.286  0.3227 -0.2274  0.6763
 1720TIP3   OH2 5123   7.101   4.543   4.919 -0.1920  0.0607 -0.3953
 1720TIP3    H1 5124   7.178   4.601   4.914  1.0525 -1.4155  0.6185
 1720TIP3    H2 5125   7.031   4.592   4.876  1.1009  1.8142 -0.6123
 1721TIP3   OH2 5126   5.199   5.324   0.051 -0.3534  0.1916  0.0517
 1721TIP3    H1 5127   5.169   5.234   0.033  0.5497 -0.4693  1.6524
 1721TIP3    H2 5128   5.217   5.361  -0.035  1.1586 -1.8647 -0.5968
 1722TIP3   OH2 5129   2.908   2.470   1.114  0.5904  0.7368  0.1021
 1722TIP3    H1 5130   2.964   2.435   1.184 -0.0374 -0.8568 -0.1516
 1722TIP3    H2 5131   2.819   2.448   1.142  0.3833 -1.3760 -1.8719
 1723TIP3   OH2 5132   6.741   0.644   3.303 -0.0778 -0.0168  0.5180
 1723TIP3    H1 5133   6.717   0.678   3.389 -1.6627  2.1465 -0.6823
 1723TIP3    H2 5134   6.833   0.666   3.293 -0.7051  2.9634  0.3345
 1724TIP3   OH2 5135   5.892   1.844   1.727 -0.0118 -0.6370  0.2717
 1724TIP3    H1 5136   5.814   1.856   1.781 -0.3274  0.6464 -0.4277
 1724TIP3    H2 5137   5.859   1.815   1.642  0.4541 -2.2411  0.6029
 1725TIP3   OH2 5138   1.821   5.263   5.528 -0.6384 -0.8438  0.3151
 1725TIP3    H1 5139   1.774   5.182   5.543 -1.0560 -0.4751  1.0397
 1725TIP3    H2 5140   1.848   5.258   5.436 -3.8688 -0.2001 -0.7966
 1726TIP3   OH2 5141   1.525   0.165   5.406  0.0015 -0.1712  0.1968
 1726TIP3    H1 5142   1.502   0.190   5.317 -0.9214 -0.6346  0.2917
 1726TIP3    H2 5143   1.535   0.070   5.402 -1.1854 -0.3321  0.8272
 1727TIP3   OH2 5144   1.593   0.120   4.152  0.7373  0.1346 -0.4263
 1727TIP3    H1 5145   1.542   0.160   4.222  1.7818 -1.2886  1.2322
 1727TIP3    H2 5146   1.531   0.061   4.108  0.1860  0.7151 -0.4426
 1728TIP3   OH2 5147   2.113   0.754   4.351 -0.2801  0.2219  0.3279
 1728TIP3    H1 5148   2.094   0.685   4.287  3.5124  2.0339 -3.1884
 1728TIP3    H2 5149   2.168   0.711   4.417 -1.2307 -0.8960  0.4316
 1729TIP3   OH2 5150   0.730   0.822   1.054 -0.7670 -0.0100  0.2313
 1729TIP3    H1 5151   0.731   0.765   0.977  0.1734 -0.4654  0.5753
 1729TIP3    H2 5152   0.793   0.783   1.114 -1.7243  0.1584  1.3807
 1730TIP3   OH2 5153   0.172   1.655   5.508  0.2552 -0.2954 -0.1123
 1730TIP3    H1 5154   0.102   1.701   5.462  0.1367 -0.5103 -0.1493
 1730TIP3    H2 5155   0.217   1.604   5.441 -0.3171 -1.1052  0.1027
 1731TIP3   OH2 5156   0.172   6.607   5.623  0.0763 -0.0023  0.3792
 1731TIP3    H1 5157   0.079   6.607   5.599 -0.5138 -2.2188  2.2662
 1731TIP3    H2 5158   0.203   6.694   5.599 -2.1891  0.4373 -1.3498
 1732TIP3   OH2 5159   4.941   3.733   5.397  0.1733  0.0735 -0.4112
 1732TIP3    H1 5160   4.874   3.665   5.405  0.2598 -0.0401 -0.6301
 1732TIP3    H2 5161   5.018   3.687   5.364  0.3481  0.2103 -0.1947
 1733TIP3   OH2 5162   1.205   0.958   3.015  0.0849 -0.2577  0.2327
 1733TIP3    H1 5163   1.167   0.918   3.093 -1.3130 -0.3089 -0.4453
 1733TIP3    H2 5164   1.140   0.943   2.946 -0.2543  2.5905 -0.1983
 1734TIP3   OH2 5165   2.714   1.419   1.241 -0.4355 -0.2234  0.1360
 1734TIP3    H1 5166   2.640   1.405   1.182 -1.2994  1.2118  0.8195
 1734TIP3    H2 5167   2.685   1.379   1.324 -1.9529  3.1160  1.4098
 1735TIP3   OH2 5168   5.896   5.671   2.435 -0.6648 -0.1231 -0.1017
 1735TIP3    H1 5169   5.937   5.591   2.404 -0.4903  0.0442 -0.3032
 1735TIP3    H2 5170   5.845   5.644   2.511  0.0640 -0.2752  0.3353
 1736TIP3   OH2 5171   4.714   5.090   0.210  0.1378 -1.1497  0.7040
 1736TIP3    H1 5172   4.631   5.101   0.163  1.4250 -1.2168 -1.7738
 1736TIP3    H2 5173   4.760   5.173   0.197  0.9085 -1.5078  1.0929
 1737TIP3   OH2 5174   4.714   4.834   0.332  0.3968  0.7053  0.4091
 1737TIP3    H1 5175   4.717   4.912   0.276  1.2245  0.1063 -0.3899
 1737TIP3    H2 5176   4.783   4.848   0.396  1.1808  0.1938 -0.3189
 1738TIP3   OH2 5177   4.177   5.762   1.281  0.5222 -0.2393 -0.3050
 1738TIP3    H1 5178   4.117   5.701   1.239 -0.8284  1.1540 -0.5009
 1738TIP3    H2 5179   4.203   5.719   1.362 -3.4129  0.3590  1.5155
 1739TIP3   OH2 5180   0.076   5.966   0.084  0.1662 -0.2975  0.4185
 1739TIP3    H1 5181   0.099   5.910   0.158 -0.2733 -0.5623  0.3570
 1739TIP3    H2 5182   0.150   6.026   0.076  2.1161 -2.7552 -1.4075
 1740TIP3   OH2 5183   3.984   2.825   0.673 -0.5691  0.2357  0.5194
 1740TIP3    H1 5184   4.012   2.916   0.664 -0.8848  0.2207 -0.8684
 1740TIP3    H2 5185   3.890   2.827   0.656 -0.4429 -0.4546 -0.2996
 1741TIP3   OH2 5186   0.782   5.288   3.886 -0.0499 -0.0365  0.1881
 1741TIP3    H1 5187   0.730   5.208   3.874  0.3882  0.0025 -2.6606
 1741TIP3    H2 5188   0.819   5.305   3.800  1.0141  2.4939  1.0660
 1742TIP3   OH2 5189   5.706   5.676   4.230 -0.0158 -0.1452 -0.0727
 1742TIP3    H1 5190   5.758   5.741   4.182 -1.8266  1.7408  0.3424
 1742TIP3    H2 5191   5.656   5.630   4.162  0.4632 -0.3375 -0.2951
 1743TIP3   OH2 5192   1.154   0.682   1.680  0.1720 -0.1414 -0.2966
 1743TIP3    H1 5193   1.138   0.595   1.645 -1.8115  0.6282 -1.5214
 1743TIP3    H2 5194   1.135   0.675   1.774 -0.3953 -0.9479 -0.4619
 1744TIP3   OH2 5195   4.764   1.987   4.361 -0.5592 -0.6516  1.0354
 1744TIP3    H1 5196   4.680   1.946   4.382 -1.5622  1.2367  0.9744
 1744TIP3    H2 5197   4.740   2.066   4.312  1.3417 -0.8672 -0.3490
 1745TIP3   OH2 5198   2.776   4.438   0.112 -0.6949  0.8864  0.6953
 1745TIP3    H1 5199   2.826   4.421   0.192 -1.0484 -0.8403  0.5944
 1745TIP3    H2 5200   2.686   4.448   0.142 -0.7885  0.5021  0.5498
 1746TIP3   OH2 5201   5.167   2.557   4.444  0.7746  0.0691 -0.0501
 1746TIP3    H1 5202   5.106   2.581   4.513  1.1313  0.9959 -0.0406
 1746TIP3    H2 5203   5.121   2.581   4.363  0.8685  0.1701 -0.0732
 1747TIP3   OH2 5204   3.143   3.424   1.679 -0.2936 -0.4866  0.6140
 1747TIP3    H1 5205   3.080   3.355   1.662  2.0133 -2.7563  0.6308
 1747TIP3    H2 5206   3.091   3.504   1.684 -3.1967 -2.2792  1.3055
 1748TIP3   OH2 5207   3.155   4.727   0.361  0.4852 -0.1735 -0.0274
 1748TIP3    H1 5208   3.083   4.693   0.414 -0.6304  0.5387 -1.0292
 1748TIP3    H2 5209   3.202   4.649   0.330 -1.1389 -0.7629 -1.0973
 1749TIP3   OH2 5210   6.357   5.483   2.997 -0.2238 -0.1330 -0.3252
 1749TIP3    H1 5211   6.277   5.430   2.996 -0.2669 -0.0805  0.1540
 1749TIP3    H2 5212   6.352   5.535   2.916 -1.3431  0.8483  0.3320
 1750TIP3   OH2 5213   2.228   0.303   0.402  0.1021  0.3173  0.1551
 1750TIP3    H1 5214   2.236   0.211   0.378 -1.6785  0.0428  0.4568
 1750TIP3    H2 5215   2.276   0.311   0.485  1.3642 -0.0270 -0.5294
 1751TIP3   OH2 5216   5.103   5.210   0.882  1.0840 -0.4206 -0.1670
 1751TIP3    H1 5217   5.013   5.220   0.911  0.9966  1.4336 -0.9726
 1751TIP3    H2 5218   5.148   5.288   0.913  2.4953 -1.4177  0.4233
 1752TIP3   OH2 5219   3.551   3.122   0.573  0.2582  0.4582 -0.3168
 1752TIP3    H1 5220   3.542   3.079   0.488  2.3309  1.4994 -1.1494
 1752TIP3    H2 5221   3.494   3.198   0.568 -0.5103 -0.1141 -0.3172
 1753TIP3   OH2 5222   2.332   2.127   1.609  0.0082  0.0109 -0.3009
 1753TIP3    H1 5223   2.383   2.208   1.601  0.5602 -0.3599 -0.6012
 1753TIP3    H2 5224   2.393   2.064   1.646 -0.3565 -0.3305 -0.2797
 1754TIP3   OH2 5225   3.921   3.158   0.853  0.2439 -0.0848  0.3826
 1754TIP3    H1 5226   3.831   3.127   0.849  0.5296 -0.9265  0.2608
 1754TIP3    H2 5227   3.959   3.134   0.769  1.0769 -1.3476  1.0811
 1755TIP3   OH2 5228   4.504   3.660   0.346 -0.0774  1.1067  0.2069
 1755TIP3    H1 5229   4.545   3.658   0.260  0.2964 -0.6070  0.3996
 1755TIP3    H2 5230   4.458   3.577   0.353  0.1192  1.1008  1.7695
 1756TIP3   OH2 5231   1.488   0.280   1.959 -0.8117 -0.4118 -0.7967
 1756TIP3    H1 5232   1.482   0.294   2.053 -1.0950  1.3669 -1.0552
 1756TIP3    H2 5233   1.558   0.215   1.949  1.0718  1.3153  0.4988
 1757TIP3   OH2 5234   5.786   1.456   2.453 -0.5913 -0.2620 -0.0665
 1757TIP3    H1 5235   5.726   1.492   2.388 -1.0545 -0.2653  0.3469
 1757TIP3    H2 5236   5.874   1.474   2.419 -0.8249  0.4325 -0.3132
 1758TIP3   OH2 5237   2.437   5.817   2.906 -0.4882 -0.2807  0.7729
 1758TIP3    H1 5238   2.354   5.840   2.947 -0.0615  1.7241  0.6325
 1758TIP3    H2 5239   2.429   5.850   2.816  0.3559 -0.3166  0.6766
 1759TIP3   OH2 5240   5.892   3.148   3.967 -0.3398 -0.6197  0.1503
 1759TIP3    H1 5241   5.885   3.222   3.907 -2.9998  0.2233  1.3810
 1759TIP3    H2 5242   5.854   3.075   3.918  1.4023 -1.0130 -0.7003
 1760TIP3   OH2 5243   3.694   2.917   2.974 -0.3640 -0.1203 -0.0568
 1760TIP3    H1 5244   3.605   2.925   3.010 -0.5025 -1.0011 -0.1727
 1760TIP3    H2 5245   3.705   2.823   2.959  0.6765 -0.0437  0.1635
 1761TIP3   OH2 5246   1.652   5.509   1.612 -0.2116  0.0962  0.2435
 1761TIP3    H1 5247   1.734   5.558   1.604 -0.7325  1.2235  1.3853
 1761TIP3    H2 5248   1.598   5.539   1.539 -1.0589  2.4015  1.6935
 1762TIP3   OH2 5249   6.052   1.497   0.071 -0.1338  0.1123 -0.2937
 1762TIP3    H1 5250   6.142   1.466   0.078 -0.6960 -1.2561  1.3755
 1762TIP3    H2 5251   6.012   1.441   0.004  0.3428  1.0612 -1.4197
 1763TIP3   OH2 5252   4.725   0.288   1.998  0.6239  0.0133 -0.1007
 1763TIP3    H1 5253   4.759   0.214   1.948 -2.5258 -2.0210  0.4476
 1763TIP3    H2 5254   4.730   0.259   2.089  0.1543  0.8264  0.1913
 1764TIP3   OH2 5255   4.264   4.420   2.172 -0.1552  0.0964 -0.5737
 1764TIP3    H1 5256   4.201   4.434   2.243 -0.1560  0.5959 -0.6715
 1764TIP3    H2 5257   4.330   4.487   2.185  0.4100 -0.4788 -0.4260
 1765TIP3   OH2 5258   1.476   5.862   3.847 -0.0624 -0.2866 -0.2967
 1765TIP3    H1 5259   1.523   5.892   3.769  0.4325  0.1756  0.1711
 1765TIP3    H2 5260   1.540   5.867   3.917 -0.9923  1.0736  0.5107
 1766TIP3   OH2 5261   2.408   0.427   1.086 -0.6118  0.7601 -0.4067
 1766TIP3    H1 5262   2.417   0.502   1.145  1.5021  0.2199  0.0475
 1766TIP3    H2 5263   2.406   0.465   0.999 -2.3918  1.4796 -0.1057
 1767TIP3   OH2 5264   4.230   6.549   5.810 -0.2132 -0.4077 -0.0264
 1767TIP3    H1 5265   4.221   6.559   5.715  1.3574  0.5500 -0.1018
 1767TIP3    H2 5266   4.151   6.590   5.846  1.1615  3.3717 -0.8040
 1768TIP3   OH2 5267   2.035   4.441   5.071 -0.3100 -0.4381  0.1434
 1768TIP3    H1 5268   1.985   4.460   4.991 -0.0300  0.2530  0.1240
 1768TIP3    H2 5269   2.021   4.518   5.126  1.1928  0.0404 -0.0973
 1769TIP3   OH2 5270   2.739   6.428   5.172 -0.3034  0.4610 -0.2018
 1769TIP3    H1 5271   2.766   6.387   5.254 -0.1558  1.9319  0.5299
 1769TIP3    H2 5272   2.764   6.366   5.104  0.1928 -0.4879  0.8174
 1770TIP3   OH2 5273   4.479   3.566   5.891 -0.0430  0.0232 -0.1899
 1770TIP3    H1 5274   4.542   3.562   5.819 -0.6370  0.2940 -0.7332
 1770TIP3    H2 5275   4.426   3.644   5.873 -0.2341  0.0647  0.5134
 1771TIP3   OH2 5276   1.233   5.024   4.691 -0.4115 -0.6500  0.5200
 1771TIP3    H1 5277   1.310   5.004   4.744 -0.5270 -0.4998  0.7471
 1771TIP3    H2 5278   1.246   4.975   4.609  1.2165  1.4149 -0.5546
 1772TIP3   OH2 5279   0.208   0.545   5.625 -0.9096 -0.3358 -0.1699
 1772TIP3    H1 5280   0.247   0.508   5.546 -0.0573 -2.1275  1.0349
 1772TIP3    H2 5281   0.124   0.501   5.634 -0.6801 -0.6915  0.3004
 1773TIP3   OH2 5282   7.004   2.695   4.518 -0.6215  0.0787 -0.2356
 1773TIP3    H1 5283   6.919   2.651   4.529 -0.3257 -0.4885 -0.2089
 1773TIP3    H2 5284   6.996   2.774   4.572 -0.7233 -0.5583  0.7101
 1774TIP3   OH2 5285   1.753   3.020   5.382 -0.2696 -0.2495  0.1897
 1774TIP3    H1 5286   1.658   3.017   5.387 -0.2300 -1.3419  0.3506
 1774TIP3    H2 5287   1.773   3.004   5.290 -0.2186 -0.5426  0.2526
 1775TIP3   OH2 5288   6.383   3.715   2.608  0.3496  0.0777 -0.3529
 1775TIP3    H1 5289   6.341   3.785   2.558  0.4239 -0.6885 -1.5420
 1775TIP3    H2 5290   6.312   3.676   2.659  0.4658  1.5379  1.0004
 1776TIP3   OH2 5291   4.885   1.867   3.046 -0.1511  0.3717 -0.2680
 1776TIP3    H1 5292   4.859   1.775   3.056 -0.2807  0.4141 -0.2018
 1776TIP3    H2 5293   4.852   1.909   3.126  1.2913  0.1717  0.4534
 1777TIP3   OH2 5294   4.860   4.542   2.345  0.2392  0.0874  0.6778
 1777TIP3    H1 5295   4.772   4.505   2.335  1.2671 -2.3084 -0.1905
 1777TIP3    H2 5296   4.864   4.611   2.278 -0.7317 -0.2347  0.2659
 1778TIP3   OH2 5297   6.081   0.286   4.367  0.1318  0.7739 -0.1530
 1778TIP3    H1 5298   6.171   0.308   4.341  0.2962  0.4460  0.1214
 1778TIP3    H2 5299   6.026   0.340   4.311  0.4804  0.3151 -0.9596
 1779TIP3   OH2 5300   3.817   4.550   0.174 -0.0161  0.1851 -0.2450
 1779TIP3    H1 5301   3.844   4.535   0.083 -0.5447  1.2272 -0.5860
 1779TIP3    H2 5302   3.900   4.564   0.221  0.2240  0.3660 -0.7084
 1780TIP3   OH2 5303   3.707   5.762   0.077 -0.2927 -0.3146  0.0628
 1780TIP3    H1 5304   3.780   5.776   0.137 -0.5478  0.9261  0.0956
 1780TIP3    H2 5305   3.650   5.699   0.122 -1.3771  1.8888  1.9362
 1781TIP3   OH2 5306   2.104   0.460   1.704  0.1528  0.1256 -0.3870
 1781TIP3    H1 5307   2.031   0.516   1.731 -0.6903 -1.2611  0.2734
 1781TIP3    H2 5308   2.158   0.452   1.782  0.2121 -0.0946 -0.4511
 1782TIP3   OH2 5309   6.849   5.570   0.848 -0.2742 -0.0218 -0.1525
 1782TIP3    H1 5310   6.853   5.536   0.937  1.4273  1.7081  0.5044
 1782TIP3    H2 5311   6.797   5.505   0.800 -0.0571 -1.7105  1.7464
 1783TIP3   OH2 5312   2.857   1.587   2.015 -0.2212  0.4608  0.1952
 1783TIP3    H1 5313   2.879   1.558   1.927 -0.3536  0.2872  0.2208
 1783TIP3    H2 5314   2.779   1.538   2.039 -0.4300  0.8120  0.2474
 1784TIP3   OH2 5315   0.238   1.367   4.935  0.4104 -0.2738 -0.4035
 1784TIP3    H1 5316   0.185   1.439   4.969  1.3551  0.1212  0.2786
 1784TIP3    H2 5317   0.293   1.340   5.009 -0.1199 -1.8890 -0.5578
 1785TIP3   OH2 5318   4.513   0.811   4.721  0.0609  0.0034 -0.4543
 1785TIP3    H1 5319   4.543   0.760   4.797  0.4079  0.3614 -0.3515
 1785TIP3    H2 5320   4.418   0.801   4.723  0.0850 -0.1813 -0.1070
 1786TIP3   OH2 5321   6.428   2.971   0.826  0.0592 -0.3960  0.1748
 1786TIP3    H1 5322   6.450   3.064   0.816  1.6319 -0.7489  0.1050
 1786TIP3    H2 5323   6.332   2.970   0.831  0.0010  1.2148  0.0819
 1787TIP3   OH2 5324   5.076   1.594   1.428  0.3306  0.0630  0.1156
 1787TIP3    H1 5325   5.033   1.557   1.351 -1.0877  1.0083  0.4203
 1787TIP3    H2 5326   5.164   1.617   1.396 -0.6392  1.6529 -1.6319
 1788TIP3   OH2 5327   2.500   5.412   3.221  0.2426 -0.3459  0.2551
 1788TIP3    H1 5328   2.591   5.415   3.250  0.9106  0.4346 -1.7108
 1788TIP3    H2 5329   2.498   5.468   3.143 -1.7962 -0.8078 -0.0876
 1789TIP3   OH2 5330   6.245   3.569   4.322 -0.0616 -0.2189  0.1120
 1789TIP3    H1 5331   6.170   3.576   4.263  0.5798  0.8356 -0.6018
 1789TIP3    H2 5332   6.320   3.599   4.270  0.3687  1.7088  1.7169
 1790TIP3   OH2 5333   4.911   6.433   3.830 -0.1885  0.5166  0.1528
 1790TIP3    H1 5334   4.997   6.401   3.856  0.4642  2.3833  0.4468
 1790TIP3    H2 5335   4.855   6.419   3.906 -0.3867 -1.4259 -0.3054
 1791TIP3   OH2 5336   4.252   2.856   1.183 -0.1535  0.3418  1.0815
 1791TIP3    H1 5337   4.172   2.887   1.139  0.1362 -0.6656 -0.2132
 1791TIP3    H2 5338   4.301   2.811   1.115  1.0804  0.0937  2.0960
 1792TIP3   OH2 5339   0.791   6.276   0.014  0.6453 -0.5905  0.0317
 1792TIP3    H1 5340   0.852   6.205   0.033  0.3532 -0.8284  0.1005
 1792TIP3    H2 5341   0.788   6.327   0.095 -0.3812 -1.4408  0.5587
 1793TIP3   OH2 5342   0.770   1.897   5.334 -0.2947  0.4028  0.1578
 1793TIP3    H1 5343   0.802   1.976   5.290  0.9319 -0.4362 -0.5245
 1793TIP3    H2 5344   0.766   1.831   5.265  0.0656 -0.5058  0.9808
 1794TIP3   OH2 5345   0.751   4.937   1.014  0.1775  0.7314  0.9180
 1794TIP3    H1 5346   0.714   5.018   1.051 -0.7880  0.8727 -0.3141
 1794TIP3    H2 5347   0.682   4.903   0.957  1.7477  0.7388 -1.0861
 1795TIP3   OH2 5348   2.792   3.660   1.056  0.7404  0.3070 -0.6237
 1795TIP3    H1 5349   2.885   3.681   1.068  0.6865  0.4501 -0.4550
 1795TIP3    H2 5350   2.782   3.573   1.095 -0.0465  1.9226  3.2216
 1796TIP3   OH2 5351   3.922   4.188   4.270  0.2187  0.7887 -0.1746
 1796TIP3    H1 5352   3.889   4.115   4.218 -0.3069  1.9948 -1.5901
 1796TIP3    H2 5353   3.997   4.152   4.317  0.5907 -0.3876 -1.6034
 1797TIP3   OH2 5354   1.420   2.669   1.210 -0.1992 -0.2139 -0.0348
 1797TIP3    H1 5355   1.492   2.707   1.261  0.8255 -1.5898 -0.3958
 1797TIP3    H2 5356   1.462   2.634   1.132 -1.4783  0.1278 -0.9096
 1798TIP3   OH2 5357   3.019   4.243   5.052 -0.4602 -0.1556 -0.2599
 1798TIP3    H1 5358   3.010   4.276   5.141 -0.4152 -0.7028 -0.0509
 1798TIP3    H2 5359   3.051   4.318   5.002  0.2470 -0.0537  0.3327
 1799TIP3   OH2 5360   1.283   3.203   2.147 -0.2304 -0.3720  0.1829
 1799TIP3    H1 5361   1.329   3.122   2.170 -0.5008 -0.6149 -0.1100
 1799TIP3    H2 5362   1.214   3.174   2.086  0.2317  0.1988 -0.6221
 1800TIP3   OH2 5363   4.617   6.353   5.136 -0.4669  0.4062  0.9461
 1800TIP3    H1 5364   4.682   6.414   5.173 -1.2426  0.6362  1.9704
 1800TIP3    H2 5365   4.650   6.266   5.160  0.7103  0.3677 -0.6295
 1801TIP3   OH2 5366   6.059   5.581   2.780 -0.1923  0.4824  0.1472
 1801TIP3    H1 5367   6.035   5.488   2.778 -0.3489  0.4843  1.3602
 1801TIP3    H2 5368   6.136   5.587   2.723 -1.2684 -0.0457 -1.4241
 1802TIP3   OH2 5369   2.738   6.425   4.258 -0.5537 -0.0936  0.3496
 1802TIP3    H1 5370   2.729   6.505   4.207  2.9489  0.5411  0.5038
 1802TIP3    H2 5371   2.756   6.357   4.193  2.1076  0.3897  0.4615
 1803TIP3   OH2 5372   6.826   6.345   0.428 -0.5832  0.0061 -0.5964
 1803TIP3    H1 5373   6.853   6.404   0.357  0.7600  0.7934  0.5211
 1803TIP3    H2 5374   6.753   6.391   0.470  1.3610  1.7023  1.1764
 1804TIP3   OH2 5375   2.600   1.398   1.836  0.1763  0.2897 -0.1884
 1804TIP3    H1 5376   2.523   1.352   1.870  0.1684  0.2123 -0.3091
 1804TIP3    H2 5377   2.640   1.439   1.912 -0.3114  0.8137 -0.2006
 1805TIP3   OH2 5378   0.658   1.678   0.554  0.1185 -0.3284  0.1998
 1805TIP3    H1 5379   0.611   1.745   0.604  0.8143 -0.7459  1.4660
 1805TIP3    H2 5380   0.749   1.686   0.583  0.6640 -0.2421 -1.4158
 1806TIP3   OH2 5381   2.029   5.487   5.509 -0.1545 -0.2433 -0.3937
 1806TIP3    H1 5382   1.948   5.451   5.545 -0.6530  1.4076  0.2192
 1806TIP3    H2 5383   2.088   5.491   5.584  0.1229 -0.4220 -0.6032
 1807TIP3   OH2 5384   2.075   1.369   1.883  0.0058  0.0848  0.0219
 1807TIP3    H1 5385   2.049   1.460   1.898 -0.1394  0.4230 -1.9882
 1807TIP3    H2 5386   2.015   1.338   1.815  0.6262 -1.2309  0.0523
 1808TIP3   OH2 5387   6.604   1.797   2.596  0.0519  0.2172 -0.2457
 1808TIP3    H1 5388   6.663   1.751   2.536  0.7705  3.5413 -2.3734
 1808TIP3    H2 5389   6.517   1.776   2.564  0.1813 -1.5806  0.4421
 1809TIP3   OH2 5390   6.430   3.751   0.474 -0.4465  0.2837  0.5332
 1809TIP3    H1 5391   6.495   3.809   0.512  0.1299 -0.8089  1.2865
 1809TIP3    H2 5392   6.416   3.683   0.541 -0.6903 -0.7311 -0.5076
 1810TIP3   OH2 5393   3.942   0.155   4.212  0.5337  0.0273  0.5525
 1810TIP3    H1 5394   3.872   0.118   4.266  0.0509  0.5678  0.3054
 1810TIP3    H2 5395   3.904   0.163   4.125  1.6033 -1.7003 -0.1180
 1811TIP3   OH2 5396   5.959   3.128   1.693  0.0782 -0.0396  0.0005
 1811TIP3    H1 5397   5.928   3.139   1.602  1.5962 -0.3002 -0.5690
 1811TIP3    H2 5398   5.940   3.212   1.734  1.6719  1.0363 -1.2988
 1812TIP3   OH2 5399   1.015   1.063   1.426  0.3060  0.2986  0.2164
 1812TIP3    H1 5400   1.038   0.981   1.383 -1.8824  0.4872 -1.5400
 1812TIP3    H2 5401   0.983   1.036   1.513  3.5652 -0.2170  1.3832
 1813TIP3   OH2 5402   2.251   3.267   1.761 -0.2666  0.2549  0.2835
 1813TIP3    H1 5403   2.329   3.262   1.817 -0.6234  0.7874  0.8333
 1813TIP3    H2 5404   2.267   3.202   1.693  1.3895  1.4170 -0.5293
 1814TIP3   OH2 5405   2.745   4.897   5.467  0.2046  0.0060 -0.5599
 1814TIP3    H1 5406   2.808   4.895   5.538  0.6482 -0.1008 -0.9510
 1814TIP3    H2 5407   2.669   4.850   5.500 -0.2820  1.4642  0.4801
 1815TIP3   OH2 5408   0.353   2.112   1.478 -0.5362  0.7407 -0.3236
 1815TIP3    H1 5409   0.412   2.046   1.440 -0.1306  1.6364 -1.2649
 1815TIP3    H2 5410   0.344   2.084   1.570  0.8384  0.2193 -0.3194
 1816TIP3   OH2 5411   1.803   1.582   3.679  0.6648  0.1923  0.2166
 1816TIP3    H1 5412   1.890   1.562   3.644  1.6775  0.8825  2.2124
 1816TIP3    H2 5413   1.817   1.658   3.736 -1.4245  0.8795 -0.1149
 1817TIP3   OH2 5414   2.376   1.756   1.176 -0.0851 -0.2744 -0.4740
 1817TIP3    H1 5415   2.462   1.735   1.141 -0.1602  1.0369 -1.5072
 1817TIP3    H2 5416   2.393   1.812   1.251  0.0064 -1.6888  0.6099
 1818TIP3   OH2 5417   5.959   3.599   0.842 -0.1698  0.4043  0.1306
 1818TIP3    H1 5418   6.004   3.648   0.910  0.0922  0.5517 -0.1450
 1818TIP3    H2 5419   6.010   3.615   0.763 -2.7292  3.7382 -1.1163
 1819TIP3   OH2 5420   5.697   5.983   2.650  0.0720 -0.3026  0.4465
 1819TIP3    H1 5421   5.729   5.895   2.670  1.4207  0.1160  0.2415
 1819TIP3    H2 5422   5.767   6.024   2.600 -1.1152  0.4224 -0.6895
 1820TIP3   OH2 5423   4.451   4.217   4.362  0.4176  0.4663 -0.0445
 1820TIP3    H1 5424   4.361   4.227   4.394  0.5829  1.6891  0.0685
 1820TIP3    H2 5425   4.474   4.126   4.384 -0.1885  0.6444  1.4559
 1821TIP3   OH2 5426   1.230   5.851   4.677  0.0090  0.1600 -0.1774
 1821TIP3    H1 5427   1.230   5.819   4.586  2.4997  0.7872 -0.4721
 1821TIP3    H2 5428   1.239   5.772   4.730 -0.3619 -0.1254 -0.5302
 1822TIP3   OH2 5429   0.103   3.907   3.858  0.3592  0.3842  0.7511
 1822TIP3    H1 5430   0.153   3.873   3.783  0.0392 -0.5150  0.9335
 1822TIP3    H2 5431   0.168   3.916   3.928  0.4286  0.0364  0.7320
 1823TIP3   OH2 5432   1.573   1.146   1.412  0.0936  0.9793  0.3095
 1823TIP3    H1 5433   1.529   1.103   1.340  0.4789  0.9414  0.0939
 1823TIP3    H2 5434   1.526   1.117   1.490 -0.1682  0.8262  0.0958
 1824TIP3   OH2 5435   5.901   4.233   2.558  0.2780 -0.4095 -0.0604
 1824TIP3    H1 5436   5.852   4.187   2.626  0.0437  1.5345  1.1800
 1824TIP3    H2 5437   5.834   4.265   2.498  0.0654  1.0128  0.8589
 1825TIP3   OH2 5438   4.010   1.526   1.560  0.8714 -0.5764 -0.0953
 1825TIP3    H1 5439   4.090   1.549   1.606  0.9010  1.0467 -0.8773
 1825TIP3    H2 5440   3.980   1.609   1.521 -2.0598 -0.7423  1.4874
 1826TIP3   OH2 5441   4.630   2.545   3.804  0.1130  0.1102  0.2656
 1826TIP3    H1 5442   4.646   2.638   3.825 -0.0848 -0.1598  1.7488
 1826TIP3    H2 5443   4.589   2.510   3.883 -1.8009 -0.7739 -1.0532
 1827TIP3   OH2 5444   3.254   0.265   3.306 -0.2735  0.0547 -0.1278
 1827TIP3    H1 5445   3.343   0.242   3.333 -0.5011 -0.2292  0.3980
 1827TIP3    H2 5446   3.197   0.225   3.372 -0.8917 -1.1932 -1.3769
 1828TIP3   OH2 5447   4.488   6.762   4.972 -0.3416 -0.5151 -0.2702
 1828TIP3    H1 5448   4.461   6.697   5.038  0.0896  0.5291  0.9674
 1828TIP3    H2 5449   4.501   6.843   5.022 -0.3207  0.3918 -1.7009
 1829TIP3   OH2 5450   1.991   1.669   4.876  0.1762 -0.2876  0.0264
 1829TIP3    H1 5451   1.946   1.592   4.910 -0.8816  0.6716  0.9406
 1829TIP3    H2 5452   2.007   1.723   4.954  0.6713  0.5195 -0.6126
 1830TIP3   OH2 5453   5.779   4.519   5.596 -0.3198 -0.1855  0.6694
 1830TIP3    H1 5454   5.794   4.433   5.637 -0.7837 -0.2476  0.7110
 1830TIP3    H2 5455   5.723   4.500   5.521 -1.3923  0.2300  1.3454
 1831TIP3   OH2 5456   5.194   0.839   1.118  0.0955 -0.3275  0.5448
 1831TIP3    H1 5457   5.225   0.903   1.054  1.2946 -1.6349 -0.2616
 1831TIP3    H2 5458   5.222   0.873   1.203 -0.1872  0.6902  0.2433
 1832TIP3   OH2 5459   5.108   3.958   4.257 -0.1413 -0.8322  0.2280
 1832TIP3    H1 5460   5.163   3.927   4.330 -0.2141  2.7224  1.9860
 1832TIP3    H2 5461   5.037   4.006   4.300 -0.9512  0.2638 -2.2006
 1833TIP3   OH2 5462   5.122   2.582   3.455  0.1551  0.5579 -0.1555
 1833TIP3    H1 5463   5.069   2.642   3.402 -0.4733  0.2714  0.1348
 1833TIP3    H2 5464   5.141   2.509   3.396 -0.5602  0.2292  0.0038
 1834TIP3   OH2 5465   4.322   1.005   0.506 -0.3901  0.1628  0.7381
 1834TIP3    H1 5466   4.319   1.101   0.506  0.7341  0.2020  0.9057
 1834TIP3    H2 5467   4.258   0.980   0.439 -1.6165  0.9844  1.5526
 1835TIP3   OH2 5468   2.004   5.113   3.185  0.0131 -0.4581  0.4037
 1835TIP3    H1 5469   2.050   5.037   3.150  2.0108 -0.3305  2.4436
 1835TIP3    H2 5470   1.988   5.169   3.110  1.4256 -1.4618 -0.6959
 1836TIP3   OH2 5471   3.415   0.414   1.229  0.6242  0.3610 -0.0066
 1836TIP3    H1 5472   3.451   0.400   1.142  1.6882  0.1503  0.4477
 1836TIP3    H2 5473   3.322   0.430   1.215  0.9551  1.3037 -1.2552
 1837TIP3   OH2 5474   3.277   5.379   2.798 -0.7786 -0.0218  0.2412
 1837TIP3    H1 5475   3.355   5.350   2.845 -0.2093 -0.3930 -0.8799
 1837TIP3    H2 5476   3.246   5.455   2.847  1.0760  0.9711 -0.0164
 1838TIP3   OH2 5477   2.577   6.020   3.479  0.0534  0.0847  0.1493
 1838TIP3    H1 5478   2.493   5.992   3.515 -0.6768  0.7953 -0.9449
 1838TIP3    H2 5479   2.566   6.114   3.461  1.9970  0.9050  2.5234
 1839TIP3   OH2 5480   6.922   0.772   0.714 -0.7991  0.2495 -0.4854
 1839TIP3    H1 5481   6.981   0.780   0.638  0.7031 -0.5520  0.5506
 1839TIP3    H2 5482   6.946   0.846   0.770 -1.0561  0.1368 -0.2278
 1840TIP3   OH2 5483   3.154   2.614   5.511  0.1061  0.1168  0.3841
 1840TIP3    H1 5484   3.203   2.695   5.522  0.5327 -0.0782 -0.0314
 1840TIP3    H2 5485   3.189   2.575   5.430  0.0642 -0.5889  0.6963
 1841TIP3   OH2 5486   2.807   6.179   3.191 -0.1341 -0.3240  0.2075
 1841TIP3    H1 5487   2.804   6.088   3.161  0.5279  0.3878 -2.2252
 1841TIP3    H2 5488   2.747   6.226   3.133  1.0490  1.1162  0.0748
 1842TIP3   OH2 5489   4.437   2.182   2.607  0.5829  0.2497  0.2483
 1842TIP3    H1 5490   4.379   2.132   2.665  2.0606  0.5239  2.0543
 1842TIP3    H2 5491   4.454   2.123   2.534  0.0166 -0.7885  0.9319
 1843TIP3   OH2 5492   0.670   5.369   5.647 -0.1900 -0.4314 -0.1975
 1843TIP3    H1 5493   0.662   5.274   5.638 -2.2261 -0.3628  0.3624
 1843TIP3    H2 5494   0.699   5.382   5.737 -1.1600 -0.5179  0.1439
 1844TIP3   OH2 5495   0.261   5.472   1.984  0.7548  0.0043 -0.2651
 1844TIP3    H1 5496   0.279   5.555   1.940  1.1442  0.0999  0.0723
 1844TIP3    H2 5497   0.167   5.459   1.972  0.5611  0.8393  0.2643
 1845TIP3   OH2 5498   6.539   4.228   4.985  0.4716  0.9260  0.0001
 1845TIP3    H1 5499   6.499   4.208   4.900 -0.4151 -1.0381  0.8086
 1845TIP3    H2 5500   6.633   4.223   4.969  0.3140  0.4888 -0.8547
 1846TIP3   OH2 5501   4.829   2.294   5.316 -0.1803 -0.5035 -0.2945
 1846TIP3    H1 5502   4.847   2.388   5.318  0.8627 -0.6918 -0.3358
 1846TIP3    H2 5503   4.913   2.253   5.335 -1.0356 -1.4145  1.7390
 1847TIP3   OH2 5504   1.893   4.474   1.866 -0.0777  0.4685  0.2002
 1847TIP3    H1 5505   1.891   4.473   1.962 -1.0402  0.7770  0.1891
 1847TIP3    H2 5506   1.814   4.520   1.840  0.1962  0.4350 -0.7529
 1848TIP3   OH2 5507   6.604   3.011   1.059  0.3950 -0.3439 -0.0093
 1848TIP3    H1 5508   6.636   3.094   1.023  1.0178 -1.4115 -2.0362
 1848TIP3    H2 5509   6.512   3.007   1.031  0.9334 -1.2689 -1.8056
 1849TIP3   OH2 5510   2.116   0.041   1.825  0.4071 -0.3459  0.4870
 1849TIP3    H1 5511   2.182   0.013   1.762  0.9717 -2.2701  1.8432
 1849TIP3    H2 5512   2.090  -0.039   1.870 -1.3990  0.6832  1.3722
 1850TIP3   OH2 5513   7.188   1.426   5.584 -0.5679  0.2566 -0.1446
 1850TIP3    H1 5514   7.172   1.394   5.673  0.4395  0.9913  0.3235
 1850TIP3    H2 5515   7.234   1.509   5.596  0.9400 -0.3427 -1.3505
 1851TIP3   OH2 5516   3.576   2.583   4.220  0.0194 -0.1986  0.4417
 1851TIP3    H1 5517   3.667   2.597   4.193  0.4331 -1.5123  1.1021
 1851TIP3    H2 5518   3.582   2.553   4.311 -0.9260 -2.2686 -0.1303
 1852TIP3   OH2 5519   5.411   4.523   5.486  0.0219  0.8385  0.2870
 1852TIP3    H1 5520   5.459   4.606   5.487  0.7814  0.4078  0.0163
 1852TIP3    H2 5521   5.453   4.472   5.417 -0.5743  0.2995  0.3153
 1853TIP3   OH2 5522   3.079   5.583   0.024  0.3540 -0.0096 -0.3228
 1853TIP3    H1 5523   3.121   5.532  -0.045 -1.0489 -1.5190 -0.1360
 1853TIP3    H2 5524   3.101   5.537   0.105 -1.4806 -0.8001 -0.2134
 1854TIP3   OH2 5525   4.461   3.344   5.538  0.2257 -0.4659 -0.4406
 1854TIP3    H1 5526   4.398   3.278   5.508 -0.8005  0.2701  0.0585
 1854TIP3    H2 5527   4.508   3.301   5.609 -0.5379 -0.6279 -0.0182
 1855TIP3   OH2 5528   1.944   5.371   5.232  0.5892  0.4690 -0.4295
 1855TIP3    H1 5529   1.926   5.451   5.182  0.0679  0.0565 -0.9221
 1855TIP3    H2 5530   1.888   5.305   5.192  0.9176 -0.1167  0.0571
 1856TIP3   OH2 5531   2.258   4.129   1.331  0.7436  0.0130 -0.0211
 1856TIP3    H1 5532   2.307   4.211   1.332 -0.6140  0.8781 -0.5615
 1856TIP3    H2 5533   2.191   4.142   1.399  0.9147 -0.9170  0.3333
 1857TIP3   OH2 5534   6.888   3.090   0.519  0.2447  0.3796  0.4726
 1857TIP3    H1 5535   6.876   3.107   0.613 -1.1279 -1.3370  0.6652
 1857TIP3    H2 5536   6.799   3.075   0.487  0.8323 -0.5139 -0.8007
 1858TIP3   OH2 5537   4.281   4.188   2.487  0.1347 -0.3164 -0.3223
 1858TIP3    H1 5538   4.221   4.135   2.539  0.0238 -1.8465 -1.9098
 1858TIP3    H2 5539   4.227   4.261   2.456 -0.7098 -1.2204 -1.0341
 1859TIP3   OH2 5540   5.034   0.278   3.757 -0.8449 -0.4278  0.6266
 1859TIP3    H1 5541   5.008   0.218   3.827  1.0327 -1.2989  0.6254
 1859TIP3    H2 5542   5.123   0.251   3.734 -1.5413 -0.4427 -2.4162
 1860TIP3   OH2 5543   1.334   0.599   1.084  0.0336 -0.3950 -0.0603
 1860TIP3    H1 5544   1.260   0.659   1.092 -1.7854 -2.6794  1.3563
 1860TIP3    H2 5545   1.397   0.632   1.149 -0.1779  0.9288 -0.4904
 1861TIP3   OH2 5546   0.986   6.494   4.370 -0.0012 -0.3259 -0.2522
 1861TIP3    H1 5547   0.996   6.417   4.426  0.5942  0.6181  0.9807
 1861TIP3    H2 5548   1.073   6.509   4.334 -0.2963 -0.6951 -1.1626
 1862TIP3   OH2 5549   1.225   4.195   1.152 -0.3282  0.3514  0.3962
 1862TIP3    H1 5550   1.199   4.137   1.224 -0.5542  0.1074  0.1180
 1862TIP3    H2 5551   1.144   4.238   1.125 -0.4660 -0.4226 -0.4825
 1863TIP3   OH2 5552   0.200   3.255   5.096  0.5037 -0.1156 -0.3040
 1863TIP3    H1 5553   0.205   3.341   5.054 -1.4621 -0.0663 -0.5251
 1863TIP3    H2 5554   0.208   3.273   5.189  1.9924  0.0748 -0.4434
 1864TIP3   OH2 5555   4.076   2.803   2.265  0.0264  0.5797  0.2155
 1864TIP3    H1 5556   4.019   2.727   2.256 -0.3354  1.0167 -1.4504
 1864TIP3    H2 5557   4.162   2.766   2.287 -0.5461 -0.1645  1.2807
 1865TIP3   OH2 5558   3.394   1.336   2.022  0.1020 -0.2580  0.4169
 1865TIP3    H1 5559   3.441   1.361   2.101  0.1686  1.0407 -0.0125
 1865TIP3    H2 5560   3.381   1.241   2.031  1.1525 -0.3337  1.4147
 1866TIP3   OH2 5561   5.682   1.091   3.110 -0.3866  0.1300 -0.2502
 1866TIP3    H1 5562   5.666   1.037   3.188 -2.8076  0.3032 -0.5470
 1866TIP3    H2 5563   5.777   1.088   3.098 -0.2646 -2.7755  0.6476
 1867TIP3   OH2 5564   2.574   2.544   4.943 -0.2934  0.4347 -0.0610
 1867TIP3    H1 5565   2.641   2.503   4.999 -0.1414 -0.2562 -0.7344
 1867TIP3    H2 5566   2.571   2.634   4.973 -0.7672 -0.0884  1.6009
 1868TIP3   OH2 5567   0.670   6.401   3.174 -0.3017  0.8233  0.1552
 1868TIP3    H1 5568   0.616   6.479   3.187  2.5078  2.9495  0.0338
 1868TIP3    H2 5569   0.732   6.403   3.246  0.7127 -0.5249 -0.6409
 1869TIP3   OH2 5570   5.260   5.222   2.276  0.5560 -0.4294  0.3847
 1869TIP3    H1 5571   5.172   5.217   2.313  0.7988 -0.2241  1.0184
 1869TIP3    H2 5572   5.299   5.136   2.294  0.3056 -0.7085 -0.3792
 1870TIP3   OH2 5573   1.390   1.339   0.039  0.1054  0.5631  0.2055
 1870TIP3    H1 5574   1.409   1.398  -0.033  2.1598  0.0171  0.2457
 1870TIP3    H2 5575   1.401   1.392   0.118 -0.2310  0.6636  0.1883
 1871TIP3   OH2 5576   3.002   0.079   2.739 -0.5222 -0.1382 -0.0673
 1871TIP3    H1 5577   3.022   0.137   2.665 -1.3966 -1.0016 -1.0229
 1871TIP3    H2 5578   3.078   0.021   2.744  0.2932  0.9609  0.8027
 1872TIP3   OH2 5579   2.358   3.970   5.543 -0.3777 -0.2725  0.7299
 1872TIP3    H1 5580   2.391   4.029   5.475 -0.4703  0.6064  1.4315
 1872TIP3    H2 5581   2.436   3.946   5.593 -0.3691 -0.5895  0.5645
 1873TIP3   OH2 5582   6.082   4.904   2.015  0.7147  0.1101 -0.9047
 1873TIP3    H1 5583   6.093   4.842   1.943  0.9977 -1.5381  0.4671
 1873TIP3    H2 5584   6.081   4.849   2.093 -0.1726  1.7655  0.3227
 1874TIP3   OH2 5585   6.346   1.831   3.893  0.2174 -0.7416 -0.2116
 1874TIP3    H1 5586   6.369   1.778   3.969 -0.7359 -1.3627 -0.3386
 1874TIP3    H2 5587   6.419   1.819   3.832  1.4384  0.4887  0.9306
 1875TIP3   OH2 5588   5.504   5.925   0.750  0.0199 -0.2583  0.3366
 1875TIP3    H1 5589   5.459   6.005   0.722 -0.4688 -0.3935  0.7161
 1875TIP3    H2 5590   5.455   5.855   0.707 -0.3216 -0.4256  0.9960
 1876TIP3   OH2 5591   4.398   0.750   0.085  0.4845 -0.1174  0.1429
 1876TIP3    H1 5592   4.326   0.691   0.104  0.2931  0.4850  1.3659
 1876TIP3    H2 5593   4.356   0.828   0.047  0.5452 -0.0142  0.2850
 1877TIP3   OH2 5594   0.239   0.197   3.376  0.4872  0.0229 -0.7056
 1877TIP3    H1 5595   0.309   0.260   3.356 -0.0415  1.0899  0.6799
 1877TIP3    H2 5596   0.180   0.244   3.434  0.1109 -1.7870  0.4591
 1878TIP3   OH2 5597   5.715   2.265   3.744 -0.4684  0.3685  0.0501
 1878TIP3    H1 5598   5.795   2.309   3.773  0.7003 -1.0324 -0.9183
 1878TIP3    H2 5599   5.690   2.310   3.663  0.2148 -0.1599 -0.4608
 1879TIP3   OH2 5600   6.749   6.204   1.819 -0.5114 -0.5271 -0.2463
 1879TIP3    H1 5601   6.815   6.211   1.750 -1.1840 -1.7759 -1.0694
 1879TIP3    H2 5602   6.788   6.144   1.883  0.3518  1.0794  0.8015
 1880TIP3   OH2 5603   6.418   6.143   4.025 -0.3247  0.1939 -0.0834
 1880TIP3    H1 5604   6.383   6.121   4.111  0.4023  0.5083  0.3005
 1880TIP3    H2 5605   6.342   6.142   3.967 -1.1573  1.9321  0.9222
 1881TIP3   OH2 5606   0.133   0.749   2.966 -0.0482  0.0163  0.0627
 1881TIP3    H1 5607   0.223   0.770   2.941 -0.5826  1.1914 -0.9526
 1881TIP3    H2 5608   0.120   0.659   2.935  0.7343 -0.1269  0.1257
 1882TIP3   OH2 5609   3.651   3.840   0.858  0.3658 -0.2412 -0.0064
 1882TIP3    H1 5610   3.619   3.876   0.775  2.2399  0.3340 -0.5258
 1882TIP3    H2 5611   3.636   3.910   0.921  0.8835  0.1737 -0.3250
 1883TIP3   OH2 5612   5.301   3.949   2.576  0.5692 -0.4901 -0.7667
 1883TIP3    H1 5613   5.220   3.988   2.608  0.7748 -0.3829 -0.3706
 1883TIP3    H2 5614   5.290   3.855   2.592  0.8890 -0.3849  0.1296
 1884TIP3   OH2 5615   0.118   1.587   2.715  0.2644 -0.0230  0.0623
 1884TIP3    H1 5616   0.188   1.524   2.733  0.4126  0.1250  0.0065
 1884TIP3    H2 5617   0.037   1.538   2.732  0.3864  0.4291  2.3001
 1885TIP3   OH2 5618   3.374   5.261   1.965  0.2758 -0.8061  0.3437
 1885TIP3    H1 5619   3.340   5.313   1.893 -1.6893 -1.4856  0.7370
 1885TIP3    H2 5620   3.407   5.326   2.028  0.4592 -0.1645 -0.3955
 1886TIP3   OH2 5621   1.054   3.537   1.805  0.2908 -0.0196 -0.1411
 1886TIP3    H1 5622   1.016   3.574   1.885  0.6195 -0.7370  0.3552
 1886TIP3    H2 5623   0.984   3.546   1.739 -0.4448 -0.5459  0.5422
 1887TIP3   OH2 5624   0.713   3.717   2.919  0.3723 -0.4860  0.1579
 1887TIP3    H1 5625   0.694   3.791   2.862 -1.5019  1.8142  3.3733
 1887TIP3    H2 5626   0.644   3.721   2.986  0.9416 -4.4436  1.2319
 1888TIP3   OH2 5627   2.187   4.972   2.884 -0.0452  0.6927  0.3295
 1888TIP3    H1 5628   2.159   4.883   2.863 -2.4711  1.4735 -0.1790
 1888TIP3    H2 5629   2.124   5.028   2.838  1.2268  2.6678  0.8566
 1889TIP3   OH2 5630   3.744   0.333   1.799  0.2852 -0.8200  0.3927
 1889TIP3    H1 5631   3.798   0.343   1.721 -0.5867 -0.3736 -0.1865
 1889TIP3    H2 5632   3.690   0.256   1.781 -1.1702  0.3006 -0.2622
 1890TIP3   OH2 5633   3.418   4.822   5.289  0.3955  0.4658  0.5917
 1890TIP3    H1 5634   3.342   4.880   5.285  0.7374  0.9867  1.4133
 1890TIP3    H2 5635   3.469   4.843   5.211 -1.2162 -1.2180 -0.9979
 1891TIP3   OH2 5636   3.221   3.578   0.423  0.3167  0.2872  0.4711
 1891TIP3    H1 5637   3.206   3.671   0.438  1.3467  0.5102  0.2052
 1891TIP3    H2 5638   3.315   3.572   0.405  0.3792 -0.8961  1.1546
 1892TIP3   OH2 5639   2.254   6.708   1.454 -0.1476 -0.1405  0.1671
 1892TIP3    H1 5640   2.340   6.709   1.412  0.4882 -1.0923  1.3672
 1892TIP3    H2 5641   2.195   6.743   1.388  1.2850  1.3929 -0.3764
 1893TIP3   OH2 5642   7.135   5.200   2.587 -0.4821  0.0744 -0.4044
 1893TIP3    H1 5643   7.227   5.173   2.578 -0.4511 -0.3693  0.9050
 1893TIP3    H2 5644   7.107   5.223   2.499  0.9539  0.4175 -0.7957
 1894TIP3   OH2 5645   3.934   6.083   1.535  0.3756 -0.4735 -0.0531
 1894TIP3    H1 5646   3.916   6.016   1.469  0.8659 -0.2198 -0.4538
 1894TIP3    H2 5647   3.854   6.088   1.587 -1.2575  1.4864 -2.5354
 1895TIP3   OH2 5648   0.847   3.916   5.145  0.2022  0.1510 -0.1697
 1895TIP3    H1 5649   0.785   3.986   5.166 -0.3343 -0.1934 -0.5615
 1895TIP3    H2 5650   0.798   3.835   5.159  1.0582 -0.1819  1.0332
 1896TIP3   OH2 5651   1.546   5.140   2.623 -0.2666 -0.2180 -0.2355
 1896TIP3    H1 5652   1.475   5.087   2.658  0.8310 -0.9833  0.9225
 1896TIP3    H2 5653   1.621   5.080   2.621  0.9128  1.1657  0.7442
 1897TIP3   OH2 5654   0.995   2.679   2.257  0.1534  0.1583 -0.4070
 1897TIP3    H1 5655   1.082   2.715   2.238  0.2080  0.3111  0.1086
 1897TIP3    H2 5656   0.942   2.755   2.282 -0.2558  0.1257 -1.1642
 1898TIP3   OH2 5657   5.426   0.387   4.392  0.2733  0.4614  0.1202
 1898TIP3    H1 5658   5.393   0.477   4.393  0.7029  0.6664  2.4635
 1898TIP3    H2 5659   5.501   0.390   4.333 -0.9347  1.1336 -1.4422
 1899TIP3   OH2 5660   4.042   2.222   4.566  0.1635  0.5544 -0.3204
 1899TIP3    H1 5661   3.948   2.204   4.565  0.2446  0.0502  0.4375
 1899TIP3    H2 5662   4.078   2.156   4.625  0.9715  0.8558 -0.4726
 1900TIP3   OH2 5663   6.423   0.935   1.201 -0.3468  0.2328  0.3198
 1900TIP3    H1 5664   6.355   0.931   1.268 -0.0209 -1.0837  0.5952
 1900TIP3    H2 5665   6.397   0.867   1.138  2.0049 -2.1608  1.7220
 1901TIP3   OH2 5666   5.316   1.304   1.841  0.5297 -0.2124  0.1212
 1901TIP3    H1 5667   5.230   1.261   1.850  0.3388  0.1646  0.1044
 1901TIP3    H2 5668   5.313   1.347   1.756  0.6159  0.0701  0.2601
 1902TIP3   OH2 5669   1.783   3.461   0.465 -0.0609  0.4378  0.0620
 1902TIP3    H1 5670   1.707   3.452   0.407 -0.3379 -0.7192  0.5774
 1902TIP3    H2 5671   1.788   3.554   0.483  0.3298  0.9282 -2.2123
 1903TIP3   OH2 5672   2.847   0.165   2.147 -0.0179  0.2508  0.7905
 1903TIP3    H1 5673   2.931   0.162   2.193  0.0831  1.3661  0.6945
 1903TIP3    H2 5674   2.846   0.085   2.094  0.3721 -0.4691  1.8268
 1904TIP3   OH2 5675   1.080   2.099   2.631 -0.4579 -0.4452  0.2740
 1904TIP3    H1 5676   1.074   2.025   2.570  1.9095  0.5455 -1.2933
 1904TIP3    H2 5677   1.029   2.169   2.590  2.2834  0.6898 -1.4754
 1905TIP3   OH2 5678   0.347   4.283   0.833 -0.0601  0.3341  0.4420
 1905TIP3    H1 5679   0.291   4.272   0.756  0.8123 -1.4917  0.0351
 1905TIP3    H2 5680   0.287   4.310   0.902 -1.0066  1.0530 -0.6278
 1906TIP3   OH2 5681   4.342   0.057   1.472 -0.2798 -0.5497 -0.1435
 1906TIP3    H1 5682   4.404   0.120   1.435  0.2118 -0.8560  0.1441
 1906TIP3    H2 5683   4.310   0.007   1.397 -0.1912 -0.3717 -0.2981
 1907TIP3   OH2 5684   5.730   0.974   1.795  0.1512 -0.1422  0.3418
 1907TIP3    H1 5685   5.759   0.966   1.704 -0.4724  0.3573  0.0867
 1907TIP3    H2 5686   5.743   0.887   1.832  1.5213 -0.0568  0.1156
 1908TIP3   OH2 5687   4.716   3.495   2.244  0.4697 -0.3361  0.5063
 1908TIP3    H1 5688   4.641   3.444   2.212  0.4229 -0.0924  0.2310
 1908TIP3    H2 5689   4.792   3.441   2.220  0.4552 -0.0208 -0.2830
 1909TIP3   OH2 5690   4.929   6.033   3.238  0.0098 -0.3832 -0.3285
 1909TIP3    H1 5691   4.968   6.060   3.321  0.6149 -0.5986 -0.5390
 1909TIP3    H2 5692   4.999   5.986   3.193 -1.0142 -2.3802  0.0577
 1910TIP3   OH2 5693   4.537   2.455   5.562 -0.0517 -0.0408 -0.2386
 1910TIP3    H1 5694   4.478   2.392   5.602  1.3673 -1.2765 -0.0038
 1910TIP3    H2 5695   4.604   2.470   5.628 -0.0124  1.2277 -0.5454
 1911TIP3   OH2 5696   7.067   0.876   2.679 -0.3350 -0.7332 -0.4304
 1911TIP3    H1 5697   6.992   0.844   2.728 -1.3453 -0.1343 -1.5485
 1911TIP3    H2 5698   7.038   0.877   2.588  0.2009  1.7123 -0.6452
 1912TIP3   OH2 5699   3.002   0.549   2.429  0.2987  0.8304  0.0895
 1912TIP3    H1 5700   3.080   0.594   2.461  1.2895 -0.3115 -0.6352
 1912TIP3    H2 5701   2.971   0.497   2.503  0.6213  0.7720  0.1857
 1913TIP3   OH2 5702   4.772   5.969   5.713 -0.2324  0.8793  0.4518
 1913TIP3    H1 5703   4.814   5.884   5.697 -2.0079 -0.1347  0.8856
 1913TIP3    H2 5704   4.749   5.967   5.806  1.2565  2.6077  0.9091
 1914TIP3   OH2 5705   0.970   5.342   2.194 -0.5220  0.2329  0.1424
 1914TIP3    H1 5706   1.053   5.381   2.166 -1.2025  0.8919 -1.0186
 1914TIP3    H2 5707   0.916   5.417   2.219 -1.5435  0.0010 -1.2781
 1915TIP3   OH2 5708   0.155   0.137   3.674  0.1819  0.3526  0.0176
 1915TIP3    H1 5709   0.186   0.048   3.664 -0.8254 -0.0949  0.6577
 1915TIP3    H2 5710   0.111   0.157   3.590  0.7743  0.4101 -0.2821
 1916TIP3   OH2 5711   0.954   2.997   3.321  0.7100 -0.6164  0.3194
 1916TIP3    H1 5712   0.936   2.926   3.383 -0.2162 -0.1610  0.5892
 1916TIP3    H2 5713   0.971   3.073   3.376  0.2958 -0.3030  0.0225
 1917TIP3   OH2 5714   1.112   3.046   1.335 -0.2311  0.0015 -0.1048
 1917TIP3    H1 5715   1.140   2.957   1.314 -0.6552 -0.1112 -0.1971
 1917TIP3    H2 5716   1.041   3.064   1.274 -0.9860 -0.0559  0.7379
 1918TIP3   OH2 5717   6.575   0.866   0.751  0.2690  0.4577  0.2374
 1918TIP3    H1 5718   6.485   0.837   0.738  0.8700 -1.5497  0.0580
 1918TIP3    H2 5719   6.623   0.827   0.678  1.4871  0.3280  1.0768
 1919TIP3   OH2 5720   1.358   3.159   2.866  0.0290  0.1510 -0.3420
 1919TIP3    H1 5721   1.268   3.136   2.889  0.5133 -0.4427  1.0648
 1919TIP3    H2 5722   1.411   3.120   2.935  1.4538 -0.2580 -1.6251
 1920TIP3   OH2 5723   1.509   5.323   3.528 -0.4314  0.1444  0.4376
 1920TIP3    H1 5724   1.553   5.377   3.462 -1.4648  1.8333  1.0607
 1920TIP3    H2 5725   1.512   5.234   3.492  1.7820  0.4879 -0.3891
 1921TIP3   OH2 5726   5.695   3.855   0.652  0.5669 -0.4041 -0.2406
 1921TIP3    H1 5727   5.683   3.928   0.713  2.0321 -0.2989 -0.0391
 1921TIP3    H2 5728   5.648   3.882   0.573  1.4650  0.9937 -0.3372
 1922TIP3   OH2 5729   4.083   5.994   4.739  0.1547  0.0727  0.2692
 1922TIP3    H1 5730   4.025   5.940   4.793  0.0559  1.0099  1.1274
 1922TIP3    H2 5731   4.165   5.945   4.736  0.0180 -0.2061  0.8968
 1923TIP3   OH2 5732   6.126   5.476   4.996 -0.0067  0.3309 -0.0643
 1923TIP3    H1 5733   6.187   5.549   5.007  1.5842 -0.8635 -0.5913
 1923TIP3    H2 5734   6.148   5.416   5.067 -0.5396 -0.1335 -0.2870
 1924TIP3   OH2 5735   0.743   0.969   4.567 -0.0577  0.3541 -0.1791
 1924TIP3    H1 5736   0.668   1.004   4.517 -0.6690  0.9635  1.1267
 1924TIP3    H2 5737   0.810   1.037   4.559  0.7341 -0.5739 -2.0904
 1925TIP3   OH2 5738   4.484   3.801   5.007 -0.3160 -0.3339  0.3585
 1925TIP3    H1 5739   4.516   3.760   4.928  1.7323 -4.1903  2.8900
 1925TIP3    H2 5740   4.393   3.773   5.014 -0.7956  0.7818 -0.9611
 1926TIP3   OH2 5741   6.051   1.772   5.733  0.3753  0.3056  0.2265
 1926TIP3    H1 5742   6.070   1.787   5.640  0.2010  0.4758  0.2184
 1926TIP3    H2 5743   6.105   1.696   5.756  2.2849  1.6821  0.5898
 1927TIP3   OH2 5744   4.634   2.633   0.463  0.0753 -0.0971  0.1686
 1927TIP3    H1 5745   4.574   2.560   0.448  0.3910  0.1455 -2.8620
 1927TIP3    H2 5746   4.580   2.711   0.453  0.6025  0.1002 -1.5735
 1928TIP3   OH2 5747   2.352   0.671   5.385  0.4406  0.0291  0.6253
 1928TIP3    H1 5748   2.412   0.641   5.454  0.5007 -1.2703  0.0279
 1928TIP3    H2 5749   2.272   0.620   5.399  0.8102 -1.0189 -0.8770
 1929TIP3   OH2 5750   2.710   2.526   3.801  0.5030  0.2799 -1.0762
 1929TIP3    H1 5751   2.678   2.597   3.856  1.0967 -0.9461  0.9773
 1929TIP3    H2 5752   2.782   2.563   3.751  2.0377  0.7255  1.3359
 1930TIP3   OH2 5753   4.600   1.163   5.598  0.3397 -0.7663 -0.4990
 1930TIP3    H1 5754   4.688   1.183   5.630  0.1473  0.7888 -0.8716
 1930TIP3    H2 5755   4.610   1.079   5.552  2.0389  0.2367 -2.1099
 1931TIP3   OH2 5756   1.158   3.801   0.364  0.0032  0.2809 -0.0532
 1931TIP3    H1 5757   1.185   3.892   0.358 -2.9829  1.3081  0.3447
 1931TIP3    H2 5758   1.184   3.774   0.452 -0.4961  1.2824  0.4152
 1932TIP3   OH2 5759   4.899   6.575   1.540 -0.0017  0.3178  0.7166
 1932TIP3    H1 5760   4.843   6.610   1.471  0.0131  1.6727  1.3561
 1932TIP3    H2 5761   4.982   6.622   1.529  0.6298 -0.8008  0.5230
 1933TIP3   OH2 5762   6.271   0.495   2.404  0.0533  0.5035 -0.1136
 1933TIP3    H1 5763   6.268   0.513   2.498 -2.0639 -1.3508  0.2446
 1933TIP3    H2 5764   6.183   0.464   2.382  1.0999 -1.2287 -2.2587
 1934TIP3   OH2 5765   0.354   2.645   2.429  0.1810  0.3028  0.4123
 1934TIP3    H1 5766   0.322   2.599   2.351 -0.2885  0.0575  0.7468
 1934TIP3    H2 5767   0.379   2.575   2.490  0.2738  0.4935  0.5960
 1935TIP3   OH2 5768   6.228   3.567   5.412  0.5913  0.1351  0.3684
 1935TIP3    H1 5769   6.186   3.493   5.368  1.8622 -0.2105 -0.3283
 1935TIP3    H2 5770   6.208   3.554   5.505 -0.7968 -0.0056  0.0713
 1936TIP3   OH2 5771   5.785   4.267   5.735  0.2255 -0.2146 -0.4249
 1936TIP3    H1 5772   5.702   4.225   5.713 -0.4544  0.9996 -0.2671
 1936TIP3    H2 5773   5.774   4.295   5.826  0.9966 -0.4721 -0.2488
 1937TIP3   OH2 5774   5.059   4.035   2.696  0.1817  0.5052  0.5232
 1937TIP3    H1 5775   4.969   4.011   2.717  0.2537  0.2535  0.5471
 1937TIP3    H2 5776   5.077   4.111   2.751 -0.0056  0.5381  0.5401
 1938TIP3   OH2 5777   3.676   4.538   2.732 -0.0961  0.2777  0.0356
 1938TIP3    H1 5778   3.689   4.528   2.638 -0.9863  0.3139 -0.0907
 1938TIP3    H2 5779   3.684   4.632   2.748 -2.3387  0.5948 -0.3893
 1939TIP3   OH2 5780   0.789   3.360   0.343 -0.0101 -0.0264 -0.0228
 1939TIP3    H1 5781   0.731   3.410   0.286 -0.1380  0.3750  0.4513
 1939TIP3    H2 5782   0.783   3.404   0.428  3.0495  1.7229 -0.5647
 1940TIP3   OH2 5783   6.469   1.661   0.129  0.4587 -0.7674 -0.9990
 1940TIP3    H1 5784   6.426   1.742   0.104  0.5642 -0.5940 -0.6249
 1940TIP3    H2 5785   6.551   1.661   0.080  1.3727  0.2997  0.4563
 1941TIP3   OH2 5786   1.018   6.646   3.628  0.5557 -0.5152 -0.1375
 1941TIP3    H1 5787   1.107   6.672   3.604  0.8732 -0.7986  0.6955
 1941TIP3    H2 5788   1.026   6.555   3.657 -0.3227 -1.1420 -1.7525
 1942TIP3   OH2 5789   2.150   4.914   3.400 -0.2577  0.2055  0.4592
 1942TIP3    H1 5790   2.116   4.871   3.321 -0.7899  2.0728 -0.3779
 1942TIP3    H2 5791   2.239   4.940   3.377 -0.6833  1.4654  0.1446
 1943TIP3   OH2 5792   3.468   0.552   2.358 -0.0891 -0.6930 -0.3706
 1943TIP3    H1 5793   3.547   0.588   2.397 -1.0208  0.8932  0.1586
 1943TIP3    H2 5794   3.417   0.518   2.432  0.2302 -2.0551 -0.7426
 1944TIP3   OH2 5795   0.122   6.258   1.811 -0.0622  0.4791  0.2671
 1944TIP3    H1 5796   0.065   6.217   1.746 -0.6205  0.7730  0.5611
 1944TIP3    H2 5797   0.103   6.352   1.804  0.0738  0.5375  0.6657
 1945TIP3   OH2 5798   4.757   0.275   4.455 -0.2713 -0.1577 -0.1105
 1945TIP3    H1 5799   4.698   0.203   4.479  0.0354 -0.2652  0.3322
 1945TIP3    H2 5800   4.759   0.332   4.532  2.9076 -1.9515  1.3405
 1946TIP3   OH2 5801   1.180   5.946   1.399  0.0652  0.0944  0.7292
 1946TIP3    H1 5802   1.213   6.031   1.371 -1.0334  0.3044  0.0254
 1946TIP3    H2 5803   1.180   5.893   1.319 -0.9883  0.0078  0.7771
 1947TIP3   OH2 5804   5.948   0.327   0.779 -0.1486 -0.2054  0.1208
 1947TIP3    H1 5805   5.872   0.274   0.753  1.6180 -2.3597 -0.9556
 1947TIP3    H2 5806   5.922   0.417   0.758 -2.3764 -0.8727 -0.2470
 1948TIP3   OH2 5807   4.769   5.972   5.416 -0.1323  0.2744  0.1170
 1948TIP3    H1 5808   4.723   6.016   5.488 -2.7237 -0.7160 -0.8241
 1948TIP3    H2 5809   4.798   5.889   5.454 -0.7900  0.0990  0.2520
 1949TIP3   OH2 5810   2.925   2.007   5.712  0.0512 -0.2902  0.6959
 1949TIP3    H1 5811   2.984   2.082   5.721 -0.1104 -0.1239  0.3921
 1949TIP3    H2 5812   2.982   1.931   5.717  0.2045 -0.1501  1.1183
 1950TIP3   OH2 5813   2.013   5.969   4.382  0.1123 -0.6719  0.0650
 1950TIP3    H1 5814   1.952   5.896   4.367 -0.5314  0.1127 -1.3149
 1950TIP3    H2 5815   1.979   6.013   4.460 -1.7185  0.3338 -1.2311
 1951TIP3   OH2 5816   5.743   4.980   0.284 -0.0138  0.2657  0.6303
 1951TIP3    H1 5817   5.675   4.914   0.295 -0.4581  0.9521  2.3272
 1951TIP3    H2 5818   5.825   4.930   0.285 -0.4395 -0.5152 -0.9562
 1952TIP3   OH2 5819   2.120   4.311   4.629 -0.0356  1.1342 -0.2951
 1952TIP3    H1 5820   2.051   4.265   4.677 -0.2475 -1.2146 -2.6318
 1952TIP3    H2 5821   2.095   4.404   4.636 -2.3452  0.5372  0.5621
 1953TIP3   OH2 5822   5.993   5.711   5.716  0.4120  0.0612 -0.5603
 1953TIP3    H1 5823   5.990   5.740   5.625 -0.3528 -0.0015 -0.5610
 1953TIP3    H2 5824   5.913   5.746   5.755 -0.4226 -1.7943 -0.4969
 1954TIP3   OH2 5825   1.418   5.175   1.215  0.3728 -0.0645 -0.3599
 1954TIP3    H1 5826   1.498   5.177   1.162  0.7604  3.6383  0.1266
 1954TIP3    H2 5827   1.448   5.157   1.304  0.4716 -0.3203 -0.4459
 1955TIP3   OH2 5828   3.935   0.777   1.316  0.5647 -0.5053  0.6818
 1955TIP3    H1 5829   3.946   0.794   1.410  0.6688 -1.2368  0.8068
 1955TIP3    H2 5830   4.024   0.773   1.282  0.5552 -1.1049  0.7157
 1956TIP3   OH2 5831   4.808   6.631   4.532  0.0270  0.1186  0.1039
 1956TIP3    H1 5832   4.749   6.655   4.603  1.6043  2.2398  0.8286
 1956TIP3    H2 5833   4.809   6.536   4.531  0.4607 -0.0068  3.4037
 1957TIP3   OH2 5834   2.542   5.458   3.981 -0.1201 -0.4274 -0.3350
 1957TIP3    H1 5835   2.550   5.553   3.985 -0.3194 -0.4352  0.7504
 1957TIP3    H2 5836   2.462   5.443   3.930 -2.2012  0.1527  2.4637
 1958TIP3   OH2 5837   6.982   0.476   2.524 -0.3049 -0.5242 -0.4021
 1958TIP3    H1 5838   7.031   0.550   2.558 -1.4191  0.7797 -1.5260
 1958TIP3    H2 5839   6.923   0.450   2.595 -1.4747  1.1299 -0.7231
 1959TIP3   OH2 5840   3.370   6.436   1.523 -0.0474  0.1180 -0.2340
 1959TIP3    H1 5841   3.420   6.418   1.603 -2.1448 -1.1129  0.8974
 1959TIP3    H2 5842   3.431   6.419   1.452  0.8182 -2.7504  1.0489
 1960TIP3   OH2 5843   3.084   2.125   2.169  0.1760  0.2509  0.1243
 1960TIP3    H1 5844   3.028   2.073   2.112  0.1964  0.5381 -0.1577
 1960TIP3    H2 5845   3.100   2.206   2.121 -0.0397  0.6174  0.6525
 1961TIP3   OH2 5846   2.789   1.228   1.695  0.0941  0.1012 -0.5032
 1961TIP3    H1 5847   2.742   1.151   1.663  0.1767 -0.5245  0.7900
 1961TIP3    H2 5848   2.722   1.281   1.738  0.2400  0.1459 -0.3277
 1962TIP3   OH2 5849   5.755   3.552   2.265 -0.2224  0.0918 -0.3902
 1962TIP3    H1 5850   5.805   3.476   2.296  1.8897  1.1718 -0.9632
 1962TIP3    H2 5851   5.664   3.525   2.272  0.4322 -3.6134 -3.2766
 1963TIP3   OH2 5852   0.116   0.954   5.007 -0.0387 -0.3863 -0.4178
 1963TIP3    H1 5853   0.141   1.004   5.084 -1.2315  0.8709 -0.7979
 1963TIP3    H2 5854   0.191   0.961   4.948 -0.5575  1.8998 -0.8839
 1964TIP3   OH2 5855   4.608   1.801   0.441 -0.1138  0.1292 -0.0049
 1964TIP3    H1 5856   4.514   1.804   0.423 -0.0614  2.1318 -0.1187
 1964TIP3    H2 5857   4.623   1.872   0.503  1.3638 -0.0514 -0.1194
 1965TIP3   OH2 5858   0.392   0.812   1.499  0.2741  0.2006 -0.1495
 1965TIP3    H1 5859   0.331   0.749   1.459 -1.7220 -0.2450  3.2062
 1965TIP3    H2 5860   0.464   0.758   1.531  0.9306  0.3032 -1.4321
 1966TIP3   OH2 5861   3.034   3.705   5.007 -0.6329  0.6016 -0.1449
 1966TIP3    H1 5862   3.030   3.752   4.924 -0.6731 -0.5206 -0.8120
 1966TIP3    H2 5863   3.028   3.612   4.982 -1.1841  0.2614  1.1547
 1967TIP3   OH2 5864   0.842   4.947   4.930 -0.2055  0.1579 -0.5804
 1967TIP3    H1 5865   0.747   4.955   4.920 -0.0641  1.2880 -1.1859
 1967TIP3    H2 5866   0.878   5.019   4.878  0.8805  1.7830  2.2079
 1968TIP3   OH2 5867   6.936   6.548   1.215  0.1056 -0.2529  0.5847
 1968TIP3    H1 5868   6.851   6.584   1.240 -0.1656 -0.5662  0.1200
 1968TIP3    H2 5869   6.926   6.524   1.123  1.3263  1.6486 -0.1204
 1969TIP3   OH2 5870   4.744   3.691   2.943 -0.0162  0.5828  0.3032
 1969TIP3    H1 5871   4.773   3.617   2.889 -1.2242 -0.2963  0.8189
 1969TIP3    H2 5872   4.811   3.698   3.011 -0.2877 -0.5695  0.7117
 1970TIP3   OH2 5873   4.877   1.907   1.515  0.2062 -0.3388  0.0648
 1970TIP3    H1 5874   4.811   1.951   1.569  0.2808 -0.3388  0.1561
 1970TIP3    H2 5875   4.865   1.814   1.535  0.3720 -0.3238  0.2393
 1971TIP3   OH2 5876   6.242   5.807   5.763 -0.4686  0.1199 -0.1560
 1971TIP3    H1 5877   6.158   5.767   5.743 -1.2433  0.2543  2.4811
 1971TIP3    H2 5878   6.273   5.842   5.679 -2.3718 -1.0824 -1.4377
 1972TIP3   OH2 5879   3.667   0.627   1.875 -0.3994  0.4919 -0.1679
 1972TIP3    H1 5880   3.704   0.638   1.963  2.2328  1.2949 -1.2554
 1972TIP3    H2 5881   3.690   0.538   1.850  2.3855  1.4130 -1.3804
 1973TIP3   OH2 5882   7.036   6.037   0.721 -0.0845  0.1058  0.6172
 1973TIP3    H1 5883   7.008   6.021   0.811 -0.5136  1.0144  0.6508
 1973TIP3    H2 5884   7.017   6.129   0.706  2.2137  0.6175  0.4017
 1974TIP3   OH2 5885   5.401   1.398   2.434 -0.0451 -0.1382 -0.0358
 1974TIP3    H1 5886   5.459   1.353   2.373  0.5984  1.1449 -0.3949
 1974TIP3    H2 5887   5.437   1.379   2.520 -0.4513 -1.2272 -0.0779
 1975TIP3   OH2 5888   4.261   1.544   1.667 -0.2359  0.1328  0.5901
 1975TIP3    H1 5889   4.324   1.601   1.712 -1.6139  0.2413  2.4972
 1975TIP3    H2 5890   4.283   1.553   1.574  2.2872  0.4733  1.1418
 1976TIP3   OH2 5891   3.382   5.672   3.207  0.1416  0.1774  0.0974
 1976TIP3    H1 5892   3.416   5.739   3.148  2.6460 -2.2790 -1.4619
 1976TIP3    H2 5893   3.368   5.596   3.151  0.4025 -1.5801  2.2926
 1977TIP3   OH2 5894   6.039   4.105   2.312  0.0977 -0.4867 -0.0223
 1977TIP3    H1 5895   6.106   4.156   2.267  1.9733 -2.7248  0.0635
 1977TIP3    H2 5896   6.054   4.124   2.405  1.2168 -1.5617  0.0536
 1978TIP3   OH2 5897   1.220   4.870   1.151  0.1616 -0.2193 -0.0964
 1978TIP3    H1 5898   1.215   4.882   1.246  1.3309  0.9437 -0.1592
 1978TIP3    H2 5899   1.149   4.923   1.116  1.9712  2.4291 -0.0419
 1979TIP3   OH2 5900   2.659   2.544   1.640 -0.1316  0.0785 -0.4201
 1979TIP3    H1 5901   2.717   2.576   1.710  1.5118  1.5363 -2.3441
 1979TIP3    H2 5902   2.652   2.450   1.657 -0.5293  0.4810  2.1828
 1980TIP3   OH2 5903   3.845   2.475   1.646  0.2441 -0.6513 -0.4143
 1980TIP3    H1 5904   3.853   2.485   1.551 -0.2266 -1.3944 -0.5430
 1980TIP3    H2 5905   3.920   2.523   1.682  1.3935 -1.7562 -1.2488
 1981TIP3   OH2 5906   0.597   1.382   0.552 -0.3572  0.0863 -0.3893
 1981TIP3    H1 5907   0.646   1.305   0.581  0.4107  0.4839 -0.6020
 1981TIP3    H2 5908   0.661   1.453   0.553 -0.9321  0.6228 -0.6806
 1982TIP3   OH2 5909   6.408   6.635   0.167  0.3959  0.1116 -0.1459
 1982TIP3    H1 5910   6.333   6.625   0.109  0.4181 -2.6972  0.1836
 1982TIP3    H2 5911   6.420   6.548   0.206  2.6858  0.9550  1.2109
 1983TIP3   OH2 5912   6.253   1.915   0.377  0.3263 -0.2144  0.0590
 1983TIP3    H1 5913   6.162   1.893   0.359  0.4230 -0.0830 -0.6422
 1983TIP3    H2 5914   6.254   2.010   0.381  0.4122 -0.2199  0.1567
 1984TIP3   OH2 5915   3.487   1.445   0.342  0.3262 -0.3276  0.4479
 1984TIP3    H1 5916   3.392   1.438   0.354  0.2420  0.3506  0.1919
 1984TIP3    H2 5917   3.502   1.414   0.253  0.3044 -0.1298  0.3746
 1985TIP3   OH2 5918   6.354  -0.006   0.577  0.3005 -0.3117 -0.0337
 1985TIP3    H1 5919   6.264   0.017   0.597  0.9247  0.3931  2.4016
 1985TIP3    H2 5920   6.398   0.078   0.565  1.1225 -0.4826  1.4917
 1986TIP3   OH2 5921   1.546   0.774   5.772 -0.0449  0.2485  0.0447
 1986TIP3    H1 5922   1.584   0.695   5.733 -1.8291 -1.1628  1.0231
 1986TIP3    H2 5923   1.615   0.809   5.828  0.5691 -0.9900  0.0992
 1987TIP3   OH2 5924   4.798   5.175   0.469  0.0127  0.0015  0.1560
 1987TIP3    H1 5925   4.879   5.210   0.433 -0.0578  0.2333  0.2207
 1987TIP3    H2 5926   4.748   5.146   0.393 -0.0618  0.3290  0.0802
 1988TIP3   OH2 5927   2.722   0.047   5.556 -0.5283  0.0466  0.1393
 1988TIP3    H1 5928   2.771   0.023   5.634 -2.5331  0.4173  1.5915
 1988TIP3    H2 5929   2.645   0.094   5.589 -1.2488  0.5750 -2.0838
 1989TIP3   OH2 5930   1.761   0.070   3.241 -0.0239 -0.1620 -0.3943
 1989TIP3    H1 5931   1.686   0.060   3.183 -0.2131  0.4649 -0.2621
 1989TIP3    H2 5932   1.738   0.022   3.320  0.1351 -0.8158 -0.7332
 1990TIP3   OH2 5933   2.523   5.593   3.020 -0.6020 -0.1591 -0.4392
 1990TIP3    H1 5934   2.617   5.584   3.034 -0.6649 -0.8107 -0.4316
 1990TIP3    H2 5935   2.513   5.679   2.979 -0.1403  0.5709  0.8939
 1991TIP3   OH2 5936   3.015   1.243   3.990 -0.4840  0.5672  0.5962
 1991TIP3    H1 5937   3.080   1.203   3.931 -0.3943 -2.3222  2.4669
 1991TIP3    H2 5938   3.067   1.287   4.057 -0.5911  2.5873 -0.5509
 1992TIP3   OH2 5939   4.886   5.947   2.850  0.2140  0.6581  0.6936
 1992TIP3    H1 5940   4.918   5.988   2.930 -0.2337  0.2913  1.0735
 1992TIP3    H2 5941   4.799   5.914   2.874 -0.0097  0.7303 -0.0059
 1993TIP3   OH2 5942   6.237   4.379   3.036  0.4896 -0.1842  0.1323
 1993TIP3    H1 5943   6.195   4.415   2.958  1.0979 -0.3676 -0.2889
 1993TIP3    H2 5944   6.295   4.311   3.002  0.6716 -0.3456  0.7617
 1994TIP3   OH2 5945   0.466   4.689   0.617  0.1735  0.8658 -0.2905
 1994TIP3    H1 5946   0.543   4.723   0.573  0.5768  0.1910 -0.1280
 1994TIP3    H2 5947   0.392   4.716   0.563  0.7012 -0.5990 -1.8133
 1995TIP3   OH2 5948   5.804   0.757   3.996  0.5500  0.6207 -0.5481
 1995TIP3    H1 5949   5.899   0.764   3.993  0.6435  0.7193  1.1950
 1995TIP3    H2 5950   5.775   0.835   4.043 -0.1282 -0.6458  1.2829
 1996TIP3   OH2 5951   5.100   6.692   4.578 -0.5736 -0.0662  0.3966
 1996TIP3    H1 5952   5.009   6.684   4.549 -0.4947  0.5859 -0.0354
 1996TIP3    H2 5953   5.148   6.724   4.502 -0.0225 -0.1766  0.6895
 1997TIP3   OH2 5954   6.250   6.184   4.252  0.8204 -0.1889 -0.1973
 1997TIP3    H1 5955   6.273   6.274   4.276 -1.0324  0.3984 -0.5055
 1997TIP3    H2 5956   6.327   6.133   4.279  2.1681  1.5320 -0.5542
 1998TIP3   OH2 5957   0.551   2.897   5.430  0.1340  0.1531  0.1219
 1998TIP3    H1 5958   0.573   2.950   5.353  0.7457  0.2236  0.3362
 1998TIP3    H2 5959   0.499   2.955   5.485 -0.1503  0.1636 -0.1562
 1999TIP3   OH2 5960   3.545   3.745   3.199 -0.5775 -0.2737 -0.3447
 1999TIP3    H1 5961   3.528   3.781   3.286 -1.6744 -1.6986  0.0635
 1999TIP3    H2 5962   3.631   3.705   3.206 -0.5626 -0.1867  0.0164
 2000TIP3   OH2 5963   1.466   1.111   4.193  0.3173  0.1782 -0.1677
 2000TIP3    H1 5964   1.503   1.134   4.108 -1.5503 -0.0286 -1.1038
 2000TIP3    H2 5965   1.405   1.183   4.212  0.3970  0.0030  0.7938
 2001TIP3   OH2 5966   6.252   5.741   2.218 -0.1291  0.1416 -0.1450
 2001TIP3    H1 5967   6.255   5.645   2.215 -1.1926  0.1098 -0.6611
 2001TIP3    H2 5968   6.165   5.763   2.185 -0.3718  1.2416  1.1536
 2002TIP3   OH2 5969   3.005   1.748   0.872 -0.0314  0.1538  0.9508
 2002TIP3    H1 5970   3.042   1.828   0.834  2.3784 -1.8506 -1.2154
 2002TIP3    H2 5971   2.913   1.750   0.846 -0.6848  3.2124  2.8758
 2003TIP3   OH2 5972   2.293   2.743   4.664  0.2515 -0.1771  0.2650
 2003TIP3    H1 5973   2.343   2.755   4.583  0.2724  0.3107  0.3473
 2003TIP3    H2 5974   2.348   2.782   4.732  0.0257 -0.1713  0.4446
 2004TIP3   OH2 5975   2.081   2.026   2.415  0.3874  0.9383  0.1535
 2004TIP3    H1 5976   2.064   2.104   2.363 -1.1034  0.7337  0.2768
 2004TIP3    H2 5977   2.022   2.034   2.491 -0.5276 -0.7350 -0.3235
 2005TIP3   OH2 5978   2.881   2.057   2.476 -0.1441 -0.0561 -0.2930
 2005TIP3    H1 5979   2.817   2.102   2.422 -0.6857  0.2921  0.6226
 2005TIP3    H2 5980   2.831   2.022   2.550  0.8439  1.1578  1.0254
 2006TIP3   OH2 5981   0.602   0.799   0.259 -0.7943  0.2225  0.0443
 2006TIP3    H1 5982   0.676   0.803   0.319 -0.9675  0.7834  0.2255
 2006TIP3    H2 5983   0.626   0.857   0.187 -0.8663  0.0605 -0.1102
 2007TIP3   OH2 5984   4.645   5.737   1.019 -0.3143 -0.2712 -0.5889
 2007TIP3    H1 5985   4.606   5.755   1.105 -0.2014  0.1874 -0.6322
 2007TIP3    H2 5986   4.576   5.693   0.970 -0.5095 -0.1839 -0.3937
 2008TIP3   OH2 5987   7.074   1.477   4.503 -0.0516  0.7766  0.0906
 2008TIP3    H1 5988   7.166   1.461   4.521 -0.1107  0.0951 -0.1805
 2008TIP3    H2 5989   7.069   1.569   4.480  0.4746  0.9486  0.6505
 2009TIP3   OH2 5990   3.471   0.573   4.447  0.8090 -0.2013 -0.5940
 2009TIP3    H1 5991   3.395   0.548   4.395 -0.0622 -2.2526  1.4485
 2009TIP3    H2 5992   3.493   0.661   4.417 -0.4077 -0.7450 -3.4190
 2010TIP3   OH2 5993   2.530   2.130   3.334 -0.3856 -0.4193 -0.1422
 2010TIP3    H1 5994   2.435   2.121   3.332 -0.4867  0.5516 -0.1387
 2010TIP3    H2 5995   2.546   2.221   3.359  0.5508 -0.6772  0.2743
 2011TIP3   OH2 5996   0.697   1.346   5.401 -0.5885  0.0334  0.0831
 2011TIP3    H1 5997   0.674   1.256   5.424 -0.8406  0.4050  1.3529
 2011TIP3    H2 5998   0.792   1.350   5.413 -0.4525 -0.2795 -0.8034
 2012TIP3   OH2 5999   6.119   0.555   1.960 -0.2851  0.8477  0.0460
 2012TIP3    H1 6000   6.177   0.481   1.981 -0.3550  1.1437  1.3576
 2012TIP3    H2 6001   6.031   0.523   1.980 -0.2056  1.6677  1.7988
 2013TIP3   OH2 6002   0.551   2.499   4.200 -0.5334 -0.2543  0.0300
 2013TIP3    H1 6003   0.621   2.450   4.156 -0.3617 -0.6984  0.7703
 2013TIP3    H2 6004   0.516   2.557   4.132  0.2551 -0.3424 -0.4739
 2014TIP3   OH2 6005   3.961   0.388   1.212  0.1330 -0.4391 -0.1116
 2014TIP3    H1 6006   4.020   0.415   1.283  0.4841  0.0437 -0.5826
 2014TIP3    H2 6007   3.876   0.377   1.255  0.3802 -0.3268  0.4179
 2015TIP3   OH2 6008   6.888   5.766   4.803 -0.5537 -0.4806 -0.5091
 2015TIP3    H1 6009   6.853   5.714   4.874 -1.1556  1.2730  0.5483
 2015TIP3    H2 6010   6.927   5.843   4.846  0.9075 -0.3519 -1.9429
 2016TIP3   OH2 6011   6.157   5.480   3.726 -0.1355  0.0624  0.2184
 2016TIP3    H1 6012   6.223   5.533   3.681 -1.9353  2.9467  0.7713
 2016TIP3    H2 6013   6.180   5.487   3.818  1.2476 -2.6142  0.1828
 2017TIP3   OH2 6014   4.013   3.807   1.607 -0.4445  0.1303  0.5634
 2017TIP3    H1 6015   4.101   3.772   1.619 -0.5168 -0.4459 -0.4450
 2017TIP3    H2 6016   4.003   3.871   1.677  0.7883  0.2352  0.6690
 2018TIP3   OH2 6017   4.521   5.919   4.213  0.0327  0.6071 -0.3648
 2018TIP3    H1 6018   4.464   5.989   4.244  0.6788  0.9357  0.0966
 2018TIP3    H2 6019   4.484   5.839   4.251  0.1264  0.8671  0.2784
 2019TIP3   OH2 6020   4.732   2.496   4.702  0.2942  0.0638  0.2926
 2019TIP3    H1 6021   4.691   2.491   4.616 -1.7853  2.0857  1.0292
 2019TIP3    H2 6022   4.670   2.452   4.761  1.6761 -1.2804  0.8087
 2020TIP3   OH2 6023   4.962   2.472   2.241  0.1719  0.6911 -0.3983
 2020TIP3    H1 6024   4.901   2.514   2.180  0.5177  0.3822 -0.9641
 2020TIP3    H2 6025   4.974   2.537   2.310 -2.6391 -0.1230  1.0151
 2021TIP3   OH2 6026   1.447   3.314   4.491  0.5263  0.2477  0.0350
 2021TIP3    H1 6027   1.542   3.323   4.504  0.2942  0.3662  2.0364
 2021TIP3    H2 6028   1.436   3.225   4.458  1.2902 -0.1090  0.6973
 2022TIP3   OH2 6029   5.622   4.570   2.736  0.2047  0.2205 -0.1166
 2022TIP3    H1 6030   5.653   4.484   2.765 -0.3538  0.8341  2.4948
 2022TIP3    H2 6031   5.528   4.558   2.724  0.4889 -0.1767 -2.5210
 2023TIP3   OH2 6032   5.235   1.048   3.241  0.2360 -0.2942  0.5967
 2023TIP3    H1 6033   5.267   1.137   3.255 -0.1036  0.1673 -1.2213
 2023TIP3    H2 6034   5.314   0.997   3.219  0.3058 -0.1964  0.6202
 2024TIP3   OH2 6035   2.012   0.229   1.635 -0.1502  0.2319 -0.6808
 2024TIP3    H1 6036   2.055   0.306   1.672 -1.2550  0.5491 -0.0002
 2024TIP3    H2 6037   2.027   0.160   1.698 -1.3250  0.5634  0.0066
 2025TIP3   OH2 6038   2.503   5.127   5.732  0.3176 -1.1756  0.3383
 2025TIP3    H1 6039   2.445   5.203   5.736  0.2335 -1.0230 -2.3458
 2025TIP3    H2 6040   2.568   5.150   5.667  2.6222 -1.9367  2.2243
 2026TIP3   OH2 6041   4.009   4.030   3.654  0.1755  0.1962  0.1914
 2026TIP3    H1 6042   3.950   4.101   3.627  0.9409  0.7140 -0.1477
 2026TIP3    H2 6043   3.953   3.972   3.706 -0.9544 -0.0022 -1.1868
 2027TIP3   OH2 6044   6.356   1.134   0.462 -0.3752  0.4907 -0.0822
 2027TIP3    H1 6045   6.282   1.183   0.496 -0.4260  1.3783 -1.4138
 2027TIP3    H2 6046   6.420   1.201   0.438  0.0506 -0.1578 -0.7942
 2028TIP3   OH2 6047   3.742   2.979   2.426  0.3256  0.0766  0.7012
 2028TIP3    H1 6048   3.742   3.071   2.401 -1.3679  0.4777  1.9766
 2028TIP3    H2 6049   3.708   2.978   2.515 -1.6811 -1.9158  0.0290
 2029TIP3   OH2 6050   2.730   5.086   1.996 -0.9846 -0.1268  0.1105
 2029TIP3    H1 6051   2.745   5.120   2.084 -1.3216 -0.6502  0.3727
 2029TIP3    H2 6052   2.779   5.145   1.939 -0.4222 -0.0299  0.6854
 2030TIP3   OH2 6053   0.117   4.618   4.328 -0.2075  0.1582  0.1732
 2030TIP3    H1 6054   0.208   4.626   4.300  0.9173 -0.7440  3.1633
 2030TIP3    H2 6055   0.084   4.707   4.328  1.6894  0.9410  1.8427
 2031TIP3   OH2 6056   6.049   0.322   4.700  0.5914  0.4137 -0.1010
 2031TIP3    H1 6057   6.076   0.236   4.733  1.0899  0.7376  0.3552
 2031TIP3    H2 6058   6.125   0.355   4.653  0.5077  0.7376 -0.0109
 2032TIP3   OH2 6059   2.464   6.664   3.770 -0.5869  0.0971 -0.8899
 2032TIP3    H1 6060   2.510   6.731   3.821 -2.2405  0.3686  0.3326
 2032TIP3    H2 6061   2.371   6.679   3.789 -1.1502 -0.9294 -2.6370
 2033TIP3   OH2 6062   0.097   4.623   3.396 -0.2441  0.3425  0.1213
 2033TIP3    H1 6063   0.101   4.539   3.443  0.6340  0.2317 -0.1370
 2033TIP3    H2 6064   0.044   4.679   3.453  1.3088  0.4120  1.6023
 2034TIP3   OH2 6065   2.825   2.263   5.863 -0.4257 -0.3737  0.1945
 2034TIP3    H1 6066   2.747   2.234   5.911 -0.7021 -0.4615 -0.2985
 2034TIP3    H2 6067   2.858   2.184   5.820 -0.8621 -0.0921 -0.7033
 2035TIP3   OH2 6068   6.059   4.431   2.174  0.2198 -0.4730 -0.1125
 2035TIP3    H1 6069   6.067   4.434   2.269 -0.5521  0.1180 -0.0544
 2035TIP3    H2 6070   6.148   4.415   2.142  1.3294  3.3400  0.5415
 2036TIP3   OH2 6071   5.008   3.061   2.585 -0.2742 -0.0861 -0.0519
 2036TIP3    H1 6072   4.998   3.152   2.557  1.7158  0.4467  0.7737
 2036TIP3    H2 6073   5.099   3.039   2.563  0.3578 -0.7213  2.7979
 2037TIP3   OH2 6074   3.660   2.855   4.529  0.1211  0.7723 -0.2786
 2037TIP3    H1 6075   3.586   2.799   4.552 -0.0524  1.1278  0.0407
 2037TIP3    H2 6076   3.620   2.935   4.494  0.3713  0.4873 -1.2581
 2038TIP3   OH2 6077   1.818   6.563   3.220 -0.2811 -0.7574 -0.3127
 2038TIP3    H1 6078   1.723   6.568   3.214 -0.2394 -1.1358 -1.8559
 2038TIP3    H2 6079   1.849   6.645   3.182  0.0120 -0.8070 -0.1810
 2039TIP3   OH2 6080   4.736   6.239   3.175 -0.1772 -0.5027 -0.1556
 2039TIP3    H1 6081   4.785   6.157   3.176  1.0251  0.1131 -2.1210
 2039TIP3    H2 6082   4.803   6.307   3.182 -0.8628  0.3382 -1.3567
 2040TIP3   OH2 6083   4.440   1.782   2.016 -0.0165  0.2425 -0.9758
 2040TIP3    H1 6084   4.482   1.868   2.003  0.1379  0.1981 -0.7632
 2040TIP3    H2 6085   4.449   1.739   1.931  0.8502  0.0202 -0.7801
 2041TIP3   OH2 6086   3.588   2.296   1.298  0.0138  0.5012 -0.4981
 2041TIP3    H1 6087   3.681   2.296   1.278 -0.0200 -0.2284 -0.6708
 2041TIP3    H2 6088   3.571   2.384   1.331  0.5912  0.9018 -1.2374
 2042TIP3   OH2 6089   0.474   1.634   0.057 -0.0510  0.0742 -0.1900
 2042TIP3    H1 6090   0.551   1.688   0.040 -0.3146  0.0046 -1.6860
 2042TIP3    H2 6091   0.427   1.682   0.126 -0.0448  1.5334 -1.1504
 2043TIP3   OH2 6092   2.968   6.563   5.845 -0.1327 -0.2445  0.1129
 2043TIP3    H1 6093   2.880   6.586   5.815 -0.8875 -2.1122  0.7941
 2043TIP3    H2 6094   3.026   6.590   5.773 -1.2317  1.0193 -0.3342
 2044TIP3   OH2 6095   1.122   1.767   3.702 -0.1273 -0.3233 -0.0625
 2044TIP3    H1 6096   1.208   1.797   3.729  0.2687 -1.1379 -0.3707
 2044TIP3    H2 6097   1.062   1.800   3.769  0.2623  1.1853 -0.4404
 2045TIP3   OH2 6098   1.603   4.332   0.350 -0.4606 -0.5151  0.0381
 2045TIP3    H1 6099   1.513   4.338   0.382 -0.5540 -1.1371 -0.0919
 2045TIP3    H2 6100   1.638   4.252   0.389 -0.5552 -1.2599 -1.3303
 2046TIP3   OH2 6101   4.449   1.611   2.213 -0.1347  0.0725  0.0148
 2046TIP3    H1 6102   4.442   1.670   2.138  1.1826 -0.9534 -0.9643
 2046TIP3    H2 6103   4.532   1.565   2.200 -0.4448 -0.9906  1.4950
 2047TIP3   OH2 6104   5.164   2.568   1.530 -0.2156 -0.1011  0.2208
 2047TIP3    H1 6105   5.197   2.503   1.592  0.9602  0.2329 -0.0205
 2047TIP3    H2 6106   5.085   2.603   1.571 -0.7173 -1.4754  0.4721
 2048TIP3   OH2 6107   1.533   1.730   4.244 -0.0317 -0.1053  0.3892
 2048TIP3    H1 6108   1.576   1.715   4.329 -2.0095  0.0010  1.4579
 2048TIP3    H2 6109   1.574   1.666   4.186  2.0250  0.4319  1.1596
 2049TIP3   OH2 6110   6.839   2.893   4.346 -0.3962  0.3715  0.1272
 2049TIP3    H1 6111   6.891   2.974   4.350 -1.6549  1.1568  2.2991
 2049TIP3    H2 6112   6.770   2.913   4.283  0.8401 -0.0482 -1.4258
 2050TIP3   OH2 6113   3.569   4.324   5.337  0.0983 -0.1912 -0.1914
 2050TIP3    H1 6114   3.531   4.391   5.394  1.5183  1.0424 -0.6312
 2050TIP3    H2 6115   3.508   4.316   5.265 -0.5856 -0.1210  0.3676
 2051TIP3   OH2 6116   3.084   3.684   1.980 -0.0068  0.0838  0.1219
 2051TIP3    H1 6117   3.151   3.616   1.981  0.9299  0.9600 -0.7034
 2051TIP3    H2 6118   3.003   3.638   2.003  0.8957 -0.9525  1.4090
 2052TIP3   OH2 6119   3.018   0.640   3.050 -0.1384 -0.4405  0.0956
 2052TIP3    H1 6120   3.078   0.668   2.980 -1.5275  1.5761 -0.3673
 2052TIP3    H2 6121   3.076   0.607   3.118  1.7044  2.6270  0.2393
 2053TIP3   OH2 6122   0.225   5.474   3.804 -0.4636  0.3387 -0.5849
 2053TIP3    H1 6123   0.185   5.419   3.871  0.0828 -0.1551 -0.6609
 2053TIP3    H2 6124   0.319   5.463   3.817 -0.3220 -1.2411 -2.6309
 2054TIP3   OH2 6125   2.530   6.802   5.772  0.6114  0.4413  0.2726
 2054TIP3    H1 6126   2.547   6.738   5.703 -0.5972  0.0986  0.2755
 2054TIP3    H2 6127   2.480   6.871   5.729 -0.2476  0.1703  0.8169
 2055TIP3   OH2 6128   4.497   3.495   4.740  0.2682  0.0302  0.4152
 2055TIP3    H1 6129   4.416   3.446   4.758  0.0314  0.6631  1.1256
 2055TIP3    H2 6130   4.552   3.478   4.816  0.7000 -0.1738  0.0595
 2056TIP3   OH2 6131   6.594   2.359   1.156  0.1733 -0.2572 -0.7895
 2056TIP3    H1 6132   6.659   2.413   1.110 -0.2518  0.4855 -0.5234
 2056TIP3    H2 6133   6.641   2.326   1.232  0.3996 -0.1641 -0.8869
 2057TIP3   OH2 6134   1.517   5.871   0.479 -0.2401 -0.3320 -0.5333
 2057TIP3    H1 6135   1.513   5.959   0.440 -0.9793 -0.4453 -0.7367
 2057TIP3    H2 6136   1.544   5.814   0.407  1.1887 -0.1469 -0.1661
 2058TIP3   OH2 6137   2.506   5.169   3.377 -0.2183 -0.0588 -0.1225
 2058TIP3    H1 6138   2.504   5.078   3.346  0.2089 -0.4965  1.0698
 2058TIP3    H2 6139   2.483   5.221   3.300 -0.5026 -1.1765 -0.8204
 2059TIP3   OH2 6140   1.024   5.490   1.300 -0.6086 -0.4366 -0.4737
 2059TIP3    H1 6141   1.085   5.536   1.358 -1.5665  1.0084 -0.5804
 2059TIP3    H2 6142   1.028   5.539   1.217 -2.7000  0.3714 -0.1473
 2060TIP3   OH2 6143   3.958   0.291   5.506  0.4814 -0.6533  0.5276
 2060TIP3    H1 6144   3.929   0.381   5.490  1.3955 -0.5896 -1.0087
 2060TIP3    H2 6145   4.017   0.298   5.581  3.5852  0.7429 -1.8462
 2061TIP3   OH2 6146   3.608   0.026   0.866  0.4279 -0.4422 -0.0414
 2061TIP3    H1 6147   3.530   0.049   0.814 -0.5602  1.3312  2.0411
 2061TIP3    H2 6148   3.664   0.104   0.860 -0.1205  0.1898  2.1639
 2062TIP3   OH2 6149   4.253   3.739   5.296 -0.1264 -0.4439 -0.2649
 2062TIP3    H1 6150   4.221   3.749   5.386 -1.0711 -0.5590 -0.5695
 2062TIP3    H2 6151   4.337   3.694   5.304  0.0368 -0.0015  0.5867
 2063TIP3   OH2 6152   3.391   6.450   4.245  0.1019  0.3561 -0.0480
 2063TIP3    H1 6153   3.316   6.407   4.286 -0.2150  3.0345  2.5791
 2063TIP3    H2 6154   3.358   6.484   4.162 -0.8598 -0.6119 -0.0729
 2064TIP3   OH2 6155   5.497   0.421   0.989  0.2112  0.5265  0.0394
 2064TIP3    H1 6156   5.459   0.509   0.978 -0.6792  0.1328 -0.1229
 2064TIP3    H2 6157   5.433   0.362   0.950  0.6751 -0.2294  0.3943
 2065TIP3   OH2 6158   0.082   3.142   3.026 -0.2858  0.8719 -0.4297
 2065TIP3    H1 6159   0.099   3.065   3.081 -1.8649  0.3905 -0.5443
 2065TIP3    H2 6160  -0.010   3.164   3.044 -0.6774  1.0752 -2.4235
 2066TIP3   OH2 6161   5.549   2.715   2.847 -0.4886  0.4010  0.5265
 2066TIP3    H1 6162   5.524   2.777   2.779  1.3526  0.5206 -0.0978
 2066TIP3    H2 6163   5.607   2.764   2.905 -0.3132 -0.2768  0.9431
 2067TIP3   OH2 6164   4.646   2.845   1.168  0.0558 -0.3155  0.4857
 2067TIP3    H1 6165   4.561   2.805   1.146  0.2120 -0.2031 -0.3564
 2067TIP3    H2 6166   4.686   2.783   1.229 -0.4769 -0.5496  0.6086
 2068TIP3   OH2 6167   4.220   4.218   1.972 -0.6264  0.6123  0.1494
 2068TIP3    H1 6168   4.128   4.198   1.989 -0.3375 -0.7133  0.2676
 2068TIP3    H2 6169   4.237   4.296   2.024 -1.7127  0.9669  0.0128
 2069TIP3   OH2 6170   6.417   5.950   3.564 -0.1783 -0.3391  0.3157
 2069TIP3    H1 6171   6.405   6.044   3.579 -0.3680 -0.4441  0.8192
 2069TIP3    H2 6172   6.358   5.907   3.626  1.1030 -0.8171  1.2569
 2070TIP3   OH2 6173   3.702   4.703   1.441  0.2312 -0.1365 -0.1376
 2070TIP3    H1 6174   3.709   4.704   1.345 -0.5740  0.6811 -0.2075
 2070TIP3    H2 6175   3.670   4.791   1.463 -0.1830 -0.5176  0.8295
 2071TIP3   OH2 6176   1.100   2.177   1.029 -0.5322  0.3420 -0.3891
 2071TIP3    H1 6177   1.144   2.106   0.984  1.0963 -0.0295  1.6452
 2071TIP3    H2 6178   1.016   2.140   1.057  0.1477 -0.6862  0.3309
 2072TIP3   OH2 6179   4.053   1.802   5.508 -0.6590  0.3712 -0.0970
 2072TIP3    H1 6180   4.094   1.727   5.551  0.1761  0.5947 -0.4915
 2072TIP3    H2 6181   3.984   1.830   5.569 -0.3363 -0.1079  0.4953
 2073TIP3   OH2 6182   2.283   2.837   3.210  0.1914  0.0453 -0.3632
 2073TIP3    H1 6183   2.329   2.778   3.269 -1.2746 -0.3971  0.3870
 2073TIP3    H2 6184   2.232   2.780   3.153 -0.0028  0.5456 -0.7017
 2074TIP3   OH2 6185   1.049   0.101   3.539 -0.6094  0.1709  0.0763
 2074TIP3    H1 6186   0.964   0.136   3.566 -1.4117  0.3826 -2.4689
 2074TIP3    H2 6187   1.028   0.036   3.472  1.2255  0.2446 -0.6192
 2075TIP3   OH2 6188   7.195   0.916   4.762  0.0359  0.2305 -0.2937
 2075TIP3    H1 6189   7.164   0.826   4.772  0.0930  0.4080  2.1367
 2075TIP3    H2 6190   7.231   0.938   4.848 -4.4281  4.2322  0.9954
 2076TIP3   OH2 6191   6.492   1.770   5.534 -0.1423 -0.6590 -0.2914
 2076TIP3    H1 6192   6.571   1.758   5.480  0.8205  0.6801  0.7508
 2076TIP3    H2 6193   6.484   1.688   5.583  0.7943 -0.7042 -0.1902
 2077TIP3   OH2 6194   0.346   6.479   2.299  0.0092 -0.3063 -0.1723
 2077TIP3    H1 6195   0.276   6.541   2.278 -0.0122  0.5893  2.1760
 2077TIP3    H2 6196   0.307   6.419   2.363  1.0415 -0.4848  0.3133
 2078TIP3   OH2 6197   4.649   1.130   3.365  0.1479  0.5141  0.0977
 2078TIP3    H1 6198   4.654   1.099   3.275 -0.5430  0.4721  0.0634
 2078TIP3    H2 6199   4.688   1.060   3.417  0.6620  0.5922 -0.1775
 2079TIP3   OH2 6200   5.298   5.267   4.715 -0.1871  0.1640  0.5367
 2079TIP3    H1 6201   5.388   5.271   4.684  0.0800  1.8772  1.3888
 2079TIP3    H2 6202   5.245   5.288   4.638  0.1400 -0.5850  0.0963
 2080TIP3   OH2 6203   6.150   4.913   0.530 -0.0242 -0.1810 -0.3873
 2080TIP3    H1 6204   6.203   4.894   0.607 -0.1331 -0.0992 -0.2907
 2080TIP3    H2 6205   6.060   4.917   0.564 -0.1619 -0.9202 -0.6517
 2081TIP3   OH2 6206   1.067   0.685   5.906 -0.1233  0.0207 -0.8237
 2081TIP3    H1 6207   1.098   0.774   5.887 -0.4924  0.0292 -1.4054
 2081TIP3    H2 6208   0.974   0.688   5.886 -0.5807  0.0603  1.1624
 2082TIP3   OH2 6209   4.645   2.547   0.971 -0.5965 -0.5456 -0.0868
 2082TIP3    H1 6210   4.581   2.561   0.900 -2.3181  0.9399  1.6403
 2082TIP3    H2 6211   4.592   2.521   1.046  0.7548  1.1479  1.5417
 2083TIP3   OH2 6212   0.426   6.228   1.736 -0.0430 -0.3353 -0.0926
 2083TIP3    H1 6213   0.468   6.295   1.789  0.8678 -1.0393  0.1153
 2083TIP3    H2 6214   0.335   6.255   1.729  0.0580  0.3135  0.9521
 2084TIP3   OH2 6215   7.041   1.566   5.891 -0.0420  0.4164 -0.5199
 2084TIP3    H1 6216   7.085   1.482   5.883 -0.3548  0.2104 -0.0952
 2084TIP3    H2 6217   7.107   1.630   5.863  0.0442  0.0038 -1.2975
 2085TIP3   OH2 6218   1.784   3.439   2.678 -0.0457 -0.7080  0.4845
 2085TIP3    H1 6219   1.772   3.415   2.770 -0.1457  0.9245  0.9338
 2085TIP3    H2 6220   1.707   3.403   2.633 -0.6037 -0.5231  1.2683
 2086TIP3   OH2 6221   6.534   6.328   3.152 -0.1133 -0.6179  0.0073
 2086TIP3    H1 6222   6.582   6.328   3.235 -0.2701  2.3944  0.2136
 2086TIP3    H2 6223   6.597   6.292   3.088  0.6941 -1.1660  1.0728
 2087TIP3   OH2 6224   4.489   6.388   3.188  0.1098  0.3139  0.3170
 2087TIP3    H1 6225   4.460   6.399   3.279  1.4597  1.1841  0.6718
 2087TIP3    H2 6226   4.566   6.331   3.194 -0.9326 -1.2457 -0.5110
 2088TIP3   OH2 6227   3.969   6.010   0.690  0.2405 -0.2248 -0.3001
 2088TIP3    H1 6228   3.920   6.024   0.609 -1.9146 -1.3539  0.7215
 2088TIP3    H2 6229   4.060   6.032   0.668 -0.6546  1.7738 -2.3495
 2089TIP3   OH2 6230   6.651   3.134   2.483  0.0922  0.5098  0.3839
 2089TIP3    H1 6231   6.583   3.193   2.514  0.8250  1.0609  0.9952
 2089TIP3    H2 6232   6.664   3.158   2.391 -0.3572  0.5653  0.3336
 2090TIP3   OH2 6233   7.067   4.581   2.419  0.0527  0.2673 -0.4587
 2090TIP3    H1 6234   7.021   4.497   2.424 -2.3545  1.5586  1.8911
 2090TIP3    H2 6235   7.158   4.559   2.437 -0.7886 -1.7382  2.0580
 2091TIP3   OH2 6236   1.886   1.460   5.518  0.0680  0.4254  0.3014
 2091TIP3    H1 6237   1.958   1.517   5.543  1.0345 -0.6860  0.1648
 2091TIP3    H2 6238   1.807   1.510   5.537  0.8621  2.4946 -1.4343
 2092TIP3   OH2 6239   4.128   3.162   4.521 -0.6164  0.4364  0.0735
 2092TIP3    H1 6240   4.203   3.218   4.499 -1.2924  1.2595 -0.2023
 2092TIP3    H2 6241   4.101   3.124   4.437  0.2753 -0.9049  0.3561
 2093TIP3   OH2 6242   2.474   0.551   0.836  0.8682 -0.1752 -0.2286
 2093TIP3    H1 6243   2.565   0.538   0.863  0.7973  0.9692  0.6665
 2093TIP3    H2 6244   2.458   0.483   0.771  1.3694 -2.4135  1.8558
 2094TIP3   OH2 6245   7.039   4.200   5.608 -0.4003 -0.2180 -0.0759
 2094TIP3    H1 6246   7.123   4.188   5.563 -1.4038  0.5352 -2.2835
 2094TIP3    H2 6247   7.009   4.111   5.625  0.8755 -0.5007  0.8529
 2095TIP3   OH2 6248   1.650   0.362   5.920  0.3202 -0.2180  0.0929
 2095TIP3    H1 6249   1.744   0.346   5.929  0.6480  0.8667 -1.1714
 2095TIP3    H2 6250   1.631   0.344   5.828 -0.1835  1.9788 -0.2931
 2096TIP3   OH2 6251   4.248   4.280   0.440 -0.2107 -0.4513 -0.3502
 2096TIP3    H1 6252   4.174   4.327   0.401  1.3735  2.0794 -0.5594
 2096TIP3    H2 6253   4.250   4.196   0.394 -0.3861  1.1206 -3.5511
 2097TIP3   OH2 6254   2.081   4.437   0.768 -0.0661  0.3839 -0.6662
 2097TIP3    H1 6255   2.160   4.383   0.757 -0.4577 -0.8168  1.7460
 2097TIP3    H2 6256   2.031   4.424   0.688  1.1904 -0.5386 -1.3303
 2098TIP3   OH2 6257   6.231   2.202   0.450  0.3959 -0.0142  0.0656
 2098TIP3    H1 6258   6.204   2.248   0.529 -0.2854 -0.7614  0.2804
 2098TIP3    H2 6259   6.259   2.271   0.390 -1.6474  0.7953 -0.0439
 2099TIP3   OH2 6260   6.103   2.936   2.992  0.0771 -0.1451  0.2284
 2099TIP3    H1 6261   6.188   2.909   2.958  0.5957  0.4597  1.0295
 2099TIP3    H2 6262   6.067   2.993   2.924  0.1625 -0.6523 -0.2513
 2100TIP3   OH2 6263   5.352   4.232   3.105 -0.0114  0.0759 -0.1996
 2100TIP3    H1 6264   5.410   4.219   3.181  0.4669  0.1781 -0.5447
 2100TIP3    H2 6265   5.265   4.237   3.143  0.2483  0.3750  0.3717
 2101TIP3   OH2 6266   2.661   4.381   1.434  0.2214 -0.1099  0.3613
 2101TIP3    H1 6267   2.660   4.341   1.347 -0.1578 -1.2011  0.8411
 2101TIP3    H2 6268   2.579   4.429   1.438 -0.5934 -1.4625  0.7071
 2102TIP3   OH2 6269   5.833   1.719   0.902 -0.7268  0.4556 -0.5488
 2102TIP3    H1 6270   5.786   1.748   0.823 -1.6297 -1.4981 -0.7927
 2102TIP3    H2 6271   5.891   1.650   0.870 -1.7723 -1.0066  0.5950
 2103TIP3   OH2 6272   5.046   5.796   5.070 -0.4844 -0.9973  0.2995
 2103TIP3    H1 6273   5.087   5.872   5.110  0.7040 -2.3623  1.8234
 2103TIP3    H2 6274   4.963   5.786   5.118 -1.1412 -0.0766 -0.6202
 2104TIP3   OH2 6275   3.793   6.373   0.244 -0.1545 -0.0791  0.3708
 2104TIP3    H1 6276   3.862   6.388   0.309 -1.4383 -1.8244  2.2614
 2104TIP3    H2 6277   3.718   6.344   0.296 -1.4288 -1.0045 -1.8699
 2105TIP3   OH2 6278   3.394   3.251   5.810  0.2103 -0.1687 -0.6138
 2105TIP3    H1 6279   3.431   3.200   5.738  3.4119  1.4264 -0.2345
 2105TIP3    H2 6280   3.403   3.342   5.782 -0.6284  0.3996  0.8550
 2106TIP3   OH2 6281   5.604   5.632   0.630  0.1002 -0.1780  0.1946
 2106TIP3    H1 6282   5.532   5.694   0.634  0.9470  0.8749 -0.4155
 2106TIP3    H2 6283   5.683   5.685   0.637  0.8453 -1.3699  1.6118
 2107TIP3   OH2 6284   4.102   0.991   5.525  0.0687 -0.0510 -0.7635
 2107TIP3    H1 6285   4.008   0.985   5.505  0.2118 -0.5356 -1.3347
 2107TIP3    H2 6286   4.114   1.080   5.558 -0.6905 -0.1700 -0.1494
 2108TIP3   OH2 6287   2.969   2.485   3.610 -0.5285 -0.0805 -0.9010
 2108TIP3    H1 6288   3.008   2.572   3.618 -2.4124  0.8049 -0.9719
 2108TIP3    H2 6289   2.978   2.463   3.518  1.0220 -0.5096 -0.6729
 2109TIP3   OH2 6290   7.171   6.392   1.281  0.4425 -0.0238  0.0378
 2109TIP3    H1 6291   7.105   6.450   1.242  1.4347  0.9861 -0.1828
 2109TIP3    H2 6292   7.127   6.308   1.288 -0.3640  0.2231 -1.6039
 2110TIP3   OH2 6293   4.641   0.019   3.186 -0.0769  0.0690  0.0303
 2110TIP3    H1 6294   4.647   0.109   3.154 -0.9203 -0.3859 -1.5011
 2110TIP3    H2 6295   4.730  -0.002   3.213  0.7696  0.4391 -2.2683
 2111TIP3   OH2 6296   2.394   0.391   5.724  0.5775 -0.0095 -0.2699
 2111TIP3    H1 6297   2.434   0.470   5.687 -0.3639  1.2702  1.2614
 2111TIP3    H2 6298   2.331   0.362   5.658  1.0803  0.4116 -0.9405
 2112TIP3   OH2 6299   5.294   1.000   0.631  0.6858  0.1941 -0.2135
 2112TIP3    H1 6300   5.251   1.062   0.690  0.0095 -1.0790  0.7071
 2112TIP3    H2 6301   5.385   1.028   0.628 -0.0220  2.5680 -1.6831
 2113TIP3   OH2 6302   4.301   1.576   2.643 -0.0765  0.4622  0.0383
 2113TIP3    H1 6303   4.216   1.584   2.687 -1.6275 -0.8295 -2.4703
 2113TIP3    H2 6304   4.332   1.489   2.666 -0.0157  0.4730 -0.0018
 2114TIP3   OH2 6305   0.606   4.381   5.738 -0.1568 -0.4773 -0.5581
 2114TIP3    H1 6306   0.543   4.448   5.711  0.6383  0.6451  0.2374
 2114TIP3    H2 6307   0.658   4.363   5.659  0.0940  0.4018 -0.6037
 2115TIP3   OH2 6308   6.139   6.695   2.876 -0.6612  0.4150 -0.3550
 2115TIP3    H1 6309   6.045   6.678   2.873 -0.8515  0.7638  1.7471
 2115TIP3    H2 6310   6.179   6.609   2.875 -1.0539  0.2304 -0.2955
 2116TIP3   OH2 6311   3.682   4.325   0.888 -0.3291 -0.9400 -0.0509
 2116TIP3    H1 6312   3.759   4.292   0.842 -1.2737 -0.1121 -2.3662
 2116TIP3    H2 6313   3.712   4.407   0.928  0.2890 -1.2472  0.1321
 2117TIP3   OH2 6314   7.189   4.908   1.285  0.9175 -0.3750 -0.3163
 2117TIP3    H1 6315   7.128   4.843   1.250  1.1213 -1.3632  1.0493
 2117TIP3    H2 6316   7.261   4.910   1.221 -0.3746  0.6186 -1.8100
 2118TIP3   OH2 6317   0.699   6.024   5.722  0.1073  0.1319  0.0939
 2118TIP3    H1 6318   0.775   6.080   5.709  0.8812 -1.2627 -1.7558
 2118TIP3    H2 6319   0.729   5.957   5.783  1.3759 -2.0723 -2.7790
 2119TIP3   OH2 6320   5.433   6.123   2.503 -0.0508  0.2627  0.3081
 2119TIP3    H1 6321   5.466   6.166   2.581  0.9321  0.4498 -0.1950
 2119TIP3    H2 6322   5.503   6.133   2.438 -0.2847 -1.0587 -0.1803
 2120TIP3   OH2 6323   3.596   0.124   2.984 -0.5500  0.5059  0.0045
 2120TIP3    H1 6324   3.682   0.154   3.012 -0.9725  1.3795  0.4071
 2120TIP3    H2 6325   3.587   0.037   3.023 -1.2833  1.8249  3.0580
 2121TIP3   OH2 6326   6.172   4.749   3.840  0.3689  0.1016 -0.8820
 2121TIP3    H1 6327   6.146   4.841   3.833  0.1663 -0.0666 -3.0917
 2121TIP3    H2 6328   6.090   4.702   3.853  0.2542  0.1023 -1.5537
 2122TIP3   OH2 6329   0.361   1.207   2.546 -0.4292 -0.4614 -0.0919
 2122TIP3    H1 6330   0.312   1.127   2.563 -0.3790 -0.5209 -0.2226
 2122TIP3    H2 6331   0.452   1.184   2.569 -0.7256  0.1942  1.8954
 2123TIP3   OH2 6332   2.705   1.776   1.703 -0.0901  0.5690 -0.9508
 2123TIP3    H1 6333   2.773   1.841   1.685  0.1780  0.0081 -2.1001
 2123TIP3    H2 6334   2.723   1.706   1.640 -0.0700 -0.8430  0.5530
 2124TIP3   OH2 6335   3.558   5.513   5.177  0.2179 -0.1043 -0.2375
 2124TIP3    H1 6336   3.469   5.507   5.212 -0.1094 -0.8769 -1.1478
 2124TIP3    H2 6337   3.604   5.438   5.215 -0.5777 -1.8975 -2.5589
 2125TIP3   OH2 6338   6.120   4.126   0.630  0.5064 -0.4113  0.5878
 2125TIP3    H1 6339   6.091   4.167   0.712 -0.1886  0.8284 -0.2568
 2125TIP3    H2 6340   6.081   4.038   0.633 -2.9042  0.8924 -0.1244
 2126TIP3   OH2 6341   5.218   5.662   0.365  0.3635 -0.3784  0.2428
 2126TIP3    H1 6342   5.236   5.701   0.279  0.7487  1.0609  0.9591
 2126TIP3    H2 6343   5.239   5.569   0.353 -0.2384 -0.3447 -1.3997
 2127TIP3   OH2 6344   5.823   5.922   3.350 -0.0404 -0.2612  0.3965
 2127TIP3    H1 6345   5.825   6.013   3.378  0.2947 -0.6121  1.5606
 2127TIP3    H2 6346   5.898   5.913   3.291 -0.3383  0.3180 -0.0721
 2128TIP3   OH2 6347   5.626   5.527   1.934  0.1811  0.0200 -0.4592
 2128TIP3    H1 6348   5.596   5.455   1.879  1.0224 -0.8776  0.2183
 2128TIP3    H2 6349   5.595   5.506   2.022 -0.0432  0.7760 -0.3462
 2129TIP3   OH2 6350   4.400   0.823   0.979 -0.1183 -0.0468 -0.1672
 2129TIP3    H1 6351   4.379   0.797   0.889 -0.0652  0.9782 -0.4887
 2129TIP3    H2 6352   4.485   0.866   0.972 -0.1662  0.1372  0.3623
 2130TIP3   OH2 6353   6.892   0.175   5.152  0.2359 -0.6275  0.1078
 2130TIP3    H1 6354   6.853   0.261   5.166  2.1032  0.2928 -0.1481
 2130TIP3    H2 6355   6.904   0.139   5.239  0.5408 -0.1337  0.2691
 2131TIP3   OH2 6356   1.712   4.080   5.617  0.3193  0.7567 -0.4198
 2131TIP3    H1 6357   1.734   4.002   5.567  0.1296  0.0561  0.5533
 2131TIP3    H2 6358   1.795   4.106   5.659  0.3747  1.0532 -0.7153
 2132TIP3   OH2 6359   0.513   3.538   2.401  0.0316  0.7851 -0.7880
 2132TIP3    H1 6360   0.475   3.557   2.316  1.1135  2.1354 -1.0052
 2132TIP3    H2 6361   0.595   3.492   2.381 -0.0281  0.5195 -0.4449
 2133TIP3   OH2 6362   5.418   0.479   0.661 -0.2026  0.7117  0.1013
 2133TIP3    H1 6363   5.417   0.574   0.657 -0.0751  0.8799  2.6493
 2133TIP3    H2 6364   5.511   0.455   0.654 -0.1929  0.8047 -0.0854
 2134TIP3   OH2 6365   2.461   6.246   5.315  0.1593 -0.4518 -0.0342
 2134TIP3    H1 6366   2.397   6.316   5.303  1.9120  1.3061  0.3405
 2134TIP3    H2 6367   2.472   6.209   5.227 -0.4284  0.0767 -0.3397
 2135TIP3   OH2 6368   6.528   4.926   3.096 -0.2458 -0.3594  0.4074
 2135TIP3    H1 6369   6.460   4.924   3.028 -2.6314  1.3359  2.5788
 2135TIP3    H2 6370   6.580   5.004   3.075 -2.3227  1.4481  1.6079
 2136TIP3   OH2 6371   3.146   1.459   5.833 -0.0713  0.4285  0.2667
 2136TIP3    H1 6372   3.224   1.497   5.873 -0.2385  3.6810 -2.1199
 2136TIP3    H2 6373   3.074   1.489   5.888  0.1734 -2.3809  2.3337
 2137TIP3   OH2 6374   6.653   1.581   1.167  0.0459  0.2983  0.2220
 2137TIP3    H1 6375   6.627   1.568   1.077  1.1292  0.3577 -0.1211
 2137TIP3    H2 6376   6.669   1.676   1.174  3.2214 -0.0589 -0.5207
 2138TIP3   OH2 6377   7.083   1.316   1.984  0.1042  0.2243 -0.0502
 2138TIP3    H1 6378   7.152   1.350   2.040 -0.1991 -1.1989  1.2432
 2138TIP3    H2 6379   7.105   1.349   1.896  1.1824  1.5948  0.7015
 2139TIP3   OH2 6380   2.590   2.443   0.429  0.0122 -0.2567  0.1646
 2139TIP3    H1 6381   2.519   2.381   0.444  0.2875 -0.1511  2.2266
 2139TIP3    H2 6382   2.571   2.483   0.345 -1.9166 -0.8456  0.2943
 2140TIP3   OH2 6383   5.934   6.674   3.192 -0.2777 -0.4422 -0.6820
 2140TIP3    H1 6384   6.015   6.718   3.218 -0.1184 -0.9666 -0.2869
 2140TIP3    H2 6385   5.888   6.658   3.274 -0.3340 -1.0183 -0.8269
 2141TIP3   OH2 6386   0.802   0.032   1.718  0.9706  0.6000 -0.3091
 2141TIP3    H1 6387   0.833  -0.035   1.779  0.4934  0.7331  0.0833
 2141TIP3    H2 6388   0.848   0.112   1.745 -1.3193  1.3628  1.7612
 2142TIP3   OH2 6389   0.631   3.001   5.750 -0.6014  0.5392 -0.2593
 2142TIP3    H1 6390   0.705   3.017   5.692 -1.1150 -0.5840 -1.2450
 2142TIP3    H2 6391   0.554   3.020   5.697 -1.0663  0.3039  0.3175
 2143TIP3   OH2 6392   1.984   1.989   0.100  0.2093 -0.4383  0.2649
 2143TIP3    H1 6393   2.041   2.000   0.023  0.1684  1.0351  0.4166
 2143TIP3    H2 6394   2.041   2.007   0.174  0.1666 -1.5394  0.5779
 2144TIP3   OH2 6395   4.441   4.991   3.620 -0.6148 -0.3389 -0.3025
 2144TIP3    H1 6396   4.380   4.935   3.572 -0.2947 -0.7509 -0.2401
 2144TIP3    H2 6397   4.445   5.072   3.570  0.3718 -1.0753 -1.4595
 2145TIP3   OH2 6398   3.958   6.235   0.927  0.1917  0.3997  0.0924
 2145TIP3    H1 6399   3.890   6.258   0.991  0.1040  0.6918 -0.1047
 2145TIP3    H2 6400   4.032   6.290   0.950  0.2100  0.4010  0.0287
 2146TIP3   OH2 6401   5.679   4.878   3.222  0.0138 -0.1714  0.7331
 2146TIP3    H1 6402   5.588   4.889   3.196 -0.1374 -1.9352  0.3926
 2146TIP3    H2 6403   5.716   4.818   3.156  0.3673 -2.5343  2.9335
 2147TIP3   OH2 6404   6.327   2.868   5.180 -0.0121  0.1973  0.1907
 2147TIP3    H1 6405   6.315   2.941   5.118  0.7809 -0.1569 -0.4117
 2147TIP3    H2 6406   6.353   2.911   5.262 -1.2338  0.6860  0.3414
 2148TIP3   OH2 6407   7.034   5.797   2.180 -0.0157  0.4622 -0.0758
 2148TIP3    H1 6408   7.100   5.780   2.247  0.7493 -0.2529 -0.9748
 2148TIP3    H2 6409   7.075   5.860   2.121 -0.5409  0.8139 -0.0713
 2149TIP3   OH2 6410   2.144   6.497   1.983 -0.1516 -0.3390  0.1252
 2149TIP3    H1 6411   2.220   6.542   2.021  0.8520 -1.2676 -0.7248
 2149TIP3    H2 6412   2.151   6.407   2.015  0.6052 -1.0900 -1.9945
 2150TIP3   OH2 6413   6.640   3.342   0.016  0.0067  0.5432 -0.6652
 2150TIP3    H1 6414   6.731   3.316   0.030 -0.2418 -0.8055 -1.4559
 2150TIP3    H2 6415   6.645   3.435  -0.005  1.1513  0.5980 -0.2137
 2151TIP3   OH2 6416   6.313   5.126   0.959 -0.3582 -0.6205  0.4076
 2151TIP3    H1 6417   6.384   5.061   0.965 -0.4021 -0.6488  0.6257
 2151TIP3    H2 6418   6.345   5.189   0.895 -0.8844 -1.5642 -0.8337
 2152TIP3   OH2 6419   2.522   6.775   3.207 -0.8557 -0.8021 -0.4867
 2152TIP3    H1 6420   2.540   6.787   3.113  0.3914 -0.6304 -0.2387
 2152TIP3    H2 6421   2.564   6.849   3.249 -3.2487  0.3336  0.0698
 2153TIP3   OH2 6422   0.696   0.831   3.231  1.0247  0.2294 -0.2766
 2153TIP3    H1 6423   0.639   0.758   3.253  0.3925  0.2759 -1.6717
 2153TIP3    H2 6424   0.644   0.909   3.249  1.7316  0.3823  1.3019
 2154TIP3   OH2 6425   6.206   4.317   0.025  0.0625 -0.7981 -0.2943
 2154TIP3    H1 6426   6.272   4.359   0.079 -0.8252 -0.4155  0.5211
 2154TIP3    H2 6427   6.146   4.387   0.000 -0.4442 -1.2648 -0.4143
 2155TIP3   OH2 6428   2.870   6.505   2.452  0.4568 -0.1411 -0.2693
 2155TIP3    H1 6429   2.899   6.434   2.395 -0.5850 -0.8167  0.0050
 2155TIP3    H2 6430   2.776   6.512   2.437  0.0485 -0.6667  1.6791
 2156TIP3   OH2 6431   6.691   1.215   3.827  0.6482  0.2799 -0.4752
 2156TIP3    H1 6432   6.728   1.301   3.850  0.7114  0.2548 -0.4808
 2156TIP3    H2 6433   6.767   1.156   3.829  0.4252  0.0102  0.5795
 2157TIP3   OH2 6434   6.326   6.441   4.337 -0.5229 -0.6123 -0.3926
 2157TIP3    H1 6435   6.245   6.468   4.380 -0.0494  1.3386 -0.6236
 2157TIP3    H2 6436   6.396   6.474   4.393  0.1012  0.5394 -1.7733
 2158TIP3   OH2 6437   4.211   1.395   3.569  0.0077  0.2018  0.2373
 2158TIP3    H1 6438   4.140   1.429   3.515 -1.1539 -0.8109  1.0748
 2158TIP3    H2 6439   4.286   1.391   3.510 -0.6066  1.3157 -0.6615
 2159TIP3   OH2 6440   0.454   3.776   5.050 -0.2178  0.1040 -0.2752
 2159TIP3    H1 6441   0.383   3.793   4.987 -2.3313 -1.8709  1.4179
 2159TIP3    H2 6442   0.461   3.857   5.101 -1.5040  0.2133 -0.2497
 2160TIP3   OH2 6443   2.787   4.585   4.703 -0.3618  0.4150  0.2837
 2160TIP3    H1 6444   2.708   4.615   4.658 -0.5547 -0.7100 -0.1831
 2160TIP3    H2 6445   2.811   4.657   4.761 -1.5288  0.9152  0.1781
 2161TIP3   OH2 6446   6.247   3.872   1.569  0.5093 -0.4631  0.2939
 2161TIP3    H1 6447   6.233   3.784   1.535  2.0463  0.1436 -2.1340
 2161TIP3    H2 6448   6.278   3.858   1.659 -0.9734 -2.2647  0.6035
 2162TIP3   OH2 6449   2.297   5.348   5.701 -0.1340 -0.2383 -0.4102
 2162TIP3    H1 6450   2.307   5.443   5.697  0.4663 -0.3277 -1.3245
 2162TIP3    H2 6451   2.262   5.331   5.789  0.9111  0.7292  0.2203
 2163TIP3   OH2 6452   2.957   3.497   1.375  0.5252 -0.7523  0.2835
 2163TIP3    H1 6453   2.931   3.463   1.460  1.5483 -0.4879  0.7243
 2163TIP3    H2 6454   2.882   3.480   1.318 -0.5094 -0.2131  1.4224
 2164TIP3   OH2 6455   1.791   0.504   0.153 -0.6142  0.0648 -0.0649
 2164TIP3    H1 6456   1.744   0.421   0.154 -0.1626 -0.2309 -1.4524
 2164TIP3    H2 6457   1.730   0.566   0.194 -1.3844 -0.7193  0.0181
 2165TIP3   OH2 6458   6.146   1.943   1.764 -0.3457 -0.8224  0.6844
 2165TIP3    H1 6459   6.177   1.872   1.708 -0.5724  0.4554 -1.1647
 2165TIP3    H2 6460   6.051   1.935   1.762 -0.5151  0.8925 -1.5409
 2166TIP3   OH2 6461   5.338   4.006   0.955  0.5004  0.4059 -0.4320
 2166TIP3    H1 6462   5.281   4.082   0.964 -0.3843 -0.1798 -0.9156
 2166TIP3    H2 6463   5.401   4.031   0.887 -1.7000 -0.3499 -2.9417
 2167TIP3   OH2 6464   2.173   1.920   1.048  0.5642 -0.3431  0.0036
 2167TIP3    H1 6465   2.192   1.839   1.096  1.0419  0.3845  1.0661
 2167TIP3    H2 6466   2.226   1.987   1.091 -0.8325  0.8049  0.0195
 2168TIP3   OH2 6467   2.606   0.271   3.847  0.3753  0.4890  0.6250
 2168TIP3    H1 6468   2.539   0.275   3.915  0.6933 -0.0464  0.9683
 2168TIP3    H2 6469   2.671   0.210   3.880  0.0144 -0.6156 -0.6123
 2169TIP3   OH2 6470   0.748   3.831   3.515  0.3252  0.3369  0.1401
 2169TIP3    H1 6471   0.769   3.922   3.497  0.8023  0.8496  2.9256
 2169TIP3    H2 6472   0.661   3.833   3.554 -0.0117 -0.5313 -0.5101
 2170TIP3   OH2 6473   2.977   4.351   0.343 -0.1782  0.0576 -0.3827
 2170TIP3    H1 6474   3.008   4.308   0.423  0.0215  1.4628  0.3258
 2170TIP3    H2 6475   3.026   4.309   0.272  1.1498  0.1757  0.4269
 2171TIP3   OH2 6476   2.508   5.040   3.635 -0.4261  0.3626  0.0067
 2171TIP3    H1 6477   2.519   5.096   3.559 -1.6107 -0.0366 -0.4792
 2171TIP3    H2 6478   2.565   4.965   3.618  0.8278  1.1733  0.4584
 2172TIP3   OH2 6479   4.789   6.766   3.025  0.0071 -0.4898 -0.0848
 2172TIP3    H1 6480   4.766   6.683   2.982 -0.4985 -0.8420  0.8471
 2172TIP3    H2 6481   4.710   6.819   3.018  0.8808  0.6800 -2.3368
 2173TIP3   OH2 6482   2.553   6.737   5.054  0.0214 -0.5922 -0.0366
 2173TIP3    H1 6483   2.537   6.828   5.032 -0.5556 -1.1070 -1.9639
 2173TIP3    H2 6484   2.615   6.706   4.988 -2.0088 -2.3060 -1.3159
 2174TIP3   OH2 6485   2.690   0.759   4.959  0.2059 -0.0499 -0.2182
 2174TIP3    H1 6486   2.704   0.842   4.913 -0.2441 -0.1817 -0.6030
 2174TIP3    H2 6487   2.611   0.773   5.011  0.4672 -0.0436  0.1757
 2175TIP3   OH2 6488   3.658   6.764   0.147 -0.2407  0.1710 -0.2408
 2175TIP3    H1 6489   3.599   6.834   0.175 -0.1020 -0.5827  2.1388
 2175TIP3    H2 6490   3.745   6.796   0.170 -0.0611 -0.2530 -0.3173
 2176TIP3   OH2 6491   5.460   1.472   4.635  0.9913 -0.3403 -0.2072
 2176TIP3    H1 6492   5.499   1.548   4.591 -2.1473  1.1046 -0.7191
 2176TIP3    H2 6493   5.523   1.450   4.704  1.8816  3.0062  0.2450
 2177TIP3   OH2 6494   3.054   2.134   1.452 -0.0897  0.2687 -0.2695
 2177TIP3    H1 6495   3.089   2.044   1.454 -0.4644  0.1262  1.3354
 2177TIP3    H2 6496   3.069   2.167   1.540 -1.9592  1.0074 -0.2011
 2178TIP3   OH2 6497   6.924   4.422   0.669  0.7207  0.3340 -0.2572
 2178TIP3    H1 6498   6.934   4.460   0.582  1.2062 -0.9436 -0.7866
 2178TIP3    H2 6499   6.836   4.382   0.668  0.7562  0.2523 -0.1953
 2179TIP3   OH2 6500   4.833   4.321   2.624 -0.3008 -0.3581  0.1696
 2179TIP3    H1 6501   4.810   4.311   2.531 -0.8161  2.0193 -0.0308
 2179TIP3    H2 6502   4.920   4.363   2.622 -1.3496  1.9985  0.6286
 2180TIP3   OH2 6503   1.014   4.999   1.055 -0.2193  0.1475  0.4209
 2180TIP3    H1 6504   0.929   4.963   1.033  0.0481  0.4630 -1.2300
 2180TIP3    H2 6505   0.994   5.080   1.103 -0.9577  1.5588 -2.0841
 2181TIP3   OH2 6506   3.721   5.883   4.936  0.5140  0.1885 -0.0268
 2181TIP3    H1 6507   3.665   5.805   4.942  0.6585  0.1775  1.5698
 2181TIP3    H2 6508   3.668   5.954   4.972  1.2525  0.3085  0.8808
 2182TIP3   OH2 6509   6.141   1.550   2.624 -0.2576  0.4595  0.2591
 2182TIP3    H1 6510   6.136   1.518   2.534  0.0574  0.6288  0.1815
 2182TIP3    H2 6511   6.228   1.524   2.655  0.5149  2.3235 -0.2276
 2183TIP3   OH2 6512   4.564   4.854   2.126  0.8064 -0.8798 -0.5814
 2183TIP3    H1 6513   4.534   4.895   2.045  2.1039 -0.1101 -0.6861
 2183TIP3    H2 6514   4.627   4.788   2.098  3.0918  0.9968 -0.1355
 2184TIP3   OH2 6515   4.921   2.319   4.493 -0.0441 -0.3862 -0.5231
 2184TIP3    H1 6516   4.928   2.299   4.586  0.2396 -1.2041 -0.7113
 2184TIP3    H2 6517   5.011   2.320   4.461 -0.1511 -0.3249 -0.8330
 2185TIP3   OH2 6518   5.506   4.123   0.714 -0.1295  0.6585 -0.7609
 2185TIP3    H1 6519   5.488   4.069   0.636  0.5245 -0.8853  0.1138
 2185TIP3    H2 6520   5.597   4.150   0.703 -0.1831  0.8456 -0.7516
 2186TIP3   OH2 6521   1.156   1.286   1.613  0.1019  0.4891 -0.5146
 2186TIP3    H1 6522   1.140   1.277   1.707 -0.4938 -2.3986 -0.8000
 2186TIP3    H2 6523   1.074   1.260   1.572  0.6900  0.6308 -1.8402
 2187TIP3   OH2 6524   4.570   6.702   0.767 -0.2635  0.0189  0.2775
 2187TIP3    H1 6525   4.572   6.612   0.735 -1.7227 -0.7208  2.0549
 2187TIP3    H2 6526   4.486   6.736   0.737  0.1526  0.7004 -0.1336
 2188TIP3   OH2 6527   2.915   3.278   1.554 -0.0051 -0.0283  0.5250
 2188TIP3    H1 6528   2.933   3.200   1.501 -1.3785 -0.3215  0.4563
 2188TIP3    H2 6529   2.828   3.263   1.591 -0.4822  1.6506  0.1830
 2189TIP3   OH2 6530   7.007   1.018   0.794 -0.5326 -0.1155 -0.1211
 2189TIP3    H1 6531   6.951   1.077   0.844 -0.6313 -1.4580  1.4618
 2189TIP3    H2 6532   7.070   1.075   0.750 -1.5793  1.2379  0.0880
 2190TIP3   OH2 6533   0.602   3.400   0.132  0.4217 -0.3810 -0.4884
 2190TIP3    H1 6534   0.550   3.333   0.087  0.8851 -0.9688 -0.1681
 2190TIP3    H2 6535   0.679   3.412   0.077  0.4715 -0.3103 -0.4030
 2191TIP3   OH2 6536   4.741   5.541   3.698  0.2307  1.0276 -0.2732
 2191TIP3    H1 6537   4.765   5.627   3.734 -1.2651  0.9496  1.0455
 2191TIP3    H2 6538   4.701   5.560   3.614  0.5479  1.5563 -0.3092
 2192TIP3   OH2 6539   2.380   6.619   4.276  0.1954 -0.2232 -0.1682
 2192TIP3    H1 6540   2.358   6.543   4.331  1.6436 -0.1227  0.5985
 2192TIP3    H2 6541   2.427   6.678   4.335  1.2769  0.1614 -1.3787
 2193TIP3   OH2 6542   3.931   5.422   3.947  0.0307  0.0824 -0.1111
 2193TIP3    H1 6543   3.976   5.495   3.990  1.6487  0.9685 -3.0152
 2193TIP3    H2 6544   3.861   5.463   3.897 -0.5283 -0.6643  0.0447
 2194TIP3   OH2 6545   5.454   0.797   3.095 -0.6676  0.0724  0.2442
 2194TIP3    H1 6546   5.402   0.759   3.166 -1.0644 -0.7751 -0.4829
 2194TIP3    H2 6547   5.392   0.806   3.022 -0.8176  2.9223  0.6315
 2195TIP3   OH2 6548   2.199   6.269   4.733 -0.2884  0.0744  0.0365
 2195TIP3    H1 6549   2.201   6.173   4.727  0.1769  0.0687  0.2233
 2195TIP3    H2 6550   2.286   6.296   4.702 -0.1097  0.3899  0.7886
 2196TIP3   OH2 6551   1.432   4.100   1.390  0.4741 -0.0779  0.3736
 2196TIP3    H1 6552   1.371   4.067   1.324 -0.5403 -1.3289  1.8894
 2196TIP3    H2 6553   1.428   4.036   1.461  0.2122  2.0748  2.4165
 2197TIP3   OH2 6554   5.761   1.543   3.296 -0.0483  0.0439  0.0198
 2197TIP3    H1 6555   5.697   1.525   3.365 -0.2885 -0.6558 -0.3731
 2197TIP3    H2 6556   5.819   1.608   3.334 -1.0618  0.7965  0.3437
 2198TIP3   OH2 6557   5.206   6.728   5.173  0.2586 -0.1484  0.7406
 2198TIP3    H1 6558   5.295   6.704   5.198 -0.0910 -1.4945  0.7743
 2198TIP3    H2 6559   5.170   6.649   5.134 -0.8312  0.4698  0.4563
 2199TIP3   OH2 6560   0.174   3.419   3.083 -0.3473 -0.0652  0.1573
 2199TIP3    H1 6561   0.142   3.342   3.034  0.0995 -1.6982  2.2800
 2199TIP3    H2 6562   0.232   3.463   3.022 -1.2040 -0.9814 -1.4013
 2200TIP3   OH2 6563  -0.016   2.832   2.100 -0.0149 -0.0752  0.2311
 2200TIP3    H1 6564   0.011   2.883   2.024 -0.1194  0.3134  0.4523
 2200TIP3    H2 6565   0.050   2.852   2.166  0.1796 -0.5566  0.1875
 2201TIP3   OH2 6566   5.995   4.458   4.700 -0.3248  0.0759 -0.2356
 2201TIP3    H1 6567   5.977   4.544   4.738  1.3801  1.2899 -1.9710
 2201TIP3    H2 6568   6.014   4.476   4.608  1.6350 -1.9320 -0.3169
 2202TIP3   OH2 6569   0.782   4.515   0.722 -0.4484  0.0195 -0.3895
 2202TIP3    H1 6570   0.694   4.537   0.752  0.3461 -0.0797  2.2978
 2202TIP3    H2 6571   0.780   4.421   0.707 -0.6253 -0.1116  0.4129
 2203TIP3   OH2 6572   1.733   4.054   1.845  0.3185 -0.4086 -0.4049
 2203TIP3    H1 6573   1.715   4.103   1.925 -1.1032  0.3192 -1.1361
 2203TIP3    H2 6574   1.823   4.023   1.855  0.4428  0.3789  1.0957
 2204TIP3   OH2 6575   5.963   6.825   4.462  0.2068 -0.6284 -0.5038
 2204TIP3    H1 6576   5.970   6.730   4.461  1.3593 -0.6064  0.9707
 2204TIP3    H2 6577   5.974   6.848   4.555  2.4672  1.0802 -1.1142
 2205TIP3   OH2 6578   6.618   1.969   4.113 -0.5482 -0.2902  0.4506
 2205TIP3    H1 6579   6.536   2.018   4.125 -0.3821 -0.1282  0.9966
 2205TIP3    H2 6580   6.682   2.017   4.166 -0.5430 -1.5064  1.6066
 2206TIP3   OH2 6581   2.553   3.390   2.135 -0.2742  0.4838  0.0088
 2206TIP3    H1 6582   2.634   3.391   2.187 -0.3342  0.8610  0.0967
 2206TIP3    H2 6583   2.483   3.399   2.200 -0.3519  0.8729 -0.1253
 2207TIP3   OH2 6584   1.557   2.332   5.761 -0.2658  0.1207 -0.3207
 2207TIP3    H1 6585   1.603   2.386   5.697 -0.6284  0.8185 -0.0116
 2207TIP3    H2 6586   1.480   2.384   5.785 -0.1755 -0.1538  0.6275
 2208TIP3   OH2 6587   2.474   1.485   0.004  0.4675 -0.3477  0.3182
 2208TIP3    H1 6588   2.427   1.493   0.087  2.9756  1.3632  1.7130
 2208TIP3    H2 6589   2.539   1.417   0.019  0.3654 -0.6539 -0.5664
 2209TIP3   OH2 6590   0.935   4.447   0.423  0.1240  0.1764  0.2905
 2209TIP3    H1 6591   1.004   4.456   0.489 -0.5156 -0.2696  1.0430
 2209TIP3    H2 6592   0.905   4.357   0.432 -0.4953  0.3381 -0.0783
 2210TIP3   OH2 6593   4.328   0.127   1.063  0.4180  0.2541 -0.0245
 2210TIP3    H1 6594   4.334   0.223   1.067 -0.1397  0.2612  2.0311
 2210TIP3    H2 6595   4.419   0.097   1.065  0.5625  0.7296  1.1199
 2211TIP3   OH2 6596   6.784   4.787   4.325  0.0633  0.9938  0.7966
 2211TIP3    H1 6597   6.775   4.854   4.257  0.5024  0.4529  0.2008
 2211TIP3    H2 6598   6.696   4.778   4.362 -0.1931  1.2343  0.2536
 2212TIP3   OH2 6599   7.035   1.845   3.458  0.0542  0.0939  0.1811
 2212TIP3    H1 6600   6.999   1.909   3.520 -2.1702 -0.1330 -0.7912
 2212TIP3    H2 6601   6.997   1.762   3.484 -1.4664  0.0951 -1.8076
 2213TIP3   OH2 6602   2.631   3.889   1.046 -0.3671  0.6378  0.1388
 2213TIP3    H1 6603   2.699   3.941   1.004  0.3308  1.3266  1.9988
 2213TIP3    H2 6604   2.677   3.812   1.079 -0.5086  0.9455  1.1090
 2214TIP3   OH2 6605   1.816   2.158   1.482  0.7291 -0.0025 -0.3617
 2214TIP3    H1 6606   1.870   2.195   1.552 -0.5970 -1.4942  1.5585
 2214TIP3    H2 6607   1.737   2.212   1.481  0.6587 -0.1084 -0.5579
 2215TIP3   OH2 6608   2.278   5.457   3.860  0.2883 -0.1631 -0.4924
 2215TIP3    H1 6609   2.224   5.397   3.809 -0.6910 -0.4346  0.8023
 2215TIP3    H2 6610   2.257   5.544   3.825 -0.6991 -0.3028 -0.2944
 2216TIP3   OH2 6611   1.080   2.814   0.978 -0.2360 -0.3020  0.5727
 2216TIP3    H1 6612   1.114   2.727   0.957  0.5747 -0.0894  0.9593
 2216TIP3    H2 6613   1.158   2.869   0.988 -0.6749  0.1422  1.7508
 2217TIP3   OH2 6614   5.546   1.300   5.449  0.3573  0.2390 -0.0596
 2217TIP3    H1 6615   5.567   1.388   5.480  1.7687 -0.0195 -0.2125
 2217TIP3    H2 6616   5.503   1.314   5.365  1.1363  0.7754 -0.3797
 2218TIP3   OH2 6617   4.249   2.623   2.980 -0.3164 -0.3580 -0.1376
 2218TIP3    H1 6618   4.272   2.634   2.888 -0.7448 -2.9447 -0.6314
 2218TIP3    H2 6619   4.157   2.594   2.978  0.0989 -1.9149  0.9432
 2219TIP3   OH2 6620   6.544   4.781   2.381 -0.3657  0.0874  0.6087
 2219TIP3    H1 6621   6.518   4.701   2.426 -0.4350 -0.2555 -0.0282
 2219TIP3    H2 6622   6.465   4.809   2.335 -0.1929  0.2277  0.3964
 2220TIP3   OH2 6623   6.529   0.551   2.848 -0.2376  0.4607 -0.1813
 2220TIP3    H1 6624   6.570   0.569   2.933 -2.4836  0.1685  1.0277
 2220TIP3    H2 6625   6.504   0.637   2.815  0.5889  0.5696 -0.5608
 2221TIP3   OH2 6626   4.611   1.546   3.382  0.2617  0.1417  0.0691
 2221TIP3    H1 6627   4.652   1.465   3.412 -2.3926 -0.2630  3.1769
 2221TIP3    H2 6628   4.544   1.517   3.320 -0.4870 -0.0981  0.9561
 2222TIP3   OH2 6629   4.960   6.728   4.017 -0.5482  0.2798 -0.1497
 2222TIP3    H1 6630   4.918   6.808   3.984 -1.3579  0.0320  0.2905
 2222TIP3    H2 6631   4.894   6.660   4.007  0.2002 -0.3828 -0.6797
 2223TIP3   OH2 6632   4.628   0.898   5.498  0.0661 -0.3120  0.8942
 2223TIP3    H1 6633   4.652   0.833   5.432  0.8315  0.9408 -0.1067
 2223TIP3    H2 6634   4.532   0.899   5.496  0.0765  0.1283 -0.6504
 2224TIP3   OH2 6635   2.734   4.741   2.036  0.2638 -0.2650 -0.1086
 2224TIP3    H1 6636   2.827   4.741   2.016  0.0719  0.3691 -1.0215
 2224TIP3    H2 6637   2.717   4.828   2.072 -0.1663 -0.0328 -0.8625
 2225TIP3   OH2 6638   3.520   0.128   5.827 -0.6092  0.0869 -0.2031
 2225TIP3    H1 6639   3.456   0.169   5.769 -0.5504  0.3041 -0.1143
 2225TIP3    H2 6640   3.605   0.142   5.784 -0.4985  0.7737  0.2323
 2226TIP3   OH2 6641   6.707   4.692   4.894 -0.5676 -0.2850 -0.2351
 2226TIP3    H1 6642   6.660   4.610   4.878 -2.2209  0.1683  1.9887
 2226TIP3    H2 6643   6.646   4.760   4.867 -0.5998  0.2707  1.1752
 2227TIP3   OH2 6644   4.025   2.128   0.934  0.0453 -0.4681 -0.6107
 2227TIP3    H1 6645   4.072   2.211   0.940  0.4454 -0.7936  1.8988
 2227TIP3    H2 6646   4.093   2.061   0.941 -0.1443 -1.1381 -3.6633
 2228TIP3   OH2 6647   4.886   2.963   4.360  0.2290 -0.1992  0.3937
 2228TIP3    H1 6648   4.915   2.987   4.448  0.3393  1.7632 -0.1129
 2228TIP3    H2 6649   4.960   2.987   4.304 -0.8321  1.1232 -0.4924
 2229TIP3   OH2 6650   3.397   3.679   2.789  0.1334  0.0073 -0.6551
 2229TIP3    H1 6651   3.362   3.739   2.723 -0.9669  0.4103  0.2854
 2229TIP3    H2 6652   3.320   3.641   2.831  0.7725 -2.4352 -1.5200
 2230TIP3   OH2 6653   7.113   3.889   3.647 -0.6433  0.3929 -0.0367
 2230TIP3    H1 6654   7.043   3.890   3.712 -0.1673 -0.8602  0.5257
 2230TIP3    H2 6655   7.194   3.890   3.698 -0.2622 -0.3299 -0.5948
 2231TIP3   OH2 6656   2.972   0.229   4.151  0.3918  0.3653  0.8083
 2231TIP3    H1 6657   2.908   0.215   4.082  0.2037  1.6563  0.6972
 2231TIP3    H2 6658   3.052   0.187   4.119 -0.1891 -0.6593  0.6505
 2232TIP3   OH2 6659   2.281   3.261   2.924 -0.1042  0.2271  0.3009
 2232TIP3    H1 6660   2.239   3.199   2.984  0.3985 -1.2722 -0.8526
 2232TIP3    H2 6661   2.374   3.254   2.945 -0.0484  0.6300  0.1883
 2233TIP3   OH2 6662   1.170   6.440   3.275  0.0079 -0.1868 -0.1876
 2233TIP3    H1 6663   1.191   6.387   3.198 -0.6042 -1.1041  0.2725
 2233TIP3    H2 6664   1.246   6.497   3.286  0.0699  0.0391 -1.5262
 2234TIP3   OH2 6665   3.471   3.063   1.060  0.7437 -0.5672  0.5053
 2234TIP3    H1 6666   3.415   2.994   1.095 -0.0127 -0.5488 -0.6147
 2234TIP3    H2 6667   3.416   3.141   1.060  0.4894 -0.6924 -1.2446
 2235TIP3   OH2 6668   4.953   2.224   3.570 -0.3858  0.2628  0.0410
 2235TIP3    H1 6669   4.996   2.236   3.655 -0.2800 -0.0209  0.0280
 2235TIP3    H2 6670   4.881   2.288   3.571 -1.2674 -0.7027  0.9326
 2236TIP3   OH2 6671   2.890   2.306   5.550  0.2660 -0.3887  0.1124
 2236TIP3    H1 6672   2.907   2.345   5.635  1.5382 -1.4076  0.3656
 2236TIP3    H2 6673   2.977   2.280   5.518 -0.1442  0.1955 -1.6131
 2237TIP3   OH2 6674   3.994   5.434   2.888 -0.8570 -0.4716  0.1430
 2237TIP3    H1 6675   3.928   5.385   2.840 -0.3173 -1.8692  0.7590
 2237TIP3    H2 6676   3.944   5.496   2.942 -1.5577 -0.3581 -0.6274
 2238TIP3   OH2 6677   6.473   0.609   4.270  0.1671 -0.1141 -0.7592
 2238TIP3    H1 6678   6.441   0.630   4.182 -0.4694 -1.2771 -0.8286
 2238TIP3    H2 6679   6.551   0.663   4.281 -0.8086  1.4882 -1.2857
 2239TIP3   OH2 6680   1.274   5.320   5.528 -0.2031  0.3403  0.2732
 2239TIP3    H1 6681   1.244   5.322   5.438 -0.0433  1.1402  0.2321
 2239TIP3    H2 6682   1.317   5.234   5.537 -0.7148  0.0246 -0.2386
 2240TIP3   OH2 6683   3.162   6.423   1.686  0.4506 -0.0294  0.2569
 2240TIP3    H1 6684   3.225   6.405   1.616  1.1034  0.0758  0.8057
 2240TIP3    H2 6685   3.166   6.517   1.698  2.2916 -0.2789  2.1830
 2241TIP3   OH2 6686   1.333   3.869   5.768  0.3368  0.2368  0.6035
 2241TIP3    H1 6687   1.342   3.824   5.852  0.4037 -0.1008  0.4176
 2241TIP3    H2 6688   1.266   3.936   5.784  2.3692  2.1301  1.7289
 2242TIP3   OH2 6689   4.500   5.051   1.398 -0.3499  0.1826  0.7186
 2242TIP3    H1 6690   4.441   5.051   1.322 -1.0577 -0.3105  1.2476
 2242TIP3    H2 6691   4.468   5.123   1.452  0.3415  0.7261  0.4238
 2243TIP3   OH2 6692   2.409   2.682   5.780 -0.2406  0.6490  0.2057
 2243TIP3    H1 6693   2.449   2.741   5.844  1.6243  1.8162 -1.8529
 2243TIP3    H2 6694   2.468   2.606   5.777 -0.0043  0.8521 -0.4835
 2244TIP3   OH2 6695   6.378   6.546   4.018  0.0694 -0.2022  0.1996
 2244TIP3    H1 6696   6.308   6.481   4.027 -0.4661  0.5509  1.7464
 2244TIP3    H2 6697   6.435   6.530   4.093 -0.4093  1.4839  0.9747
 2245TIP3   OH2 6698   4.380   6.743   2.765  0.2749  0.1479  0.6912
 2245TIP3    H1 6699   4.409   6.676   2.703 -0.5997  1.6725 -1.4634
 2245TIP3    H2 6700   4.285   6.730   2.772  0.1052  1.0815  0.3031
 2246TIP3   OH2 6701   1.759   2.910   3.318 -0.6914  0.3016 -0.0029
 2246TIP3    H1 6702   1.714   2.826   3.312 -2.2195  1.0479  0.5303
 2246TIP3    H2 6703   1.779   2.932   3.227  0.0055 -0.7767 -0.1216
 2247TIP3   OH2 6704   4.347   4.974   4.625 -0.5952  0.1152 -0.1048
 2247TIP3    H1 6705   4.259   4.939   4.641 -0.9885  0.8206 -0.6478
 2247TIP3    H2 6706   4.339   5.068   4.644  0.1389  0.1188  0.2151
 2248TIP3   OH2 6707   2.620   4.315   2.790 -0.0591  0.3384  0.3510
 2248TIP3    H1 6708   2.587   4.395   2.831  0.2934  1.4423 -1.3934
 2248TIP3    H2 6709   2.546   4.282   2.738 -0.3634 -0.7857  1.4470
 2249TIP3   OH2 6710   0.273   4.318   3.298  0.6614  0.3239 -0.5484
 2249TIP3    H1 6711   0.349   4.335   3.354 -1.0966  1.8039  1.5360
 2249TIP3    H2 6712   0.259   4.223   3.306  0.9818  0.3776  0.8162
 2250TIP3   OH2 6713   4.896   1.095   3.777  0.1540  0.2527 -0.5087
 2250TIP3    H1 6714   4.815   1.126   3.818  0.9089 -0.1456  1.4264
 2250TIP3    H2 6715   4.935   1.174   3.739 -0.7481  0.5930 -0.7596
 2251TIP3   OH2 6716   4.025   0.300   3.426 -0.4206 -0.2601  0.0551
 2251TIP3    H1 6717   4.085   0.371   3.404 -0.0989 -0.5479 -0.0080
 2251TIP3    H2 6718   3.939   0.340   3.424 -0.0962  0.6732  2.1789
 2252TIP3   OH2 6719   2.925   2.031   4.135  0.1403  0.1382  0.8570
 2252TIP3    H1 6720   3.016   2.004   4.151 -0.0312 -0.5847  0.6753
 2252TIP3    H2 6721   2.932   2.110   4.082  0.6927  1.5631  2.9307
 2253TIP3   OH2 6722   3.686   4.858   5.124 -0.0113 -0.0489 -0.1313
 2253TIP3    H1 6723   3.646   4.913   5.057  0.3501  1.1207  0.5773
 2253TIP3    H2 6724   3.765   4.905   5.150  0.4551 -1.0476  0.3142
 2254TIP3   OH2 6725   6.248   4.348   5.862 -0.2715  0.0079  0.0646
 2254TIP3    H1 6726   6.284   4.285   5.799 -1.3298  0.2697 -0.8331
 2254TIP3    H2 6727   6.160   4.367   5.829 -1.2496 -0.5813  2.1628
 2255TIP3   OH2 6728   5.700   0.933   4.290  0.1344 -0.5645  0.1874
 2255TIP3    H1 6729   5.748   0.956   4.211 -0.7815  1.2206  0.1124
 2255TIP3    H2 6730   5.616   0.978   4.281 -0.1515 -0.6848  1.9739
 2256TIP3   OH2 6731   4.373   2.531   0.472 -0.0275 -0.7732 -0.2859
 2256TIP3    H1 6732   4.341   2.461   0.414  0.8824 -0.2923 -1.3863
 2256TIP3    H2 6733   4.293   2.577   0.499 -0.4740 -1.0261 -1.1331
 2257TIP3   OH2 6734   0.851   4.836   2.235 -0.0857  0.5204 -0.3377
 2257TIP3    H1 6735   0.899   4.919   2.238  2.4552 -0.7402 -2.4493
 2257TIP3    H2 6736   0.778   4.852   2.175 -0.3746  1.5355  0.2593
 2258TIP3   OH2 6737   6.731   4.860   1.030  0.1297  0.1582 -0.3601
 2258TIP3    H1 6738   6.674   4.785   1.019 -0.8762  0.8669 -0.1181
 2258TIP3    H2 6739   6.798   4.849   0.963  0.2857 -1.2003  0.0010
 2259TIP3   OH2 6740   1.198   2.244   2.359 -0.1393 -0.2511  0.0542
 2259TIP3    H1 6741   1.238   2.211   2.440  1.6727  0.4336 -0.5276
 2259TIP3    H2 6742   1.153   2.324   2.386  0.4019 -0.0569  0.4044
 2260TIP3   OH2 6743   3.385   2.349   3.298 -0.2839  0.1272  0.5905
 2260TIP3    H1 6744   3.436   2.281   3.341  2.4498  2.7702  1.9328
 2260TIP3    H2 6745   3.390   2.326   3.205  1.3003 -1.0684  0.9098
 2261TIP3   OH2 6746   2.163   0.698   0.723 -0.5046 -0.0048 -0.1127
 2261TIP3    H1 6747   2.125   0.697   0.810  0.8864 -2.1819  0.5694
 2261TIP3    H2 6748   2.155   0.788   0.693 -0.8159  0.8360  2.3486
 2262TIP3   OH2 6749   7.168   5.904   4.379  0.5715  0.0636  0.3060
 2262TIP3    H1 6750   7.202   5.985   4.341  1.0041 -0.2842 -0.0627
 2262TIP3    H2 6751   7.086   5.887   4.333  0.9744 -0.2289 -0.3184
 2263TIP3   OH2 6752   0.542   2.977   4.099 -0.4845 -0.2509  0.1502
 2263TIP3    H1 6753   0.621   2.995   4.150 -0.6167  0.3497  0.1428
 2263TIP3    H2 6754   0.569   2.910   4.036 -0.0619 -0.2626  0.3399
 2264TIP3   OH2 6755   3.854   4.051   4.766  0.1826 -0.0245  0.1126
 2264TIP3    H1 6756   3.949   4.053   4.765  0.2607 -0.8391  1.6930
 2264TIP3    H2 6757   3.832   3.988   4.835 -1.5001  0.8924  0.4859
 2265TIP3   OH2 6758   1.590   5.017   3.703  0.3362 -0.5370 -0.1520
 2265TIP3    H1 6759   1.585   5.105   3.665  0.0517  0.5391  2.1832
 2265TIP3    H2 6760   1.512   4.972   3.671  0.3097  0.1511 -1.1077
 2266TIP3   OH2 6761   6.816   1.594   5.740 -0.1049 -0.2230  0.5064
 2266TIP3    H1 6762   6.868   1.583   5.661 -1.1995 -2.1430 -0.0060
 2266TIP3    H2 6763   6.878   1.576   5.812  0.1900 -1.6566 -0.0628
 2267TIP3   OH2 6764   5.343   4.976   2.386  0.1157  0.2195  0.3541
 2267TIP3    H1 6765   5.428   5.005   2.355  0.8199  0.1622  2.0884
 2267TIP3    H2 6766   5.358   4.890   2.424 -1.2682 -0.9635 -1.6215
 2268TIP3   OH2 6767   3.213   5.982   1.264  0.5776 -0.6869  0.1226
 2268TIP3    H1 6768   3.151   6.053   1.253 -0.3873 -1.3611  1.0449
 2268TIP3    H2 6769   3.160   5.905   1.285  1.7610 -0.9685  2.4611
 2269TIP3   OH2 6770   4.868   5.512   5.352 -0.2489  0.6077  0.5149
 2269TIP3    H1 6771   4.806   5.458   5.402  0.0831 -0.4913 -0.2354
 2269TIP3    H2 6772   4.816   5.549   5.281 -0.6128  1.7945  1.3577
 2270TIP3   OH2 6773   5.694   3.630   0.431  0.3623 -0.2548 -0.2366
 2270TIP3    H1 6774   5.767   3.691   0.438 -0.2791  0.4327  0.7112
 2270TIP3    H2 6775   5.647   3.638   0.514 -1.2193 -0.1260 -1.0985
 2271TIP3   OH2 6776   3.321   2.986   4.776  0.7302  0.3307 -0.0308
 2271TIP3    H1 6777   3.373   3.033   4.711  2.0011 -0.6210  0.2727
 2271TIP3    H2 6778   3.299   3.052   4.841  2.9634  0.4576  0.6765
 2272TIP3   OH2 6779   6.318   2.369   1.116  0.2612 -0.2183 -0.6095
 2272TIP3    H1 6780   6.407   2.338   1.135 -0.0308 -1.1756 -0.7349
 2272TIP3    H2 6781   6.317   2.382   1.021  0.4426  0.4021 -0.5335
 2273TIP3   OH2 6782   3.217   4.334   3.602  0.2029  0.0919  0.6506
 2273TIP3    H1 6783   3.285   4.398   3.580  0.0329  0.1503  0.2695
 2273TIP3    H2 6784   3.136   4.376   3.573 -0.0823  0.3277  1.7581
 2274TIP3   OH2 6785   2.535   5.126   2.340 -0.8939 -0.5796 -0.0915
 2274TIP3    H1 6786   2.613   5.121   2.285 -0.8485 -1.4875  0.0360
 2274TIP3    H2 6787   2.564   5.172   2.419 -0.2783 -1.5186  0.2576
 2275TIP3   OH2 6788   4.432   2.518   0.034 -0.2709 -0.1714 -0.1789
 2275TIP3    H1 6789   4.373   2.584   0.070 -1.9301 -1.4308 -0.4708
 2275TIP3    H2 6790   4.491   2.567  -0.024 -1.4196  1.0560 -0.3409
 2276TIP3   OH2 6791   1.816   1.684   2.374 -0.4490  0.5005 -0.7920
 2276TIP3    H1 6792   1.751   1.749   2.399 -0.9601 -0.1381 -0.4025
 2276TIP3    H2 6793   1.829   1.632   2.453  1.3296  1.2545 -0.5606
 2277TIP3   OH2 6794   2.079   6.661   2.551  0.4165  0.4979  0.2026
 2277TIP3    H1 6795   2.066   6.732   2.488 -1.2604  0.3755  0.3641
 2277TIP3    H2 6796   2.047   6.583   2.505 -1.9438  0.5743  1.5234
 2278TIP3   OH2 6797   6.350   5.912   5.276 -0.1400 -0.6938  0.3907
 2278TIP3    H1 6798   6.316   5.978   5.338 -0.4477  0.1231 -0.6175
 2278TIP3    H2 6799   6.384   5.843   5.332 -2.5119 -1.0852  1.5114
 2279TIP3   OH2 6800   5.325   4.844   1.218 -0.3294  0.4735  0.4562
 2279TIP3    H1 6801   5.241   4.797   1.216 -0.1755  0.2100 -1.1565
 2279TIP3    H2 6802   5.385   4.787   1.169  0.4959  1.2022  0.6081
 2280TIP3   OH2 6803   4.301   0.936   1.813 -0.0383  0.5915  0.1144
 2280TIP3    H1 6804   4.308   0.893   1.728  1.3591 -1.9850  1.3975
 2280TIP3    H2 6805   4.209   0.960   1.821 -0.2649  0.5417 -1.9414
 2281TIP3   OH2 6806   4.435   5.482   5.069 -0.6540 -0.4058 -0.2942
 2281TIP3    H1 6807   4.504   5.460   5.131  0.2341 -0.9433 -1.4472
 2281TIP3    H2 6808   4.381   5.402   5.064 -0.2188 -0.6688 -0.8598
 2282TIP3   OH2 6809   4.319   4.616   5.789  0.0237  0.0585  0.1565
 2282TIP3    H1 6810   4.271   4.596   5.709  2.0362 -0.3152 -1.0400
 2282TIP3    H2 6811   4.321   4.712   5.793 -0.6442  0.0752  0.1227
 2283TIP3   OH2 6812   0.528   0.587   3.328 -0.0000 -0.1761  0.1213
 2283TIP3    H1 6813   0.569   0.620   3.408  1.5579  0.3897 -0.8678
 2283TIP3    H2 6814   0.434   0.599   3.343  0.2784  0.3879  1.6532
 2284TIP3   OH2 6815   3.777   2.686   5.304  0.5372  0.2424 -0.3471
 2284TIP3    H1 6816   3.811   2.689   5.215 -0.7006 -0.2302 -0.8500
 2284TIP3    H2 6817   3.782   2.594   5.330 -0.5897  0.1264 -0.5254
 2285TIP3   OH2 6818   1.328   5.768   0.650 -0.3993  0.0705 -0.2622
 2285TIP3    H1 6819   1.397   5.809   0.597 -1.8985  2.3621 -0.6021
 2285TIP3    H2 6820   1.264   5.738   0.586 -1.3824  1.2525  0.1300
 2286TIP3   OH2 6821   0.203   1.640   2.067  0.2880 -0.4237  0.5419
 2286TIP3    H1 6822   0.257   1.719   2.075 -0.5512  0.0972  1.1699
 2286TIP3    H2 6823   0.208   1.618   1.974  1.3724 -0.2464  0.5428
 2287TIP3   OH2 6824   6.652   0.393   0.042 -0.1927 -0.2182 -0.0063
 2287TIP3    H1 6825   6.622   0.344   0.119 -2.5281  0.6330 -0.2824
 2287TIP3    H2 6826   6.689   0.474   0.078 -1.3667  0.2224  0.2515
 2288TIP3   OH2 6827   0.695   0.026   2.681 -0.1691 -0.1512 -0.4755
 2288TIP3    H1 6828   0.608   0.014   2.720 -0.9815  2.7480 -1.1741
 2288TIP3    H2 6829   0.677   0.067   2.597  1.8712 -0.5402 -1.1392
 2289TIP3   OH2 6830   1.479   6.409   0.336  0.0463  0.4709  0.5512
 2289TIP3    H1 6831   1.413   6.417   0.267 -0.5212  2.2395  1.2477
 2289TIP3    H2 6832   1.467   6.487   0.390  1.3185 -0.2376  1.9296
 2290TIP3   OH2 6833   5.714   2.295   0.971 -0.7778  0.6078 -0.2057
 2290TIP3    H1 6834   5.710   2.353   0.895 -0.3986  0.4411 -0.3555
 2290TIP3    H2 6835   5.701   2.353   1.046  0.9123  1.1130 -0.2618
 2291TIP3   OH2 6836   2.415   6.255   3.146 -0.0717 -0.2157  0.1935
 2291TIP3    H1 6837   2.452   6.224   3.063 -2.0868 -1.4419 -0.3175
 2291TIP3    H2 6838   2.396   6.176   3.195 -0.5947  0.4328  1.0722
 2292TIP3   OH2 6839   4.055   5.357   1.351 -0.0912 -0.1044 -0.2615
 2292TIP3    H1 6840   4.075   5.438   1.399  0.6185 -0.4368  0.0119
 2292TIP3    H2 6841   3.961   5.348   1.359  0.0978 -0.7085  1.9864
 2293TIP3   OH2 6842   2.665   2.036   0.490  0.1204 -0.4212  0.0428
 2293TIP3    H1 6843   2.733   2.011   0.552 -1.4826 -1.8317  1.3172
 2293TIP3    H2 6844   2.584   2.038   0.542 -1.2822 -1.5374 -1.9382
 2294TIP3   OH2 6845   0.255   0.911   1.706 -0.1866 -0.0490 -0.1258
 2294TIP3    H1 6846   0.327   0.918   1.769 -0.5328 -1.6306  0.4895
 2294TIP3    H2 6847   0.297   0.902   1.621  0.4321 -2.2410  0.3527
 2295TIP3   OH2 6848   6.903   6.533   0.233  0.4216  0.1879  0.2996
 2295TIP3    H1 6849   6.872   6.624   0.229 -1.4904 -0.3148  1.8696
 2295TIP3    H2 6850   6.882   6.497   0.147 -2.5263  0.2233  0.8844
 2296TIP3   OH2 6851   0.293   2.848   0.266 -0.8101  0.1660 -0.4355
 2296TIP3    H1 6852   0.224   2.783   0.279 -0.1884 -0.3533  0.3697
 2296TIP3    H2 6853   0.372   2.796   0.250 -0.2087  0.7036  0.6912
 2297TIP3   OH2 6854   6.684   0.805   2.573 -0.5958 -0.1142 -0.7448
 2297TIP3    H1 6855   6.750   0.745   2.608  0.2951  0.4038 -1.4820
 2297TIP3    H2 6856   6.616   0.807   2.640  0.4134 -0.2172  0.3179
 2298TIP3   OH2 6857   5.444   1.255   4.947  0.2160 -0.7400 -0.3707
 2298TIP3    H1 6858   5.390   1.210   4.883 -1.4073  0.8982 -0.2504
 2298TIP3    H2 6859   5.468   1.338   4.905  1.0523 -0.6319  0.2879
 2299TIP3   OH2 6860   2.136   2.519   2.763 -0.0799  0.2437 -0.2723
 2299TIP3    H1 6861   2.209   2.458   2.772  0.2027  0.5147 -0.6752
 2299TIP3    H2 6862   2.067   2.468   2.720 -0.9629 -0.6744  2.0685
 2300TIP3   OH2 6863   2.098   2.020   5.307 -0.1809 -0.1235 -0.4465
 2300TIP3    H1 6864   2.067   1.929   5.303  1.2729 -0.6895  0.2324
 2300TIP3    H2 6865   2.109   2.046   5.216 -0.6292 -0.6331 -0.6468
 2301TIP3   OH2 6866   4.619   5.050   2.637 -0.3424 -0.2006 -0.6859
 2301TIP3    H1 6867   4.660   5.057   2.551  2.9576 -0.7470  0.7094
 2301TIP3    H2 6868   4.576   4.964   2.636 -1.0004  0.1185 -1.9956
 2302TIP3   OH2 6869   7.015   1.894   0.059  0.1335 -0.5838 -0.0336
 2302TIP3    H1 6870   7.085   1.914   0.122 -1.0814  0.6535  0.9846
 2302TIP3    H2 6871   6.942   1.865   0.114  0.0694 -2.7159 -1.1328
 2303TIP3   OH2 6872   6.737   6.404   4.806 -0.2677 -0.0679 -0.2139
 2303TIP3    H1 6873   6.767   6.314   4.822  1.9459  1.0312  2.8148
 2303TIP3    H2 6874   6.713   6.437   4.893 -1.5186  2.1250 -1.3071
 2304TIP3   OH2 6875   2.358   2.392   5.357 -0.1982  0.1681  0.3816
 2304TIP3    H1 6876   2.397   2.342   5.429  0.7854 -0.0378 -0.2703
 2304TIP3    H2 6877   2.264   2.378   5.366 -0.0023 -0.9805  0.8087
 2305TIP3   OH2 6878   5.148   0.515   1.894  0.0233  0.1666 -0.5723
 2305TIP3    H1 6879   5.123   0.430   1.857  1.4991 -0.1261 -0.9709
 2305TIP3    H2 6880   5.101   0.519   1.977 -2.1241  0.1490 -1.7258
 2306TIP3   OH2 6881   1.522   4.383   1.907  0.0580 -0.3286 -0.3592
 2306TIP3    H1 6882   1.583   4.323   1.949 -1.3717 -1.5854  0.0238
 2306TIP3    H2 6883   1.474   4.328   1.844 -0.1638  0.7825 -1.1951
 2307TIP3   OH2 6884   0.123   6.477   2.893  0.5529 -0.2767  0.9078
 2307TIP3    H1 6885   0.173   6.537   2.837  0.9684 -0.4844  1.0510
 2307TIP3    H2 6886   0.175   6.397   2.894  1.4042  0.2234  2.8715
 2308TIP3   OH2 6887   6.292   3.347   4.752 -0.1978 -0.0952  0.2196
 2308TIP3    H1 6888   6.281   3.307   4.665  2.5626 -0.6223  0.0185
 2308TIP3    H2 6889   6.308   3.439   4.734 -0.9559  0.0568  0.2895
 2309TIP3   OH2 6890   1.244   5.622   4.839  0.0491 -0.3882  0.7699
 2309TIP3    H1 6891   1.320   5.563   4.843 -0.0820 -0.6669 -0.4723
 2309TIP3    H2 6892   1.176   5.577   4.888  0.3781 -0.6228  1.0131
 2310TIP3   OH2 6893   5.983   5.313   3.601 -0.0667  0.4487 -0.1275
 2310TIP3    H1 6894   6.007   5.223   3.580 -0.0559  0.6801 -1.1789
 2310TIP3    H2 6895   6.055   5.347   3.654  1.2229  0.6595 -1.9513
 2311TIP3   OH2 6896   6.427   4.930   2.135  0.1024  0.3789  0.1332
 2311TIP3    H1 6897   6.429   4.879   2.054 -1.0121 -0.0095  0.3351
 2311TIP3    H2 6898   6.517   4.959   2.147  0.6698 -1.1324 -0.2509
 2312TIP3   OH2 6899   5.554   2.773   0.853 -0.0381  1.0803 -0.5481
 2312TIP3    H1 6900   5.640   2.813   0.869  1.1842 -1.5971  0.2324
 2312TIP3    H2 6901   5.493   2.830   0.900  1.6271  1.8108  0.8840
 2313TIP3   OH2 6902   5.005   2.094   2.438 -0.2242 -0.3601  0.1063
 2313TIP3    H1 6903   4.969   2.158   2.499 -1.2138  1.2444 -2.0202
 2313TIP3    H2 6904   5.099   2.097   2.451 -0.3524  0.6728  0.8507
 2314TIP3   OH2 6905   5.599   2.514   0.817  0.2206  0.5963 -0.5130
 2314TIP3    H1 6906   5.510   2.479   0.823  0.2912  0.6814  3.9390
 2314TIP3    H2 6907   5.587   2.609   0.807 -0.1938  0.5668 -0.3237
 2315TIP3   OH2 6908   4.146   1.852   1.991  0.0659 -0.2758 -0.2427
 2315TIP3    H1 6909   4.095   1.927   2.023  1.1257  0.2428  0.2715
 2315TIP3    H2 6910   4.098   1.775   2.023 -0.3245  0.2030  0.3430
 2316TIP3   OH2 6911   3.712   0.532   0.927  0.3031 -0.4722  0.2217
 2316TIP3    H1 6912   3.715   0.565   0.837  0.0193 -1.4453 -0.1545
 2316TIP3    H2 6913   3.717   0.611   0.982  1.7067  0.0583 -0.6245
 2317TIP3   OH2 6914   1.860   1.967   4.370 -0.2677 -0.0996  0.1837
 2317TIP3    H1 6915   1.775   1.949   4.410  0.6807 -0.2202  2.2869
 2317TIP3    H2 6916   1.917   1.990   4.444  1.4574  0.2637 -1.1896
 2318TIP3   OH2 6917   1.782   5.619   5.857 -0.0098  0.3680  0.2779
 2318TIP3    H1 6918   1.726   5.683   5.899 -0.6633  0.1226 -0.1901
 2318TIP3    H2 6919   1.753   5.617   5.766  0.7167  0.1844  0.0368
 2319TIP3   OH2 6920   1.466   3.154   3.907  0.1439  0.2266  0.2517
 2319TIP3    H1 6921   1.418   3.236   3.920  0.6462  0.3217  1.6759
 2319TIP3    H2 6922   1.406   3.086   3.936  0.6032  0.2949  1.4020
 2320TIP3   OH2 6923   2.725   0.313   3.105  0.0631  0.3477  0.1828
 2320TIP3    H1 6924   2.788   0.350   3.166  0.8610 -1.8764  0.8321
 2320TIP3    H2 6925   2.777   0.287   3.030 -0.1505 -0.9059  0.4402
 2321TIP3   OH2 6926   6.432   4.460   0.208 -0.3587 -0.1533 -0.5027
 2321TIP3    H1 6927   6.353   4.495   0.250 -0.4736 -0.5649 -0.3717
 2321TIP3    H2 6928   6.443   4.514   0.130 -0.6664  0.0270 -0.4240
 2322TIP3   OH2 6929   6.019   4.734   1.164 -0.1777  0.2554 -0.1091
 2322TIP3    H1 6930   6.104   4.690   1.161 -1.4062 -2.2648 -0.9437
 2322TIP3    H2 6931   6.021   4.794   1.089  0.3717 -0.8681 -1.0476
 2323TIP3   OH2 6932   0.979   0.206   3.005 -0.1632  0.0749 -0.2205
 2323TIP3    H1 6933   0.999   0.270   3.073 -0.3381 -1.3552  1.2669
 2323TIP3    H2 6934   1.063   0.166   2.984 -0.2268 -0.0817 -0.1836
 2324TIP3   OH2 6935   6.520   2.412   5.858 -0.0302  0.3087  0.4986
 2324TIP3    H1 6936   6.462   2.438   5.930 -1.6645 -1.6374 -0.0110
 2324TIP3    H2 6937   6.562   2.493   5.830 -2.5804  1.8776  0.8480
 2325TIP3   OH2 6938   2.395   4.858   5.705  0.3700  0.0942  0.0867
 2325TIP3    H1 6939   2.362   4.864   5.616  1.5540  0.5758 -0.3348
 2325TIP3    H2 6940   2.450   4.935   5.716  1.7684 -0.9314  0.5855
 2326TIP3   OH2 6941   5.401   6.514   2.704  0.8625 -0.1253  0.5672
 2326TIP3    H1 6942   5.461   6.490   2.634  0.4341 -1.5366  0.6450
 2326TIP3    H2 6943   5.348   6.585   2.668  2.0847  0.6670  0.2611
 2327TIP3   OH2 6944   4.632   0.291   3.944  0.1835  0.0394 -0.3126
 2327TIP3    H1 6945   4.658   0.308   4.035 -0.3701 -1.5190  0.1751
 2327TIP3    H2 6946   4.701   0.331   3.891  0.5149  0.9843  0.7777
 2328TIP3   OH2 6947   5.428   6.419   5.029 -0.1371  0.0112  0.2520
 2328TIP3    H1 6948   5.501   6.390   4.974 -0.8480 -0.9774 -0.2097
 2328TIP3    H2 6949   5.466   6.483   5.088  0.7849  0.6792 -1.0187
 2329TIP3   OH2 6950   6.650   3.531   4.968  0.2969  0.0708 -0.3913
 2329TIP3    H1 6951   6.574   3.582   4.995  1.1366  1.0393  0.2320
 2329TIP3    H2 6952   6.724   3.571   5.014  1.0784 -1.3804 -0.3056
 2330TIP3   OH2 6953   0.531   4.882   0.871 -0.1356  0.7935 -0.0486
 2330TIP3    H1 6954   0.451   4.829   0.873  1.6403 -2.2885 -2.3053
 2330TIP3    H2 6955   0.504   4.963   0.828 -2.6191  1.2409  2.0804
 2331TIP3   OH2 6956   3.493   0.172   4.508 -0.3971  0.2329  0.1399
 2331TIP3    H1 6957   3.451   0.102   4.558 -0.2382  1.7353  2.5278
 2331TIP3    H2 6958   3.467   0.253   4.553  0.1974  1.6725 -1.9432
 2332TIP3   OH2 6959   6.131   5.831   2.470  0.2207  0.2396  0.3719
 2332TIP3    H1 6960   6.208   5.807   2.418  0.2870  2.1221 -0.4691
 2332TIP3    H2 6961   6.063   5.770   2.442  0.5913  0.4544 -1.0888
 2333TIP3   OH2 6962   2.973   4.118   1.823  0.1329  0.8193  0.3016
 2333TIP3    H1 6963   3.008   4.114   1.912  2.9108  0.5082 -0.7055
 2333TIP3    H2 6964   2.964   4.211   1.804 -2.1302  0.8920  1.4267
 2334TIP3   OH2 6965   2.160   6.680   0.024 -0.1424 -0.8128 -0.5554
 2334TIP3    H1 6966   2.207   6.693   0.106 -0.8548  0.3276 -0.3055
 2334TIP3    H2 6967   2.086   6.740   0.029 -0.5462 -1.1809 -1.7655
 2335TIP3   OH2 6968   1.781   5.649   2.292  0.5506  0.1562 -0.2735
 2335TIP3    H1 6969   1.762   5.564   2.252  3.3941 -1.2021  1.0039
 2335TIP3    H2 6970   1.730   5.650   2.373  0.0134 -0.0252 -0.6030
 2336TIP3   OH2 6971   6.813   4.552   2.700 -0.3630  0.0677 -0.3789
 2336TIP3    H1 6972   6.812   4.646   2.683 -1.7081 -0.4250 -3.6051
 2336TIP3    H2 6973   6.906   4.527   2.695 -0.2694  0.6980 -3.4669
 2337TIP3   OH2 6974   5.617   6.624   3.709  0.1237 -0.1224 -0.2699
 2337TIP3    H1 6975   5.558   6.698   3.695 -1.5489 -1.0144  1.5448
 2337TIP3    H2 6976   5.669   6.648   3.785  1.0876  0.0389 -0.9637
 2338TIP3   OH2 6977   5.868   6.541   2.205  0.1879  0.9729  0.1471
 2338TIP3    H1 6978   5.861   6.633   2.180  0.7198  1.0358  0.2190
 2338TIP3    H2 6979   5.779   6.507   2.197 -0.2509  1.7997  1.3709
 2339TIP3   OH2 6980   1.022   5.089   5.777  0.3630 -0.3009  0.1763
 2339TIP3    H1 6981   1.081   5.051   5.712  0.1636 -3.0024  1.4321
 2339TIP3    H2 6982   0.953   5.024   5.788 -0.2467  0.6112  2.2249
 2340TIP3   OH2 6983   0.448   1.348   4.742  0.0761  0.3032 -0.0390
 2340TIP3    H1 6984   0.386   1.328   4.813 -1.2814  0.4269 -1.1603
 2340TIP3    H2 6985   0.414   1.428   4.702  1.6932  1.1222  0.1054
 2341TIP3   OH2 6986   3.059   2.943   3.086  0.3980 -0.0142  0.5346
 2341TIP3    H1 6987   3.016   2.868   3.045 -0.1118 -0.2815  1.5251
 2341TIP3    H2 6988   3.061   3.010   3.017 -0.8614 -0.2850  0.2004
 2342TIP3   OH2 6989  -0.030   5.609   2.400 -0.1600  0.2354 -0.4783
 2342TIP3    H1 6990   0.059   5.575   2.394 -0.3090  0.1399 -2.6501
 2342TIP3    H2 6991  -0.019   5.698   2.433  0.7286  0.1870 -0.6151
 2343TIP3   OH2 6992   7.141   6.823   2.822  0.1484  0.1364 -0.4187
 2343TIP3    H1 6993   7.119   6.732   2.802  1.1976 -0.1862 -0.1778
 2343TIP3    H2 6994   7.064   6.858   2.866  0.2472 -1.0446  0.7312
 2344TIP3   OH2 6995   3.890   1.965   1.190  0.3699 -0.7986  0.4761
 2344TIP3    H1 6996   3.815   2.007   1.233  0.3815  0.0303 -0.2775
 2344TIP3    H2 6997   3.859   1.879   1.165  0.2008 -1.1042  1.6790
 2345TIP3   OH2 6998   5.255   3.648   5.509  0.4403 -0.0894 -0.1415
 2345TIP3    H1 6999   5.191   3.604   5.564 -1.7944  2.0849 -0.8420
 2345TIP3    H2 7000   5.249   3.602   5.425  2.0531 -1.7926  0.5976
 2346TIP3   OH2 7001   2.910   0.061   5.758 -0.1497 -0.0846  1.1408
 2346TIP3    H1 7002   2.992   0.018   5.733 -0.9694 -0.7183 -0.6132
 2346TIP3    H2 7003   2.933   0.152   5.773  1.1566 -0.5796  2.3006
 2347TIP3   OH2 7004   2.070   5.534   3.122  0.0307  0.2054  0.2605
 2347TIP3    H1 7005   2.116   5.503   3.044 -0.8191  0.7101 -0.4563
 2347TIP3    H2 7006   2.119   5.495   3.196  0.3282 -0.9835 -0.5313
 2348TIP3   OH2 7007   4.372   0.429   4.207  0.5725  0.0943  0.3004
 2348TIP3    H1 7008   4.291   0.443   4.257 -0.0202 -0.8378 -0.3698
 2348TIP3    H2 7009   4.405   0.518   4.190 -0.9386  0.5578 -0.4241
 2349TIP3   OH2 7010   4.677   0.879   2.209 -0.2691 -0.4758 -0.1326
 2349TIP3    H1 7011   4.660   0.969   2.179  1.1105  0.4784  1.7729
 2349TIP3    H2 7012   4.714   0.835   2.133 -2.6990 -0.0557 -1.6888
 2350TIP3   OH2 7013   3.693   2.180   2.152 -0.0765 -0.1430 -0.0512
 2350TIP3    H1 7014   3.715   2.167   2.059  0.2558  0.9628 -0.1370
 2350TIP3    H2 7015   3.599   2.162   2.157  0.0539 -0.9993 -0.4432
 2351TIP3   OH2 7016   3.822   3.056   0.255  0.0362  0.1640  0.7448
 2351TIP3    H1 7017   3.913   3.029   0.270  0.1613 -2.3958 -3.2141
 2351TIP3    H2 7018   3.770   2.984   0.293 -0.1058 -0.3843 -0.4511
 2352TIP3   OH2 7019   5.792   0.341   3.716  0.1964 -0.3283 -0.2789
 2352TIP3    H1 7020   5.809   0.330   3.809  0.7339 -1.6098 -0.5014
 2352TIP3    H2 7021   5.823   0.259   3.676  0.6158  0.4651 -1.6646
 2353TIP3   OH2 7022   5.498   4.256   1.576  0.4512 -0.2981  0.6947
 2353TIP3    H1 7023   5.516   4.162   1.571 -0.0767 -0.4745  1.8206
 2353TIP3    H2 7024   5.403   4.262   1.584  0.5534  0.2803  1.5781
 2354TIP3   OH2 7025   0.835   0.240   3.656  0.5658 -0.5852  0.1874
 2354TIP3    H1 7026   0.805   0.284   3.576  0.5181 -0.8960  0.0339
 2354TIP3    H2 7027   0.784   0.280   3.726  0.9435  0.0271  0.1249
 2355TIP3   OH2 7028   1.499   6.248   2.049 -0.1076 -0.4250 -0.1835
 2355TIP3    H1 7029   1.482   6.158   2.020 -0.1231 -0.1842 -0.9315
 2355TIP3    H2 7030   1.425   6.268   2.107 -0.3403 -0.7408 -0.3635
 2356TIP3   OH2 7031   6.181   5.796   5.073 -0.8158 -0.2650 -0.0113
 2356TIP3    H1 7032   6.242   5.836   5.135 -0.1793 -1.8107  0.4067
 2356TIP3    H2 7033   6.148   5.869   5.021 -0.6199  0.9374  1.4958
 2357TIP3   OH2 7034   0.585   0.627   1.587  0.4025  0.0861  0.4076
 2357TIP3    H1 7035   0.675   0.658   1.584  0.0018  1.2309 -1.0224
 2357TIP3    H2 7036   0.574   0.593   1.676  1.4261  2.3878  1.4991
 2358TIP3   OH2 7037   6.500   3.516   5.427 -0.0158 -0.6125 -0.0197
 2358TIP3    H1 7038   6.449   3.448   5.471 -0.6998  0.3218  0.6622
 2358TIP3    H2 7039   6.435   3.577   5.393  0.6304  0.3094  0.3754
 2359TIP3   OH2 7040   6.954   3.397   4.738 -0.5092 -0.1445 -0.1565
 2359TIP3    H1 7041   6.994   3.430   4.818  2.0558 -1.3245 -0.8664
 2359TIP3    H2 7042   7.017   3.415   4.669 -0.8390 -2.6463 -1.2464
 2360TIP3   OH2 7043   2.743   2.367   5.304  0.6311 -0.2910  0.0055
 2360TIP3    H1 7044   2.700   2.450   5.323  0.9714 -0.2241  0.5201
 2360TIP3    H2 7045   2.784   2.342   5.387  2.8443  0.3876 -0.7953
 2361TIP3   OH2 7046   3.596   4.385   0.211 -0.5323 -0.2253  0.1992
 2361TIP3    H1 7047   3.682   4.423   0.190 -0.2283  0.3516  2.2023
 2361TIP3    H2 7048   3.543   4.400   0.133  0.4685  1.6798 -0.1836
 2362TIP3   OH2 7049   1.943   5.148   0.932 -0.0817 -0.4536  0.1631
 2362TIP3    H1 7050   1.939   5.222   0.871 -0.4940  0.3433  1.1218
 2362TIP3    H2 7051   1.999   5.180   1.003  0.0333 -1.2093  0.4192
 2363TIP3   OH2 7052   2.906   0.775   4.352 -0.0962  0.4528 -0.6159
 2363TIP3    H1 7053   2.953   0.850   4.387  1.6749 -0.2469 -1.3874
 2363TIP3    H2 7054   2.839   0.813   4.296  1.4459  1.4912 -1.8374
 2364TIP3   OH2 7055   3.697   3.382   3.777  0.1269  1.0599 -0.2914
 2364TIP3    H1 7056   3.664   3.303   3.820  1.5816  0.4086 -0.3174
 2364TIP3    H2 7057   3.728   3.437   3.848  3.3371 -0.3832 -0.4003
 2365TIP3   OH2 7058   5.943   1.179   5.158  0.6256 -0.4944 -0.0678
 2365TIP3    H1 7059   5.971   1.270   5.153  0.1293 -0.3053  0.4779
 2365TIP3    H2 7060   5.849   1.182   5.139  0.4911 -0.8160  0.5266
 2366TIP3   OH2 7061   5.959   6.230   3.024 -0.5751 -0.4615  0.0412
 2366TIP3    H1 7062   5.916   6.157   2.977 -0.1194  0.6117 -2.1901
 2366TIP3    H2 7063   6.039   6.192   3.059 -0.1577 -0.9980 -1.4176
 2367TIP3   OH2 7064   6.028   3.851   3.414 -0.1471 -0.5687 -0.0957
 2367TIP3    H1 7065   6.076   3.885   3.490 -0.3064  1.1208 -0.7139
 2367TIP3    H2 7066   5.936   3.851   3.441 -0.2421  0.3836 -0.4037
 2368TIP3   OH2 7067   0.889   4.751   3.846  0.1003 -0.4052  0.1107
 2368TIP3    H1 7068   0.867   4.838   3.879  0.8318 -0.1798  0.0165
 2368TIP3    H2 7069   0.833   4.740   3.769 -1.2812 -0.7446  1.1167
 2369TIP3   OH2 7070   1.667   3.987   5.324  0.2690 -0.7147  0.5320
 2369TIP3    H1 7071   1.756   4.024   5.319  0.2517 -0.7190  0.1765
 2369TIP3    H2 7072   1.680   3.899   5.360  0.4349 -0.8147  0.2261
 2370TIP3   OH2 7073   2.476   4.181   3.291 -0.4589  0.0219 -0.2446
 2370TIP3    H1 7074   2.544   4.122   3.259 -0.3624 -0.1948  0.3588
 2370TIP3    H2 7075   2.427   4.206   3.212  1.5105  1.7654 -1.0180
 2371TIP3   OH2 7076   4.307   5.871   0.880 -0.3601  0.0359 -0.0472
 2371TIP3    H1 7077   4.363   5.929   0.932 -0.7674 -0.0937  0.5435
 2371TIP3    H2 7078   4.218   5.896   0.904 -0.5455 -1.3536  0.7985
 2372TIP3   OH2 7079   0.788   0.936   2.999 -0.4103 -0.0909 -0.0392
 2372TIP3    H1 7080   0.860   0.875   2.986 -0.3338 -0.3877  1.4906
 2372TIP3    H2 7081   0.768   0.929   3.093 -0.7302  1.8697  0.0859
 2373TIP3   OH2 7082   2.803   5.482   5.742  0.7339 -0.3741  0.3048
 2373TIP3    H1 7083   2.746   5.507   5.814  0.5191 -1.0177  0.3591
 2373TIP3    H2 7084   2.780   5.391   5.723  0.3479 -0.0447 -0.9700
 2374TIP3   OH2 7085   3.579   4.271   1.756 -0.4755 -0.2880  0.5126
 2374TIP3    H1 7086   3.492   4.282   1.717 -1.3897 -1.4243  2.1318
 2374TIP3    H2 7087   3.592   4.351   1.807 -0.7464 -0.2864  0.5833
 2375TIP3   OH2 7088   4.390   6.148   3.749 -0.1859  0.2016 -0.2745
 2375TIP3    H1 7089   4.330   6.222   3.755  1.0150  1.2114 -0.1845
 2375TIP3    H2 7090   4.347   6.078   3.797 -0.9750  1.1169  0.3884
 2376TIP3   OH2 7091   1.793   1.135   0.361 -0.2091 -0.1170  0.4000
 2376TIP3    H1 7092   1.801   1.101   0.450 -1.4830 -2.0402 -0.1577
 2376TIP3    H2 7093   1.775   1.058   0.307  2.9456  0.6015 -1.9647
 2377TIP3   OH2 7094   7.207   5.897   1.228 -0.3766 -0.2944  0.2859
 2377TIP3    H1 7095   7.216   5.960   1.300 -0.7470 -1.0201  0.9820
 2377TIP3    H2 7096   7.161   5.946   1.159  0.3447  0.5301  0.3759
 2378TIP3   OH2 7097   7.173   1.818   5.774  0.3312  0.7710  0.3160
 2378TIP3    H1 7098   7.240   1.813   5.842  0.9667  0.6108 -0.3066
 2378TIP3    H2 7099   7.200   1.891   5.719  1.0528 -0.4390 -1.0157
 2379TIP3   OH2 7100   1.498   4.992   4.559  0.2792 -0.4665  0.1129
 2379TIP3    H1 7101   1.455   4.928   4.502 -1.6434  0.9356 -0.1313
 2379TIP3    H2 7102   1.557   5.040   4.501 -0.3741 -0.1977 -0.3437
 2380TIP3   OH2 7103   0.447   6.155   1.138  0.3421 -0.1471 -0.0406
 2380TIP3    H1 7104   0.403   6.074   1.164  0.8909 -0.2049  0.7404
 2380TIP3    H2 7105   0.466   6.200   1.221  0.9437  0.2981 -0.4116
 2381TIP3   OH2 7106   2.344   0.019   5.485  0.2941 -0.5316 -0.2669
 2381TIP3    H1 7107   2.254  -0.001   5.507 -0.3581  1.5298 -0.7881
 2381TIP3    H2 7108   2.380   0.061   5.563  0.9049 -1.5933  0.0366
 2382TIP3   OH2 7109   3.489   6.768   1.765 -0.4324  0.4480 -0.0267
 2382TIP3    H1 7110   3.455   6.856   1.776 -0.1491  0.5527  0.0289
 2382TIP3    H2 7111   3.465   6.743   1.675  1.0286  1.2806 -0.6929
 2383TIP3   OH2 7112   5.745   6.777   2.098 -0.4121  0.0954 -0.8799
 2383TIP3    H1 7113   5.667   6.817   2.136 -0.2694  1.6556 -2.1093
 2383TIP3    H2 7114   5.711   6.716   2.033 -0.6180  0.1094 -0.7862
 2384TIP3   OH2 7115   2.403   1.853   0.865 -0.5187 -0.3190  0.0913
 2384TIP3    H1 7116   2.320   1.820   0.897  0.2707 -0.7636  1.8441
 2384TIP3    H2 7117   2.422   1.929   0.921  0.8579 -1.0310  0.6494
 2385TIP3   OH2 7118   1.512   6.629   2.158 -0.1019  0.0137  0.3501
 2385TIP3    H1 7119   1.475   6.713   2.131  0.5144  0.1099 -0.2270
 2385TIP3    H2 7120   1.590   6.653   2.209 -1.9887 -0.1020  3.5641
 2386TIP3   OH2 7121   4.320   3.831   4.747  0.1462 -0.2228 -0.0577
 2386TIP3    H1 7122   4.360   3.785   4.673  1.8564 -0.6188  1.0579
 2386TIP3    H2 7123   4.310   3.763   4.814 -0.5808  0.3212  0.3951
 2387TIP3   OH2 7124   7.078   5.714   1.442  0.3679  0.1883  0.3650
 2387TIP3    H1 7125   7.112   5.733   1.355  0.4866  2.0032  0.7706
 2387TIP3    H2 7126   7.029   5.633   1.431 -1.7958  1.6652 -2.0120
 2388TIP3   OH2 7127   1.466   2.981   1.867  0.1501 -0.0120  0.4812
 2388TIP3    H1 7128   1.395   3.040   1.841  0.0660 -0.1992  0.2808
 2388TIP3    H2 7129   1.460   2.908   1.806  2.3529  1.2978 -1.4515
 2389TIP3   OH2 7130   4.765   1.338   1.823 -0.0023  0.0163  0.2949
 2389TIP3    H1 7131   4.679   1.378   1.839 -1.5754 -2.3442 -1.4758
 2389TIP3    H2 7132   4.799   1.384   1.746  0.1712  0.6757  0.7519
 2390TIP3   OH2 7133   1.770   3.881   4.722  0.5141 -0.2523  0.3289
 2390TIP3    H1 7134   1.696   3.824   4.744 -0.6285  0.7421 -0.7381
 2390TIP3    H2 7135   1.840   3.855   4.781 -0.6231 -1.3932  1.2127
 2391TIP3   OH2 7136   2.246   1.104   5.633 -0.1482  1.0588  0.2568
 2391TIP3    H1 7137   2.230   1.199   5.634 -1.3333  0.8811  1.2801
 2391TIP3    H2 7138   2.203   1.072   5.712 -1.0566 -0.5270 -0.8219
 2392TIP3   OH2 7139   0.152   2.472   3.880  0.1016  0.5356 -0.4265
 2392TIP3    H1 7140   0.213   2.535   3.918 -0.0062  0.4286 -0.0682
 2392TIP3    H2 7141   0.071   2.522   3.868  0.0346  0.4837 -0.1996
 2393TIP3   OH2 7142   6.143   2.408   2.211  0.1416  0.1036 -0.0263
 2393TIP3    H1 7143   6.150   2.416   2.115  2.0024  0.7365  0.1322
 2393TIP3    H2 7144   6.197   2.479   2.245 -0.0039 -0.4927  1.5147
 2394TIP3   OH2 7145   1.001   2.216   1.975  0.2501 -0.2221  0.1637
 2394TIP3    H1 7146   1.014   2.148   2.042 -1.3076 -0.1714  0.5387
 2394TIP3    H2 7147   1.026   2.297   2.019 -1.0253 -0.1557  0.7858
 2395TIP3   OH2 7148   3.520   5.996   1.581  0.4244 -0.6682 -0.3170
 2395TIP3    H1 7149   3.434   5.971   1.613  0.8324 -1.4622  0.1984
 2395TIP3    H2 7150   3.511   5.996   1.486 -0.3558  0.0693 -0.2534
 2396TIP3   OH2 7151   0.410   6.760   0.340 -0.4353  0.5818 -0.5184
 2396TIP3    H1 7152   0.423   6.665   0.344  2.7163  0.9213  2.5990
 2396TIP3    H2 7153   0.331   6.776   0.391 -1.1665 -0.3449 -1.3257
 2397TIP3   OH2 7154   2.054   5.678   2.408 -0.1561 -0.1899 -0.4654
 2397TIP3    H1 7155   1.971   5.673   2.360 -0.5650  2.2439 -0.1619
 2397TIP3    H2 7156   2.048   5.610   2.475 -1.9145 -0.0747 -0.4657
 2398TIP3   OH2 7157   0.569   5.381   1.418 -0.1288 -0.4036  0.6753
 2398TIP3    H1 7158   0.555   5.476   1.424 -0.0419 -0.4043  0.9003
 2398TIP3    H2 7159   0.645   5.371   1.361 -1.5990 -0.4380 -1.4110
 2399TIP3   OH2 7160   1.917   1.325   1.089 -0.2269 -0.4964 -0.0965
 2399TIP3    H1 7161   1.882   1.323   1.178  0.0655 -0.1875  0.0270
 2399TIP3    H2 7162   1.841   1.337   1.033 -0.3103  0.3181  0.1770
 2400TIP3   OH2 7163   0.422   0.947   3.323  0.5203 -0.2056  0.5161
 2400TIP3    H1 7164   0.435   0.939   3.418 -0.8662  0.1536  0.7532
 2400TIP3    H2 7165   0.336   0.987   3.314 -0.0746 -1.7122 -0.9289
 2401TIP3   OH2 7166   3.017   6.761   1.731  0.1623 -0.2671 -0.5069
 2401TIP3    H1 7167   3.092   6.719   1.772  0.5146  0.6101 -0.2173
 2401TIP3    H2 7168   2.963   6.792   1.804  1.1962  2.0182 -0.6039
 2402TIP3   OH2 7169   7.097   2.037   2.160  0.1536 -0.2012  0.3329
 2402TIP3    H1 7170   7.060   2.122   2.181  1.2077  1.0047 -2.2726
 2402TIP3    H2 7171   7.084   1.985   2.240 -2.0610  1.8140  1.4235
 2403TIP3   OH2 7172   2.009   1.026   1.742 -0.3846 -0.6782  0.1631
 2403TIP3    H1 7173   1.946   1.005   1.811 -0.6453  0.0689  0.1556
 2403TIP3    H2 7174   2.089   0.981   1.768 -0.6335 -0.8240  0.6827
 2404TIP3   OH2 7175   6.095   3.603   0.590 -0.3890 -0.9738 -0.4284
 2404TIP3    H1 7176   6.119   3.650   0.510 -2.1756  1.2204  0.2327
 2404TIP3    H2 7177   6.079   3.513   0.561 -1.2913 -0.1804 -2.5956
 2405TIP3   OH2 7178   6.365   1.786   2.461 -0.2379 -0.6489 -0.0407
 2405TIP3    H1 7179   6.370   1.694   2.435 -0.3236 -0.8141  0.5057
 2405TIP3    H2 7180   6.428   1.831   2.405 -0.6004 -0.9493 -0.7005
 2406TIP3   OH2 7181   0.501   5.473   1.750  0.2631  0.3241  0.7886
 2406TIP3    H1 7182   0.483   5.385   1.783  0.1448 -0.0440 -0.2394
 2406TIP3    H2 7183   0.427   5.493   1.692  0.7086  0.7596  0.3598
 2407TIP3   OH2 7184   4.209   0.938   3.699 -0.4333  0.2051  0.1415
 2407TIP3    H1 7185   4.157   1.016   3.682  1.5794  1.3693 -1.1386
 2407TIP3    H2 7186   4.203   0.925   3.794 -2.5242  0.6108  0.0981
 2408TIP3   OH2 7187   0.953   6.821   2.679 -0.5262  0.4152  0.4125
 2408TIP3    H1 7188   0.922   6.751   2.738 -3.3937  1.5852  0.4606
 2408TIP3    H2 7189   0.974   6.775   2.597  0.1832 -0.7977  1.2394
 2409TIP3   OH2 7190   2.514   4.483   2.979  0.3883  0.0733 -0.0959
 2409TIP3    H1 7191   2.461   4.563   2.975 -0.9200 -0.7919 -0.8263
 2409TIP3    H2 7192   2.594   4.510   3.024  0.7257  2.2174 -1.7925
 2410TIP3   OH2 7193   0.412   5.052   1.210 -0.4514 -0.3991 -0.4506
 2410TIP3    H1 7194   0.404   5.050   1.305 -0.5905 -2.0555 -0.4646
 2410TIP3    H2 7195   0.498   5.090   1.193 -0.6250  0.3551  0.3061
 2411TIP3   OH2 7196   0.818   4.347   1.872 -0.1964 -0.2866  0.1526
 2411TIP3    H1 7197   0.793   4.269   1.823 -0.0598  0.2772 -0.8547
 2411TIP3    H2 7198   0.754   4.354   1.942 -2.1498  0.4281 -1.6022
 2412TIP3   OH2 7199   5.286   1.676   3.664  0.0508  0.1551  0.4986
 2412TIP3    H1 7200   5.359   1.674   3.726 -0.2986  0.6404  0.9332
 2412TIP3    H2 7201   5.218   1.726   3.709 -0.8157 -0.8798  0.3993
 2413TIP3   OH2 7202   3.517   1.831   4.005 -0.3216  0.3475 -0.6597
 2413TIP3    H1 7203   3.462   1.817   3.928  1.0482 -0.7945 -1.4802
 2413TIP3    H2 7204   3.603   1.854   3.969  0.7720 -1.7341  0.4323
 2414TIP3   OH2 7205   6.682   0.730   0.453  0.9177 -0.1023  0.0207
 2414TIP3    H1 7206   6.615   0.742   0.385 -0.6229 -1.0947  1.2828
 2414TIP3    H2 7207   6.764   0.719   0.404 -0.0894 -0.4763 -1.6750
 2415TIP3   OH2 7208   2.301   2.767   5.336  0.2997 -0.2949 -0.0037
 2415TIP3    H1 7209   2.285   2.788   5.244  0.1661 -1.7719 -0.3483
 2415TIP3    H2 7210   2.223   2.719   5.364 -0.0325  0.8473  1.1466
 2416TIP3   OH2 7211   4.587   4.733   1.131  0.0792  0.4341 -0.7868
 2416TIP3    H1 7212   4.673   4.702   1.103 -0.7662 -0.4826 -2.5218
 2416TIP3    H2 7213   4.573   4.814   1.083 -0.1440  0.4104 -0.7659
 2417TIP3   OH2 7214   2.066   2.656   0.010 -0.1489 -0.1025 -0.3363
 2417TIP3    H1 7215   2.039   2.726   0.070  0.0335 -2.1190  2.3102
 2417TIP3    H2 7216   2.159   2.672  -0.006 -0.4754  1.1246 -1.0668
 2418TIP3   OH2 7217   6.059   1.075   1.568  0.5546 -0.1882 -0.3329
 2418TIP3    H1 7218   6.055   1.034   1.654  0.6490  0.1067 -0.1846
 2418TIP3    H2 7219   6.045   1.169   1.585  0.1993 -0.1736 -0.6797
 2419TIP3   OH2 7220   1.727   5.977   2.198  0.4539 -0.4118 -0.4332
 2419TIP3    H1 7221   1.666   5.905   2.183 -0.9584  0.4021  1.0937
 2419TIP3    H2 7222   1.752   5.970   2.290  0.9773  0.5439 -0.4795
 2420TIP3   OH2 7223   6.316   0.996   0.124 -0.1251 -0.0044  0.1361
 2420TIP3    H1 7224   6.348   0.951   0.202  0.3087 -2.1286 -1.1651
 2420TIP3    H2 7225   6.382   0.975   0.057 -0.9541  0.9861 -1.0203
 2421TIP3   OH2 7226   2.481   1.771   5.587 -0.1228 -0.1437 -0.1527
 2421TIP3    H1 7227   2.528   1.690   5.609 -1.4852 -1.0049 -0.2854
 2421TIP3    H2 7228   2.550   1.834   5.567  0.9729 -1.4444 -0.6394
 2422TIP3   OH2 7229   5.828   2.258   5.267 -0.3721  0.1851 -0.1302
 2422TIP3    H1 7230   5.892   2.324   5.241 -0.1020 -0.7138 -1.8993
 2422TIP3    H2 7231   5.840   2.186   5.204  0.0658 -2.0338  2.2874
 2423TIP3   OH2 7232   0.619   0.706   4.162  0.1777  0.1740  0.5332
 2423TIP3    H1 7233   0.691   0.753   4.205  0.2162 -0.4114  1.1230
 2423TIP3    H2 7234   0.556   0.689   4.232  0.0515 -0.4297  0.2769
 2424TIP3   OH2 7235   5.046   5.476   2.437  0.5981  0.3611  0.1706
 2424TIP3    H1 7236   5.050   5.446   2.346  0.2028 -1.7629  0.8210
 2424TIP3    H2 7237   5.115   5.542   2.443  0.5510  0.6313 -1.6905
 2425TIP3   OH2 7238   6.812   3.200   2.740  0.1242 -0.9670 -0.2858
 2425TIP3    H1 7239   6.772   3.189   2.654 -2.9099  1.5866  0.5642
 2425TIP3    H2 7240   6.872   3.274   2.729 -1.3092  0.2940 -0.0308
 2426TIP3   OH2 7241   0.273   2.282   4.658 -0.0332 -0.2752 -0.2839
 2426TIP3    H1 7242   0.360   2.313   4.684 -0.4784  0.5782  0.2346
 2426TIP3    H2 7243   0.279   2.268   4.564  0.0600  1.9207 -0.6588
 2427TIP3   OH2 7244   0.276   0.284   2.935 -0.2117 -0.0065  0.0921
 2427TIP3    H1 7245   0.236   0.199   2.953 -0.5194 -0.2442 -1.5795
 2427TIP3    H2 7246   0.368   0.273   2.962 -0.4287 -0.6219  0.5901
 2428TIP3   OH2 7247   6.258   3.591   3.134 -0.1278 -0.0700 -0.5181
 2428TIP3    H1 7248   6.280   3.517   3.078  0.9239  0.0277 -0.2571
 2428TIP3    H2 7249   6.324   3.657   3.114  0.1825  0.0216  0.7249
 2429TIP3   OH2 7250   6.541   4.812   0.621 -0.0137  0.6717  0.1573
 2429TIP3    H1 7251   6.602   4.770   0.681  0.8826  1.2697 -0.3069
 2429TIP3    H2 7252   6.460   4.762   0.629  0.8721 -0.8493 -0.0528
 2430TIP3   OH2 7253   0.180   3.804   1.092 -0.2376 -0.4556 -0.0993
 2430TIP3    H1 7254   0.172   3.873   1.026 -2.5950 -1.5576 -1.0639
 2430TIP3    H2 7255   0.201   3.851   1.173 -1.2866  1.3383 -0.8067
 2431TIP3   OH2 7256   0.684   6.644   1.236  0.4715 -0.1165 -0.1445
 2431TIP3    H1 7257   0.631   6.598   1.301  0.2839  2.3494  1.5792
 2431TIP3    H2 7258   0.759   6.587   1.222  0.4625 -0.7999  2.1845
 2432TIP3   OH2 7259   4.083   3.923   3.001  0.3174  0.2189  0.0860
 2432TIP3    H1 7260   4.168   3.882   3.012 -0.1650 -1.1049 -0.8232
 2432TIP3    H2 7261   4.035   3.902   3.081  0.7536  0.7729  0.5002
 2433TIP3   OH2 7262   7.160   4.793   3.254  0.2527  0.4334 -0.0802
 2433TIP3    H1 7263   7.113   4.831   3.328 -1.1100 -1.7142  0.2614
 2433TIP3    H2 7264   7.232   4.744   3.293  1.2422  1.5805 -0.4179
 2434TIP3   OH2 7265   0.275   3.908   4.269  0.0681  0.2299 -0.2201
 2434TIP3    H1 7266   0.330   3.888   4.345  1.9463  0.8037 -1.3459
 2434TIP3    H2 7267   0.238   3.823   4.244  1.9445 -0.5747 -0.4829
 2435TIP3   OH2 7268   5.598   5.598   2.279  0.6430 -0.1675  0.3499
 2435TIP3    H1 7269   5.688   5.630   2.288  0.9327 -0.5069 -1.0932
 2435TIP3    H2 7270   5.608   5.506   2.252 -0.1311 -0.1431 -0.0492
 2436TIP3   OH2 7271   0.259   6.333   4.750  0.0031 -0.1536  0.1409
 2436TIP3    H1 7272   0.197   6.261   4.762  0.9701 -1.0987 -0.3163
 2436TIP3    H2 7273   0.275   6.366   4.838 -1.6931  0.6137  0.2004
 2437TIP3   OH2 7274   3.015   4.607   5.365 -0.7730 -0.2039  0.0964
 2437TIP3    H1 7275   3.005   4.639   5.454  0.7422  1.4561 -0.2696
 2437TIP3    H2 7276   3.053   4.520   5.374  1.5143  0.8412  1.0833
 2438TIP3   OH2 7277   1.572   3.424   5.385 -0.3447  0.4582  0.2019
 2438TIP3    H1 7278   1.622   3.349   5.417  1.7003  0.7038 -2.1259
 2438TIP3    H2 7279   1.498   3.386   5.339 -0.2113 -0.0542  0.4070
 2439TIP3   OH2 7280   0.823   0.834   0.479 -0.0718 -0.0623 -0.0248
 2439TIP3    H1 7281   0.756   0.767   0.468 -0.5073  0.4664 -0.6655
 2439TIP3    H2 7282   0.904   0.785   0.493 -0.8514 -0.7468  2.7166
 2440TIP3   OH2 7283   0.776   2.505   3.233  0.0932  0.0227 -0.4963
 2440TIP3    H1 7284   0.694   2.529   3.189 -0.0316 -0.7328 -0.6909
 2440TIP3    H2 7285   0.835   2.481   3.162 -0.1730 -1.4032 -0.2721
 2441TIP3   OH2 7286   4.300   5.829   0.022 -0.0018 -0.7151  0.2408
 2441TIP3    H1 7287   4.258   5.913   0.040  1.0194 -0.0311 -0.4624
 2441TIP3    H2 7288   4.236   5.781  -0.031 -1.1140 -0.9159  1.6969
 2442TIP3   OH2 7289   6.982   3.189   2.420  0.2789 -0.2080  0.0992
 2442TIP3    H1 7290   7.043   3.116   2.423  0.2979 -0.2238 -0.6058
 2442TIP3    H2 7291   7.008   3.245   2.493  0.7279 -0.5383  0.1936
 2443TIP3   OH2 7292   2.377   0.480   4.039  0.0515 -0.0302  0.4748
 2443TIP3    H1 7293   2.329   0.446   3.964  3.1540 -2.7271 -0.5278
 2443TIP3    H2 7294   2.342   0.432   4.114 -1.7179  1.2613  0.5369
 2444TIP3   OH2 7295   2.743   0.751   3.019  0.1677 -0.7052 -0.0523
 2444TIP3    H1 7296   2.729   0.803   3.098 -2.1662 -1.8122  0.3502
 2444TIP3    H2 7297   2.813   0.690   3.043  1.4914  0.8121  0.1462
 2445TIP3   OH2 7298   4.613   0.613   3.890  0.2656 -0.4341  0.0784
 2445TIP3    H1 7299   4.546   0.571   3.836 -0.2340 -1.5816  1.5451
 2445TIP3    H2 7300   4.690   0.557   3.880  0.2342 -0.5327  0.4004
 2446TIP3   OH2 7301   3.047   1.582   4.108  0.3993 -0.1943 -0.3140
 2446TIP3    H1 7302   3.091   1.618   4.031  0.1007 -0.3089 -0.5382
 2446TIP3    H2 7303   3.103   1.509   4.136  0.8403  0.2378 -0.0461
 2447TIP3   OH2 7304   4.051   0.737   2.741  0.0079  0.2911 -0.9131
 2447TIP3    H1 7305   3.971   0.772   2.781  0.5104  0.9199 -0.4294
 2447TIP3    H2 7306   4.094   0.690   2.812  0.3130  0.3786 -1.0399
 2448TIP3   OH2 7307   5.246   5.581   1.788 -0.5686 -0.5741  0.3684
 2448TIP3    H1 7308   5.327   5.546   1.825 -0.9089  0.2751  1.9973
 2448TIP3    H2 7309   5.205   5.506   1.744 -0.2353 -1.7070  1.9134
 2449TIP3   OH2 7310   1.660   6.747   0.820  0.1948 -0.8593  0.9745
 2449TIP3    H1 7311   1.611   6.678   0.776  1.8326 -1.0775 -0.6519
 2449TIP3    H2 7312   1.680   6.810   0.750 -0.3397  0.7472  2.2009
 2450TIP3   OH2 7313   5.439  -0.000   5.059  0.0708 -0.6524 -0.3258
 2450TIP3    H1 7314   5.449   0.095   5.049 -1.1435 -0.6633 -2.3347
 2450TIP3    H2 7315   5.432  -0.033   4.969 -1.9292 -2.3393  0.3689
 2451TIP3   OH2 7316   1.749   0.636   5.664 -0.0234 -0.4425  0.0564
 2451TIP3    H1 7317   1.803   0.575   5.614 -1.7297 -0.7097 -1.5696
 2451TIP3    H2 7318   1.810   0.680   5.723  1.4114 -3.0511  0.6635
 2452TIP3   OH2 7319   5.810   0.254   3.232 -0.0793 -0.2474 -0.4684
 2452TIP3    H1 7320   5.859   0.174   3.251 -0.0984 -0.3489 -0.8406
 2452TIP3    H2 7321   5.724   0.223   3.203 -0.7127 -0.0553  1.1160
 2453TIP3   OH2 7322   4.367   1.994   0.875  0.2894 -0.3319 -0.4305
 2453TIP3    H1 7323   4.438   2.016   0.936 -1.5956  0.1334  1.7342
 2453TIP3    H2 7324   4.373   2.061   0.806  1.6060  0.0184 -0.0026
 2454TIP3   OH2 7325   3.998   1.323   3.858  0.2732  0.3044  0.4273
 2454TIP3    H1 7326   4.036   1.405   3.890 -0.7064  0.6172  0.8259
 2454TIP3    H2 7327   3.994   1.267   3.935  2.3818 -0.7221 -0.1411
 2455TIP3   OH2 7328   5.122   6.019   5.457 -0.7788  0.8497 -0.2008
 2455TIP3    H1 7329   5.044   6.067   5.484 -1.6229 -0.6189  0.0431
 2455TIP3    H2 7330   5.135   5.953   5.525  0.5251  0.8732 -0.3886
 2456TIP3   OH2 7331   5.978   5.026   4.655 -0.1953  0.0625 -0.1708
 2456TIP3    H1 7332   5.984   5.121   4.660 -0.2473  0.0028  1.6602
 2456TIP3    H2 7333   5.884   5.009   4.646 -0.0641  0.2042 -2.1286
 2457TIP3   OH2 7334   2.778   4.765   3.768  0.3114  0.1218  0.0201
 2457TIP3    H1 7335   2.866   4.733   3.786 -0.1408 -0.5041  1.2547
 2457TIP3    H2 7336   2.743   4.788   3.854 -1.1613 -0.8162 -0.2959
 2458TIP3   OH2 7337   3.217   5.506   2.137 -0.1135  0.1007 -0.5760
 2458TIP3    H1 7338   3.310   5.486   2.144 -0.2349 -0.4529 -0.5052
 2458TIP3    H2 7339   3.209   5.595   2.171  0.5510  0.5761 -1.6277
 2459TIP3   OH2 7340   0.878   2.075   1.145  0.1120 -0.2993  0.0804
 2459TIP3    H1 7341   0.874   2.059   1.240 -0.3693 -0.4494  0.0343
 2459TIP3    H2 7342   0.823   2.007   1.107 -0.3900  0.2923 -0.2517
 2460TIP3   OH2 7343   2.008   3.098   0.107 -0.5155  0.3861 -0.7294
 2460TIP3    H1 7344   1.938   3.104   0.042 -1.1648  1.0911  0.0071
 2460TIP3    H2 7345   2.010   3.185   0.148 -0.1366 -0.0418  0.1941
 2461TIP3   OH2 7346   3.959   4.831   0.780  0.4609 -0.0173  0.1043
 2461TIP3    H1 7347   3.879   4.831   0.728  0.5650  1.8313 -0.1425
 2461TIP3    H2 7348   3.954   4.913   0.831  1.3964 -0.7009  1.3625
 2462TIP3   OH2 7349   1.941   2.328   5.533 -0.2600 -0.6000  0.5638
 2462TIP3    H1 7350   1.860   2.379   5.539  0.0114 -0.0850 -0.0808
 2462TIP3    H2 7351   1.965   2.332   5.441  0.9911  0.0166  0.8991
 2463TIP3   OH2 7352   4.761   2.303   0.866  0.3147  0.0963  0.1344
 2463TIP3    H1 7353   4.851   2.280   0.843  0.0304 -0.2971 -0.6077
 2463TIP3    H2 7354   4.770   2.354   0.947  1.0556 -1.3724  1.0123
 2464TIP3   OH2 7355   1.096   2.365   3.457 -0.3013  0.5970  0.0730
 2464TIP3    H1 7356   1.167   2.370   3.521 -0.7948  0.1396  0.6591
 2464TIP3    H2 7357   1.101   2.448   3.409  0.0108  0.9823  0.7664
 2465TIP3   OH2 7358   6.819   2.016   0.813 -0.6747  0.2180  0.4796
 2465TIP3    H1 7359   6.751   2.072   0.850  1.0763  1.9633  1.2498
 2465TIP3    H2 7360   6.820   2.038   0.720 -0.8484  0.5523  0.5547
 2466TIP3   OH2 7361   0.266   1.287   0.546 -0.8689 -0.5287 -0.6381
 2466TIP3    H1 7362   0.314   1.205   0.556 -1.7734 -0.8656  1.5569
 2466TIP3    H2 7363   0.335   1.355   0.549 -0.2981 -1.1109  0.0594
 2467TIP3   OH2 7364   5.773   1.028   1.239 -0.6341  0.1637 -0.0104
 2467TIP3    H1 7365   5.787   0.958   1.302  0.3676  1.1087  0.8507
 2467TIP3    H2 7366   5.776   0.984   1.154  2.6344 -0.5412  0.3372
 2468TIP3   OH2 7367   6.440   4.186   4.000 -0.2475  0.3426  0.3091
 2468TIP3    H1 7368   6.403   4.105   4.035 -1.7679  0.5541 -0.7271
 2468TIP3    H2 7369   6.374   4.253   4.021 -0.5564  0.7107 -1.6933
 2469TIP3   OH2 7370   3.592   5.105   5.614 -0.3589 -0.0621  0.1093
 2469TIP3    H1 7371   3.608   5.057   5.533 -1.3420  0.5417 -0.4577
 2469TIP3    H2 7372   3.651   5.180   5.610  0.3894 -0.6163  0.4855
 2470TIP3   OH2 7373   0.295   4.375   2.143 -0.1093  0.4057  0.0383
 2470TIP3    H1 7374   0.269   4.441   2.206  2.0567  1.7747 -0.3998
 2470TIP3    H2 7375   0.226   4.376   2.077 -0.8006  1.2093  0.7563
 2471TIP3   OH2 7376   6.449   1.515   2.417 -0.0841  0.1550  0.1592
 2471TIP3    H1 7377   6.534   1.551   2.392  0.2244 -0.3404  0.4695
 2471TIP3    H2 7378   6.423   1.462   2.341 -0.2556  0.5347 -0.0519
 2472TIP3   OH2 7379   6.694   6.704   1.212  0.1318  0.3174 -0.4191
 2472TIP3    H1 7380   6.613   6.716   1.162 -0.9207 -0.3737  1.0529
 2472TIP3    H2 7381   6.753   6.772   1.179 -1.6292  1.9689 -0.3441
 2473TIP3   OH2 7382   1.665   4.012   0.893  0.2208 -0.2851 -0.5878
 2473TIP3    H1 7383   1.619   3.930   0.875 -1.3137  0.2980  0.4715
 2473TIP3    H2 7384   1.737   4.013   0.830 -1.4445 -1.0487 -2.6408
 2474TIP3   OH2 7385   4.045   4.432   4.627  0.5244  0.1627 -0.0862
 2474TIP3    H1 7386   4.122   4.426   4.684  0.0372  0.2968  0.6046
 2474TIP3    H2 7387   3.973   4.399   4.681  0.1803 -0.4370 -0.8981
 2475TIP3   OH2 7388   4.317   5.153   0.978 -0.5420 -0.3884 -0.2499
 2475TIP3    H1 7389   4.294   5.211   0.905  1.7655  0.1440 -0.6382
 2475TIP3    H2 7390   4.256   5.177   1.048 -0.8727  1.1756 -1.0286
 2476TIP3   OH2 7391   3.560   5.752   0.435 -0.0949 -0.1243  0.4258
 2476TIP3    H1 7392   3.558   5.670   0.384  0.3916  0.3455 -0.3801
 2476TIP3    H2 7393   3.558   5.723   0.526  0.0065 -1.0376  0.1576
 2477TIP3   OH2 7394   5.021   3.475   5.262 -0.0509  0.3176  0.2585
 2477TIP3    H1 7395   4.972   3.514   5.190 -0.6473  0.5736  0.8002
 2477TIP3    H2 7396   5.112   3.474   5.230 -0.6243 -2.0109 -1.5653
 2478TIP3   OH2 7397   4.041   5.947   0.999 -0.0065  0.1180  0.5606
 2478TIP3    H1 7398   4.006   5.863   1.029  2.6427 -0.6875  1.6401
 2478TIP3    H2 7399   4.053   5.998   1.079  0.4381  0.6909  0.1404
 2479TIP3   OH2 7400   4.835   2.175   2.006  0.3263  0.3540 -0.2970
 2479TIP3    H1 7401   4.818   2.152   2.097  0.3760  1.2723 -0.0467
 2479TIP3    H2 7402   4.801   2.101   1.956 -0.2195  0.0973  0.4366
 2480TIP3   OH2 7403   4.408   1.350   3.372  1.1536  0.3652  0.2656
 2480TIP3    H1 7404   4.366   1.386   3.294 -0.4920 -0.8883  0.5218
 2480TIP3    H2 7405   4.487   1.306   3.338 -0.6442 -2.0798 -1.1027
 2481TIP3   OH2 7406   6.684   2.240   4.888  0.3686 -0.3514 -0.1872
 2481TIP3    H1 7407   6.594   2.265   4.867  0.4003  1.5029  1.5537
 2481TIP3    H2 7408   6.728   2.233   4.803 -0.6166  2.1077 -0.9860
 2482TIP3   OH2 7409   5.855   3.345   0.941 -0.3524 -0.2194  0.3905
 2482TIP3    H1 7410   5.908   3.423   0.919  0.8594 -0.6237  1.7087
 2482TIP3    H2 7411   5.845   3.350   1.036 -2.2281 -0.4932  0.2347
 2483TIP3   OH2 7412   0.651   4.206   4.980  0.1787  0.3162  0.0554
 2483TIP3    H1 7413   0.668   4.298   4.960  0.6502  0.1781 -0.2078
 2483TIP3    H2 7414   0.659   4.200   5.075  2.8910  0.0491 -0.0930
 2484TIP3   OH2 7415   1.647   6.162   0.185  0.1901  0.2092  0.2315
 2484TIP3    H1 7416   1.584   6.210   0.130  0.5786 -0.1235 -0.5186
 2484TIP3    H2 7417   1.722   6.221   0.192 -0.2696  0.7029  1.3175
 2485TIP3   OH2 7418   4.354   2.510   3.727 -0.4077 -0.0824  0.5311
 2485TIP3    H1 7419   4.448   2.507   3.710 -0.1430 -1.2509  2.0238
 2485TIP3    H2 7420   4.318   2.439   3.674 -0.3087 -0.3285  0.7965
 2486TIP3   OH2 7421   0.423   6.688   2.067 -0.0534  0.1739  0.4054
 2486TIP3    H1 7422   0.447   6.607   2.021 -0.3716 -2.1857  3.9905
 2486TIP3    H2 7423   0.327   6.691   2.061 -0.4217 -1.8186  3.0818
 2487TIP3   OH2 7424   5.713   2.579   0.117 -0.3481  0.0252  0.1932
 2487TIP3    H1 7425   5.663   2.507   0.079  0.5326 -0.4095 -0.1698
 2487TIP3    H2 7426   5.802   2.545   0.125 -0.0456  0.8722  0.5781
 2488TIP3   OH2 7427   2.241   6.414   5.040 -0.3334 -0.2112  0.2212
 2488TIP3    H1 7428   2.316   6.357   5.025  1.0861  1.6295  0.0098
 2488TIP3    H2 7429   2.165   6.356   5.036  1.0675 -2.1437  0.5313
 2489TIP3   OH2 7430   2.480   6.084   4.928  0.3155  0.4193  0.3080
 2489TIP3    H1 7431   2.476   6.178   4.948 -1.3521  0.4177  0.0893
 2489TIP3    H2 7432   2.560   6.054   4.971  1.0732  2.0100  0.0716
 2490TIP3   OH2 7433   0.538   6.095   3.643  0.2044  0.1398 -0.4510
 2490TIP3    H1 7434   0.565   6.162   3.580  0.5330  0.5923  0.1691
 2490TIP3    H2 7435   0.604   6.026   3.634  0.1756  0.1406 -0.6893
 2491TIP3   OH2 7436   6.920   5.010   0.386  0.3085  0.4825 -0.7440
 2491TIP3    H1 7437   6.839   5.013   0.335 -0.6984 -1.7294  0.5765
 2491TIP3    H2 7438   6.912   5.082   0.448 -0.1228  0.9442 -1.3230
 2492TIP3   OH2 7439   2.349   3.484   3.453  0.2237  0.0850 -0.4377
 2492TIP3    H1 7440   2.282   3.417   3.466 -0.4857  0.9749  0.6762
 2492TIP3    H2 7441   2.370   3.479   3.360 -1.0140 -0.5854 -0.7024
 2493TIP3   OH2 7442   3.540   1.970   5.832 -0.2958  0.1065 -0.1615
 2493TIP3    H1 7443   3.583   1.991   5.915 -0.2394 -0.1100 -0.1349
 2493TIP3    H2 7444   3.534   2.054   5.786  0.6597  0.0521 -0.4069
 2494TIP3   OH2 7445   2.905   5.601   1.478 -0.3284  0.4779  0.1898
 2494TIP3    H1 7446   2.838   5.588   1.411 -1.0508  0.9625  0.7983
 2494TIP3    H2 7447   2.950   5.517   1.484 -0.3271  0.3933 -0.8115
 2495TIP3   OH2 7448   2.534   6.093   2.945  1.1870 -0.1803  0.1600
 2495TIP3    H1 7449   2.593   6.119   2.874  0.0548 -0.9506 -1.1080
 2495TIP3    H2 7450   2.512   6.002   2.926  1.2289 -0.5726  1.7978
 2496TIP3   OH2 7451   2.316   4.061   2.197 -0.3297  0.1942  0.2061
 2496TIP3    H1 7452   2.382   3.994   2.219 -1.5367 -0.5334  1.8810
 2496TIP3    H2 7453   2.253   4.014   2.143 -1.2283 -0.1011  1.4631
 2497TIP3   OH2 7454   2.882   3.556   0.740  0.3695  0.5729  0.4647
 2497TIP3    H1 7455   2.788   3.575   0.741  0.4487  1.1182 -0.7830
 2497TIP3    H2 7456   2.922   3.634   0.701  1.0956 -0.6114 -1.2842
 2498TIP3   OH2 7457   5.642   2.813   0.215  0.3196 -0.1135 -0.0588
 2498TIP3    H1 7458   5.699   2.869   0.162 -1.9652  1.3215 -1.1334
 2498TIP3    H2 7459   5.659   2.725   0.184  1.1284  0.4066 -1.1549
 2499TIP3   OH2 7460   7.032   0.567   3.841  0.1239  1.0073 -0.3010
 2499TIP3    H1 7461   7.069   0.508   3.907  0.7079  3.3735  1.6167
 2499TIP3    H2 7462   6.941   0.578   3.866 -0.1451  0.4579 -1.0196
 2500TIP3   OH2 7463   6.714   2.725   5.393 -0.1701 -0.1576  0.2428
 2500TIP3    H1 7464   6.749   2.683   5.315 -0.8208 -0.0497 -0.1128
 2500TIP3    H2 7465   6.734   2.818   5.381 -0.1645 -0.1559  0.2653
 2501TIP3   OH2 7466   2.333   2.337   1.849 -0.1388 -0.0049 -0.2488
 2501TIP3    H1 7467   2.309   2.386   1.927  0.3072  0.6923 -0.5380
 2501TIP3    H2 7468   2.425   2.316   1.861 -0.3706 -0.9777 -0.0343
 2502TIP3   OH2 7469   5.284   0.055   3.126  0.2562 -0.4638  0.3810
 2502TIP3    H1 7470   5.219  -0.015   3.132 -0.2456  0.0624  1.5157
 2502TIP3    H2 7471   5.244   0.128   3.173  1.1374  0.3027 -0.0240
 2503TIP3   OH2 7472   5.871   5.933   5.056  0.1255 -0.1932  0.6448
 2503TIP3    H1 7473   5.800   5.993   5.032  2.1391  2.3850  0.6120
 2503TIP3    H2 7474   5.839   5.846   5.031 -2.2516  1.0605 -1.0642
 2504TIP3   OH2 7475   1.464   2.536   4.221  0.2116  0.1637  0.0287
 2504TIP3    H1 7476   1.411   2.598   4.171 -2.5527 -1.7615  0.3686
 2504TIP3    H2 7477   1.402   2.490   4.277  2.3438 -1.8790  0.9072
 2505TIP3   OH2 7478   1.226   2.195   3.190  0.1427 -0.1547  0.3332
 2505TIP3    H1 7479   1.229   2.291   3.189  0.3535 -0.0967 -2.5120
 2505TIP3    H2 7480   1.140   2.174   3.226 -0.1829  1.1304  0.3533
 2506TIP3   OH2 7481   4.788   2.920   5.049  0.4323  0.0651 -0.2241
 2506TIP3    H1 7482   4.789   2.909   5.144 -0.9107  0.5915 -0.1281
 2506TIP3    H2 7483   4.787   3.015   5.035 -2.4039  0.0516 -0.6427
 2507TIP3   OH2 7484   5.603   0.258   1.455 -0.4594  0.1214  0.0934
 2507TIP3    H1 7485   5.607   0.277   1.361 -0.4510 -0.5403 -0.0460
 2507TIP3    H2 7486   5.637   0.336   1.497 -0.2864  0.3513 -0.4661
 2508TIP3   OH2 7487   3.954   2.153   0.177  0.2246 -0.1157 -0.6418
 2508TIP3    H1 7488   4.004   2.223   0.137  0.2132 -1.1357 -2.5362
 2508TIP3    H2 7489   3.989   2.073   0.138 -1.2647 -1.0039 -0.2233
 2509TIP3   OH2 7490   0.238   3.743   4.879 -0.2909  0.4277  0.0924
 2509TIP3    H1 7491   0.213   3.719   4.790 -1.0500  0.2160  0.3544
 2509TIP3    H2 7492   0.243   3.660   4.926  2.2933  0.3066 -0.2607
 2510TIP3   OH2 7493   5.595   3.355   1.874  0.4282  0.6246 -0.0833
 2510TIP3    H1 7494   5.645   3.428   1.912  1.4400 -0.9417  1.7582
 2510TIP3    H2 7495   5.504   3.385   1.876  0.5666  1.1072  2.5589
 2511TIP3   OH2 7496   0.246   4.772   1.444 -0.4278 -0.2110 -0.1304
 2511TIP3    H1 7497   0.336   4.799   1.457 -0.1952 -1.0583  0.0269
 2511TIP3    H2 7498   0.234   4.774   1.348  0.4846 -2.3789 -0.3241
 2512TIP3   OH2 7499   0.449   3.055   3.054  0.0676 -0.8067 -0.0828
 2512TIP3    H1 7500   0.498   3.062   2.972  0.0686 -1.1461 -0.1113
 2512TIP3    H2 7501   0.515   3.035   3.120  0.0116 -0.9378 -0.0665
 2513TIP3   OH2 7502   6.379   1.751   1.216  0.5602 -0.1779  0.1742
 2513TIP3    H1 7503   6.425   1.762   1.299  0.8467  0.8976 -0.1015
 2513TIP3    H2 7504   6.323   1.829   1.209  1.9016  0.7070 -1.4596
 2514TIP3   OH2 7505   4.064   1.068   4.722  0.3687  0.0107  0.1388
 2514TIP3    H1 7506   3.994   1.004   4.711 -1.6210  1.8928  0.8779
 2514TIP3    H2 7507   4.107   1.072   4.637 -1.5926 -0.0173 -0.9293
 2515TIP3   OH2 7508   1.584   4.426   2.466 -0.5319 -0.0434 -0.0199
 2515TIP3    H1 7509   1.544   4.450   2.383  0.4526  0.9138 -0.2432
 2515TIP3    H2 7510   1.553   4.338   2.484 -3.0137  0.7678  0.0099
 2516TIP3   OH2 7511   7.064   4.693   1.138 -0.4322  0.4542  0.0122
 2516TIP3    H1 7512   7.054   4.684   1.044 -1.1852 -0.3613  0.1541
 2516TIP3    H2 7513   7.106   4.612   1.166 -1.5209  0.0417  0.5356
 2517TIP3   OH2 7514   1.475   2.402   4.682 -0.4384 -0.3101 -0.0125
 2517TIP3    H1 7515   1.564   2.366   4.684 -0.1377  0.3918  2.4290
 2517TIP3    H2 7516   1.484   2.486   4.637 -0.1870 -0.9131 -1.1290
 2518TIP3   OH2 7517   1.667   1.980   5.080  0.1782  0.3299 -0.1841
 2518TIP3    H1 7518   1.647   1.985   5.174 -0.1691  2.4811 -0.3288
 2518TIP3    H2 7519   1.643   1.891   5.056 -0.9165  0.1047  1.5215
 2519TIP3   OH2 7520   5.408   6.071   0.331  0.1627 -0.0330 -0.8339
 2519TIP3    H1 7521   5.364   6.133   0.273 -2.6118 -0.3571  0.7653
 2519TIP3    H2 7522   5.395   5.986   0.290  0.2109 -0.0125 -0.8915
 2520TIP3   OH2 7523   5.411   2.181   4.254  0.3922 -0.0053  0.0295
 2520TIP3    H1 7524   5.364   2.239   4.315 -1.5466 -0.2974 -1.1094
 2520TIP3    H2 7525   5.438   2.239   4.183 -1.2500 -0.3831 -0.9454
 2521TIP3   OH2 7526   1.654   0.036   1.111 -0.0874 -0.2883 -0.8438
 2521TIP3    H1 7527   1.586  -0.015   1.155 -0.1362  0.8952  0.5539
 2521TIP3    H2 7528   1.607   0.087   1.045 -0.1151 -1.5792 -1.8596
 2522TIP3   OH2 7529   4.314   4.477   2.780  0.4130  0.4376  0.0937
 2522TIP3    H1 7530   4.397   4.438   2.753  1.6410  1.2324  2.4204
 2522TIP3    H2 7531   4.285   4.422   2.854 -1.6752 -0.4001 -1.2616
 2523TIP3   OH2 7532   0.642   6.803   0.127 -0.0494 -1.0976 -0.1882
 2523TIP3    H1 7533   0.720   6.772   0.079 -0.4504  0.4515 -1.9818
 2523TIP3    H2 7534   0.583   6.728   0.128 -0.1110 -1.1469 -2.4160
 2524TIP3   OH2 7535   5.767   4.961   5.777 -0.2798 -0.0766 -0.4112
 2524TIP3    H1 7536   5.817   4.955   5.696 -0.3745  0.8661 -0.5509
 2524TIP3    H2 7537   5.678   4.983   5.748 -0.4198 -0.1993 -0.0779
 2525TIP3   OH2 7538   6.797   3.485   1.480 -0.2659 -0.6922 -0.2165
 2525TIP3    H1 7539   6.800   3.580   1.482  3.0531 -0.6635 -0.4413
 2525TIP3    H2 7540   6.777   3.463   1.389 -1.3377 -0.2311 -0.0966
 2526TIP3   OH2 7541   3.888   2.366   4.213  0.1513  0.2436  0.1684
 2526TIP3    H1 7542   3.854   2.296   4.156  0.4593 -1.3425  1.8473
 2526TIP3    H2 7543   3.959   2.406   4.162 -0.3900 -0.2931 -1.0460
 2527TIP3   OH2 7544   5.174   0.252   2.298 -0.2051 -0.3446  0.3380
 2527TIP3    H1 7545   5.218   0.172   2.268 -1.3444 -0.2273 -1.7904
 2527TIP3    H2 7546   5.240   0.320   2.290 -0.1350 -0.5341 -0.8432
 2528TIP3   OH2 7547   1.236   6.535   0.869 -0.4507 -0.5522  0.6566
 2528TIP3    H1 7548   1.326   6.547   0.839 -0.6656 -1.2605 -0.3190
 2528TIP3    H2 7549   1.202   6.623   0.880 -0.5981 -0.2155 -1.9738
 2529TIP3   OH2 7550   1.455   0.793   2.874  0.0804  0.0123 -0.4620
 2529TIP3    H1 7551   1.377   0.844   2.895  0.0028 -0.3572  0.1926
 2529TIP3    H2 7552   1.435   0.752   2.790  0.6690  2.0768 -1.6759
 2530TIP3   OH2 7553   3.909   0.152   2.380 -0.0397 -0.5743 -0.0179
 2530TIP3    H1 7554   3.908   0.148   2.284 -1.6867  1.0843 -0.1404
 2530TIP3    H2 7555   3.874   0.239   2.400 -0.0505 -1.0196  2.0992
 2531TIP3   OH2 7556   7.092   6.383   1.953  0.2078 -0.4799  0.0736
 2531TIP3    H1 7557   7.139   6.365   2.034  0.5806 -0.4209 -0.1289
 2531TIP3    H2 7558   7.151   6.439   1.903 -0.9390  1.3940  0.7221
 2532TIP3   OH2 7559   6.929   0.912   5.691 -0.2695  0.1799 -0.6074
 2532TIP3    H1 7560   6.841   0.889   5.660  0.1149 -0.9058 -0.9363
 2532TIP3    H2 7561   6.987   0.893   5.617  0.2458  0.9231 -0.4041
 2533TIP3   OH2 7562   5.625   2.392   4.865  0.0836 -0.0222 -0.2437
 2533TIP3    H1 7563   5.639   2.329   4.937  0.0836  0.1835 -0.0608
 2533TIP3    H2 7564   5.713   2.424   4.845  0.2666 -1.0958 -1.2797
 2534TIP3   OH2 7565   5.605   5.566   3.856 -0.1671  0.3658  0.3423
 2534TIP3    H1 7566   5.632   5.476   3.838  0.1438  0.4274  0.4883
 2534TIP3    H2 7567   5.640   5.585   3.943 -1.3333  0.1991  0.8668
 2535TIP3   OH2 7568   3.128   3.291   3.057  0.3064 -0.1647  0.2300
 2535TIP3    H1 7569   3.220   3.266   3.045  0.9951  2.0870  0.2413
 2535TIP3    H2 7570   3.131   3.357   3.127 -1.1919  0.6109 -0.3926
 2536TIP3   OH2 7571   4.214   6.642   4.495  0.5411 -0.2220 -0.2068
 2536TIP3    H1 7572   4.241   6.679   4.411 -3.2543  4.0912  0.0779
 2536TIP3    H2 7573   4.287   6.660   4.554  1.2823  1.3231 -1.5336
 2537TIP3   OH2 7574   1.593   5.607   5.431  0.2573  0.3129  0.4276
 2537TIP3    H1 7575   1.497   5.607   5.432  0.0675 -2.6155 -2.0900
 2537TIP3    H2 7576   1.617   5.554   5.507 -0.4013 -1.7325 -0.6879
 2538TIP3   OH2 7577   0.018   3.606   1.510  0.3509  0.0408 -0.0739
 2538TIP3    H1 7578   0.042   3.524   1.552 -0.1884 -0.0496  0.0631
 2538TIP3    H2 7579  -0.008   3.582   1.421 -1.2108 -0.1348  0.4117
 2539TIP3   OH2 7580   0.781   0.386   1.894 -0.3411 -0.5079 -0.2328
 2539TIP3    H1 7581   0.832   0.306   1.905 -0.6581 -0.9030 -1.4809
 2539TIP3    H2 7582   0.828   0.452   1.945  0.4988 -1.2486 -0.0285
 2540TIP3   OH2 7583   4.336   5.198   2.867  0.4895  0.5840  0.0862
 2540TIP3    H1 7584   4.301   5.263   2.927  0.3416 -0.0371  0.6740
 2540TIP3    H2 7585   4.385   5.249   2.802  0.4703  1.2693  0.6086
 2541TIP3   OH2 7586   3.468   6.088   2.408 -0.3424  0.1492  0.1011
 2541TIP3    H1 7587   3.458   6.087   2.313 -0.7324 -0.0518  0.1409
 2541TIP3    H2 7588   3.550   6.041   2.424  0.2251  1.0252 -0.1870
 2542TIP3   OH2 7589   1.499   6.325   3.786 -0.2127 -0.5463  0.6100
 2542TIP3    H1 7590   1.540   6.375   3.856 -2.5783  1.8985  0.4090
 2542TIP3    H2 7591   1.414   6.299   3.821 -1.4968  0.8307 -1.3181
 2543TIP3   OH2 7592   4.427   6.354   1.752 -0.0174  0.6672  0.4525
 2543TIP3    H1 7593   4.409   6.421   1.818 -2.0585  0.2828  0.3305
 2543TIP3    H2 7594   4.457   6.278   1.803  1.6609  1.3903  0.6348
 2544TIP3   OH2 7595   0.875   3.409   4.592 -0.6897 -0.0157 -0.2903
 2544TIP3    H1 7596   0.964   3.407   4.557 -0.6184  0.0162 -0.1121
 2544TIP3    H2 7597   0.870   3.491   4.641 -1.5228  1.0905 -2.1276
 2545TIP3   OH2 7598   2.287   1.473   2.927  0.8341  0.0491 -0.3608
 2545TIP3    H1 7599   2.213   1.530   2.948  1.4522  0.2059  1.6135
 2545TIP3    H2 7600   2.363   1.532   2.922  1.4407 -0.5168  1.4804
 2546TIP3   OH2 7601   1.704   0.286   1.377 -0.2033 -0.3001 -0.0286
 2546TIP3    H1 7602   1.657   0.221   1.325 -1.0046  0.2841 -0.0574
 2546TIP3    H2 7603   1.674   0.370   1.343  0.3920  0.0847  0.3855
 2547TIP3   OH2 7604   5.766   4.326   0.207 -0.4579 -0.6625 -0.0884
 2547TIP3    H1 7605   5.700   4.309   0.274 -0.4387 -0.4761 -0.0232
 2547TIP3    H2 7606   5.771   4.421   0.200 -0.6659 -0.6811 -0.5596
 2548TIP3   OH2 7607   2.259   0.813   3.793 -0.2435  0.0024 -0.1971
 2548TIP3    H1 7608   2.315   0.834   3.868  0.2550  1.3493 -0.9164
 2548TIP3    H2 7609   2.319   0.786   3.724 -0.4317  1.6363 -1.0341
 2549TIP3   OH2 7610   5.745   0.560   5.279 -0.1033 -0.2031 -0.0225
 2549TIP3    H1 7611   5.828   0.550   5.233  0.0701  0.6931  0.0805
 2549TIP3    H2 7612   5.763   0.622   5.350 -1.0678  0.7751 -0.5838
 2550TIP3   OH2 7613   5.966   4.877   4.404  0.4019 -0.6787 -0.0075
 2550TIP3    H1 7614   6.023   4.941   4.447 -0.7060 -0.7130  1.5620
 2550TIP3    H2 7615   5.917   4.835   4.475 -1.0442 -1.1888 -1.2412
 2551TIP3   OH2 7616   0.392   2.930   1.757  0.2973 -0.0007 -0.1633
 2551TIP3    H1 7617   0.348   2.858   1.802  2.7068 -1.1403  0.5662
 2551TIP3    H2 7618   0.330   2.958   1.690 -1.2386 -1.9131  0.3635
 2552TIP3   OH2 7619   0.649   6.115   1.991 -0.0339  0.2737 -0.4624
 2552TIP3    H1 7620   0.573   6.105   2.048 -0.4627 -1.4898 -1.2743
 2552TIP3    H2 7621   0.691   6.196   2.021 -1.1823  0.3011  1.2197
 2553TIP3   OH2 7622   4.185   1.529   3.828 -0.1213  0.1449 -0.1617
 2553TIP3    H1 7623   4.236   1.602   3.790  0.7679  0.7566  2.0630
 2553TIP3    H2 7624   4.166   1.472   3.753  0.0150  2.1462 -1.8148
 2554TIP3   OH2 7625   1.825   0.168   0.436  0.0453 -0.0857  0.2324
 2554TIP3    H1 7626   1.917   0.143   0.433 -0.3500 -1.8508  1.1967
 2554TIP3    H2 7627   1.805   0.174   0.530 -1.0929 -0.9601  0.0717
 2555TIP3   OH2 7628   5.506   1.786   1.011 -0.2549 -0.1018  0.0877
 2555TIP3    H1 7629   5.485   1.858   0.952 -2.0373  0.2005  1.0318
 2555TIP3    H2 7630   5.465   1.710   0.970  1.0830 -0.5193 -0.5727
 2556TIP3   OH2 7631   0.442   5.913   5.664 -0.0899 -0.1517  0.6374
 2556TIP3    H1 7632   0.520   5.946   5.708 -0.1479  0.6275  0.1699
 2556TIP3    H2 7633   0.474   5.873   5.584 -0.1221 -0.3308  0.7123
 2557TIP3   OH2 7634   6.327   6.623   4.582 -0.2345  0.5431 -0.3031
 2557TIP3    H1 7635   6.375   6.561   4.635  0.1281  0.4746 -0.7034
 2557TIP3    H2 7636   6.351   6.709   4.617  1.4286  0.6053 -1.4741
 2558TIP3   OH2 7637   0.758   0.407   3.470  0.0417  0.3235  0.2115
 2558TIP3    H1 7638   0.753   0.402   3.375 -0.3956  2.8364  0.0514
 2558TIP3    H2 7639   0.837   0.458   3.488 -0.2490  0.4621  1.1710
 2559TIP3   OH2 7640   1.106   5.169   4.521  0.1942  0.3058 -0.5989
 2559TIP3    H1 7641   1.011   5.176   4.530  0.2973  1.6515 -0.4320
 2559TIP3    H2 7642   1.131   5.105   4.589 -0.4852  0.6888  0.0317
 2560TIP3   OH2 7643   0.069   4.977   0.929  0.1279 -0.0149 -0.5917
 2560TIP3    H1 7644   0.130   5.050   0.945  0.2379 -0.0680 -0.7674
 2560TIP3    H2 7645  -0.017   5.018   0.929  0.1724  0.0799 -0.4602
 2561TIP3   OH2 7646   6.285   4.965   5.191 -0.1763  0.5425 -0.0345
 2561TIP3    H1 7647   6.352   5.018   5.147  0.6566  1.1409  1.8646
 2561TIP3    H2 7648   6.325   4.879   5.201 -0.3380  0.4283 -0.3307
 2562TIP3   OH2 7649   0.964   3.895   2.321  0.1848  0.6938  0.7339
 2562TIP3    H1 7650   1.007   3.914   2.238 -0.3149  0.6921  0.4656
 2562TIP3    H2 7651   1.027   3.842   2.369 -0.6559 -2.0640 -0.9250
 2563TIP3   OH2 7652   2.124   0.883   5.538  0.5426 -0.2259 -0.2288
 2563TIP3    H1 7653   2.174   0.856   5.461  0.2088  1.1867 -0.9820
 2563TIP3    H2 7654   2.165   0.966   5.564 -0.1743 -0.0379  0.3278
 2564TIP3   OH2 7655   5.008   5.748   3.996 -0.5361  0.2550  0.1228
 2564TIP3    H1 7656   5.073   5.757   4.066 -0.4628  2.4543 -0.1587
 2564TIP3    H2 7657   4.930   5.715   4.040  0.3083 -1.1008  0.7078
 2565TIP3   OH2 7658   3.000   3.961   3.639 -0.1227  0.0605 -0.5047
 2565TIP3    H1 7659   3.007   4.048   3.599 -0.8760  0.7832  0.8386
 2565TIP3    H2 7660   2.916   3.926   3.608 -0.0414  0.0114 -0.6706
 2566TIP3   OH2 7661   1.722   3.066   4.402  1.0333 -0.1211 -0.2886
 2566TIP3    H1 7662   1.789   3.100   4.460  0.4005  0.6179  0.0291
 2566TIP3    H2 7663   1.770   3.031   4.327  1.8067 -0.3440  0.3042
 2567TIP3   OH2 7664   0.238   0.536   3.244 -0.0647 -0.4424 -0.6937
 2567TIP3    H1 7665   0.256   0.444   3.265  2.4108  0.3579  0.9595
 2567TIP3    H2 7666   0.281   0.550   3.159  1.0699 -0.3920 -0.1254
 2568TIP3   OH2 7667   5.428   6.162   0.606  0.4715 -0.0521 -0.4800
 2568TIP3    H1 7668   5.345   6.186   0.648 -0.4762 -2.1486 -1.0016
 2568TIP3    H2 7669   5.402   6.120   0.524  2.1233  0.2349 -1.1840
 2569TIP3   OH2 7670   0.804   4.911   1.587  0.1107 -0.1673 -0.3153
 2569TIP3    H1 7671   0.825   4.958   1.507 -2.2166  0.9710 -0.3574
 2569TIP3    H2 7672   0.743   4.969   1.633  0.2407 -1.4381  1.5699
 2570TIP3   OH2 7673   2.337   3.904   0.166 -0.0578  0.2550  0.0287
 2570TIP3    H1 7674   2.342   3.999   0.159  0.3808  0.1510 -1.6437
 2570TIP3    H2 7675   2.398   3.872   0.099 -2.1059 -1.1893 -1.2612
 2571TIP3   OH2 7676   4.308   0.959   4.880 -0.2488 -0.0141  0.3193
 2571TIP3    H1 7677   4.252   0.983   4.806  0.2941 -1.0633 -0.4790
 2571TIP3    H2 7678   4.261   0.887   4.923 -0.3516  0.2950  0.7222
 2572TIP3   OH2 7679   4.213   5.364   3.036  0.1492  0.1013  0.2353
 2572TIP3    H1 7680   4.237   5.448   3.074  0.9191 -0.5622  1.2655
 2572TIP3    H2 7681   4.131   5.381   2.990  0.8574  1.6617 -0.5298
 2573TIP3   OH2 7682   5.124   3.006   4.218 -0.4837 -0.0223  0.1442
 2573TIP3    H1 7683   5.209   2.994   4.260 -0.1659  0.9334 -0.2121
 2573TIP3    H2 7684   5.145   3.022   4.126 -1.1339 -1.3382 -0.2560
 2574TIP3   OH2 7685   1.955   0.244   2.651  0.5034 -0.3433  0.4275
 2574TIP3    H1 7686   1.907   0.296   2.587 -0.3832 -1.3212  0.2767
 2574TIP3    H2 7687   1.909   0.160   2.655  1.9324 -1.1683  0.6096
 2575TIP3   OH2 7688   2.113   0.238   2.203 -0.2043 -0.3613  0.6847
 2575TIP3    H1 7689   2.203   0.254   2.176 -0.2191  0.4078  1.0448
 2575TIP3    H2 7690   2.071   0.325   2.198 -0.4406 -0.3540  2.2876
 2576TIP3   OH2 7691   6.927   2.851   0.411  0.4119  0.4887  0.4612
 2576TIP3    H1 7692   7.012   2.839   0.452  0.9301  2.6460  0.1297
 2576TIP3    H2 7693   6.884   2.919   0.464  0.4059  2.0659 -1.4349
 2577TIP3   OH2 7694   6.175   1.955   3.100  0.1846 -0.2831 -0.1005
 2577TIP3    H1 7695   6.164   2.019   3.171 -0.8319 -1.0746  0.4925
 2577TIP3    H2 7696   6.085   1.938   3.070  0.5824 -0.2073 -1.3576
 2578TIP3   OH2 7697   5.440   3.625   3.212  0.3629 -0.3560 -0.7005
 2578TIP3    H1 7698   5.487   3.681   3.274 -1.4327  2.4146 -1.6482
 2578TIP3    H2 7699   5.375   3.580   3.265  0.6397 -0.1200 -0.1542
 2579TIP3   OH2 7700   5.903   4.451   5.130  0.3995 -0.8929 -0.1054
 2579TIP3    H1 7701   5.930   4.533   5.089 -1.4102 -0.4455 -0.4988
 2579TIP3    H2 7702   5.981   4.395   5.126  0.7002 -0.4282 -3.0231
 2580TIP3   OH2 7703   3.578   2.382   0.446 -0.1115  0.1192 -0.1536
 2580TIP3    H1 7704   3.529   2.307   0.481  0.3840 -0.1034  0.0696
 2580TIP3    H2 7705   3.654   2.344   0.404  0.4116  0.5243  0.4040
 2581TIP3   OH2 7706   3.066   3.925   3.046  0.3463 -0.6004  0.3162
 2581TIP3    H1 7707   3.158   3.899   3.038  0.2646 -0.5828 -0.8446
 2581TIP3    H2 7708   3.017   3.857   3.001  0.0226  0.6905 -1.4260
 2582TIP3   OH2 7709   4.638   4.798   1.393 -0.2844  0.4521 -0.0844
 2582TIP3    H1 7710   4.573   4.861   1.425 -0.5828 -1.0211  2.5341
 2582TIP3    H2 7711   4.612   4.780   1.303 -2.3243  1.3870  0.2555
 2583TIP3   OH2 7712   4.992   1.922   0.285 -0.0561  0.5621 -0.4246
 2583TIP3    H1 7713   5.012   1.844   0.337 -0.3135 -0.7083 -2.1587
 2583TIP3    H2 7714   4.901   1.910   0.259  0.0071  1.2904 -0.9914
 2584TIP3   OH2 7715   2.825   3.359   3.626 -0.3573 -0.3418  0.0228
 2584TIP3    H1 7716   2.842   3.316   3.543 -0.7054  2.4458 -1.6118
 2584TIP3    H2 7717   2.741   3.324   3.656  0.0666 -1.8062 -0.4715
 2585TIP3   OH2 7718   5.005   2.748   5.712 -0.4335 -0.3481 -0.1336
 2585TIP3    H1 7719   4.987   2.802   5.635 -0.4504 -1.1685 -0.7144
 2585TIP3    H2 7720   5.024   2.661   5.677  1.6429 -0.2532  0.6417
 2586TIP3   OH2 7721   2.261   2.957   0.072 -0.2085 -0.5747 -0.3783
 2586TIP3    H1 7722   2.179   3.006   0.065  0.6338  0.7817 -1.3309
 2586TIP3    H2 7723   2.314   3.008   0.133  0.0784 -1.2221 -0.0841
 2587TIP3   OH2 7724   1.516   1.926   2.667  0.1688 -0.5861  0.7008
 2587TIP3    H1 7725   1.446   1.970   2.715 -0.2563 -0.7188  0.2151
 2587TIP3    H2 7726   1.511   1.835   2.696 -0.2131 -0.7061  0.2718
 2588TIP3   OH2 7727   3.675   0.822   4.191  0.0910  0.5566 -0.2932
 2588TIP3    H1 7728   3.705   0.904   4.153 -1.3580  1.4542  0.3936
 2588TIP3    H2 7729   3.590   0.807   4.150 -0.0612 -0.1266  0.2563
 2589TIP3   OH2 7730   0.439   1.931   2.640 -0.1729  0.0523  0.5036
 2589TIP3    H1 7731   0.452   2.005   2.699 -0.2592 -0.3164  0.9970
 2589TIP3    H2 7732   0.349   1.940   2.608  0.3077  1.0223 -0.6741
 2590TIP3   OH2 7733   3.972   6.704   3.391  0.6120  0.4779  0.3893
 2590TIP3    H1 7734   4.037   6.700   3.321 -0.5543  1.7063 -0.8218
 2590TIP3    H2 7735   3.978   6.619   3.434  0.1643 -1.0287 -2.3257
 2591TIP3   OH2 7736   2.606   1.640   2.462  0.6776 -0.2534 -0.0215
 2591TIP3    H1 7737   2.529   1.596   2.427 -0.2971  1.4953 -0.2150
 2591TIP3    H2 7738   2.646   1.683   2.386  0.8774  0.2224  0.3433
 2592TIP3   OH2 7739   0.438   1.706   3.160 -0.0586  0.1669  0.8851
 2592TIP3    H1 7740   0.447   1.612   3.147  0.1756  0.2809  0.1075
 2592TIP3    H2 7741   0.431   1.718   3.254 -2.9017 -0.8644  0.8856
 2593TIP3   OH2 7742   3.013   2.141   1.140 -0.1337 -0.0896  0.5802
 2593TIP3    H1 7743   2.935   2.125   1.193 -0.5954 -1.4781 -0.4293
 2593TIP3    H2 7744   3.065   2.062   1.151  0.6974  0.4473  0.5197
 2594TIP3   OH2 7745   0.828   6.765   3.473  0.0136 -0.2730  0.5665
 2594TIP3    H1 7746   0.800   6.836   3.531 -1.7282 -0.9844  0.6725
 2594TIP3    H2 7747   0.890   6.714   3.526 -0.4172 -0.0742  1.2815
 2595TIP3   OH2 7748   6.056   2.557   4.432  0.0220 -0.3941  0.0018
 2595TIP3    H1 7749   5.961   2.542   4.439 -0.0479  0.0830  0.1289
 2595TIP3    H2 7750   6.091   2.531   4.517 -0.3365  1.8089  0.9100
 2596TIP3   OH2 7751   5.872   1.884   4.316 -0.2317  0.4820 -0.2273
 2596TIP3    H1 7752   5.948   1.836   4.348  0.3709  1.6923  0.1857
 2596TIP3    H2 7753   5.815   1.893   4.392 -1.2343 -1.1899 -0.7301
 2597TIP3   OH2 7754   6.841   5.289   2.277 -0.6074  0.8641  0.0151
 2597TIP3    H1 7755   6.932   5.314   2.292 -0.7936  0.9812  0.9926
 2597TIP3    H2 7756   6.799   5.296   2.363 -1.1653 -0.7214 -0.0927
 2598TIP3   OH2 7757   5.404   2.390   0.454 -0.7258  0.3456  0.0462
 2598TIP3    H1 7758   5.436   2.478   0.436 -0.1538  0.0567 -0.3528
 2598TIP3    H2 7759   5.385   2.390   0.548 -2.3288  1.4076 -0.2233
 2599TIP3   OH2 7760   5.041   0.847   2.696 -0.1588 -0.0930 -0.3008
 2599TIP3    H1 7761   5.022   0.940   2.689 -0.8335 -0.1647  0.3614
 2599TIP3    H2 7762   5.096   0.827   2.620  1.4627  1.2010  0.4480
 2600TIP3   OH2 7763   1.958   5.608   1.679  0.4694  0.5602  0.2720
 2600TIP3    H1 7764   1.928   5.567   1.761 -1.3150  0.4345 -0.3925
 2600TIP3    H2 7765   2.008   5.684   1.708 -1.1306  1.2105  1.5187
 2601TIP3   OH2 7766   7.139   1.974   4.085  0.5304 -0.4879 -0.5999
 2601TIP3    H1 7767   7.142   1.989   4.179  2.3379  0.4195 -0.7546
 2601TIP3    H2 7768   7.167   2.057   4.046 -4.4864  0.7541 -2.2235
 2602TIP3   OH2 7769   1.682   1.617   2.140  0.1941 -0.4716  0.1981
 2602TIP3    H1 7770   1.629   1.696   2.135  0.4130 -0.3893 -0.9464
 2602TIP3    H2 7771   1.745   1.634   2.210 -0.0472  0.1824  0.2562
 2603TIP3   OH2 7772   3.032   5.504   5.534  0.6076  0.1032  0.0921
 2603TIP3    H1 7773   2.983   5.514   5.616  3.1223 -0.2929  1.7491
 2603TIP3    H2 7774   3.009   5.417   5.503 -0.9280  0.5312 -0.0532
 2604TIP3   OH2 7775   4.034   3.285   4.875  0.1819 -0.2106 -0.1115
 2604TIP3    H1 7776   4.020   3.197   4.840  1.0907 -0.1687 -0.6149
 2604TIP3    H2 7777   3.949   3.310   4.912 -0.5227 -0.6798 -1.3544
 2605TIP3   OH2 7778   5.903   2.435   1.697 -0.3579 -0.0253 -0.3971
 2605TIP3    H1 7779   5.965   2.493   1.741 -0.3340 -2.3827  3.1052
 2605TIP3    H2 7780   5.817   2.475   1.713 -0.2611 -0.3584  1.1642
 2606TIP3   OH2 7781   1.028   3.182   4.982 -0.3121  0.5079 -0.0245
 2606TIP3    H1 7782   1.044   3.254   5.043 -0.1644  0.0773  0.4542
 2606TIP3    H2 7783   0.941   3.149   5.007  0.1098 -0.2178  0.5239
 2607TIP3   OH2 7784   3.029   5.513   3.251 -0.0457  0.3227 -0.3106
 2607TIP3    H1 7785   3.071   5.442   3.300 -0.0033  0.3775 -0.2682
 2607TIP3    H2 7786   2.959   5.544   3.308 -0.6481 -0.2841 -0.6900
 2608TIP3   OH2 7787   6.248   5.344   0.411  0.3343  0.3098 -0.1183
 2608TIP3    H1 7788   6.155   5.359   0.426  0.1395  0.2875 -1.2160
 2608TIP3    H2 7789   6.267   5.262   0.456  0.1176  0.9500  1.1623
 2609TIP3   OH2 7790   3.947   1.425   2.213 -0.1886  0.4560 -0.0826
 2609TIP3    H1 7791   3.984   1.396   2.296 -0.9055  1.2749  0.5465
 2609TIP3    H2 7792   3.982   1.364   2.148  2.5794  1.4177  0.3883
 2610TIP3   OH2 7793   1.802   5.788   4.946  0.1850  0.1744 -0.1592
 2610TIP3    H1 7794   1.708   5.800   4.932  0.5611 -0.2202 -4.1732
 2610TIP3    H2 7795   1.837   5.876   4.957 -0.3459  0.5806 -1.5735
 2611TIP3   OH2 7796   1.991   4.720   1.230  0.3374 -0.2832 -0.1048
 2611TIP3    H1 7797   1.913   4.763   1.264 -0.3781 -1.7167  0.1396
 2611TIP3    H2 7798   2.061   4.785   1.242 -1.0118  1.5579 -1.5588
 2612TIP3   OH2 7799   0.390   6.574   4.391  0.0404 -0.0837 -0.1161
 2612TIP3    H1 7800   0.465   6.635   4.391 -1.2182  1.6109  2.2392
 2612TIP3    H2 7801   0.415   6.505   4.452  0.8487 -1.2223 -1.6530
 2613TIP3   OH2 7802   6.803   4.518   5.424  0.8369  0.0390 -0.2918
 2613TIP3    H1 7803   6.800   4.607   5.460 -1.5924 -0.2192  0.3242
 2613TIP3    H2 7804   6.806   4.531   5.329 -1.6068  0.8938 -0.3332
 2614TIP3   OH2 7805   3.698   2.535   1.001 -0.3382  0.2220 -0.4039
 2614TIP3    H1 7806   3.620   2.571   1.045  0.0056 -1.2069  1.5025
 2614TIP3    H2 7807   3.680   2.441   0.996  1.2272 -0.1214  0.0280
 2615TIP3   OH2 7808   4.696   6.351   1.486 -0.5082  0.2869  0.3220
 2615TIP3    H1 7809   4.774   6.296   1.480 -1.4653 -0.9615 -2.0351
 2615TIP3    H2 7810   4.727   6.433   1.524  1.7954 -0.4184  0.1059
 2616TIP3   OH2 7811   2.908   5.560   0.946 -0.3140  0.3491  0.4788
 2616TIP3    H1 7812   2.948   5.486   0.900 -0.2395  0.0046  1.0955
 2616TIP3    H2 7813   2.852   5.602   0.880 -1.7455 -1.2971  0.5761
 2617TIP3   OH2 7814   3.911   2.541   0.812 -0.4948  0.4996  0.0647
 2617TIP3    H1 7815   3.836   2.515   0.865 -0.9498 -0.3790 -0.9437
 2617TIP3    H2 7816   3.897   2.633   0.793 -1.3204  0.3468 -0.0963
 2618TIP3   OH2 7817   3.299   5.723   2.286 -0.1497  0.1918 -0.2260
 2618TIP3    H1 7818   3.251   5.764   2.358  1.5492  1.2184  0.3917
 2618TIP3    H2 7819   3.391   5.734   2.310  0.4145 -1.5802 -1.4209
 2619TIP3   OH2 7820   3.314   5.280   3.797  0.1203  0.1345  0.4562
 2619TIP3    H1 7821   3.392   5.250   3.751 -1.2547 -0.9375 -1.3199
 2619TIP3    H2 7822   3.326   5.375   3.804  0.6928  0.2824 -1.6739
 2620TIP3   OH2 7823   5.704   4.395   4.610  0.3600  0.2686  0.1828
 2620TIP3    H1 7824   5.775   4.386   4.546 -0.3866 -0.9342 -0.5283
 2620TIP3    H2 7825   5.748   4.393   4.695  1.1705 -0.6436 -0.2377
 2621TIP3   OH2 7826   2.673   2.188   5.088  0.0822 -0.4811  0.2938
 2621TIP3    H1 7827   2.725   2.213   5.165  1.3057  1.0102 -0.9492
 2621TIP3    H2 7828   2.585   2.220   5.108  0.6575  1.0281  0.6120
 2622TIP3   OH2 7829   1.152   1.046   5.130  0.2142 -0.0066  0.1067
 2622TIP3    H1 7830   1.122   1.132   5.162 -1.4347  1.4107 -4.4075
 2622TIP3    H2 7831   1.092   0.984   5.170 -0.5603  1.3367  1.1273
 2623TIP3   OH2 7832   2.225   2.477   4.610  0.5466 -0.0331 -0.5994
 2623TIP3    H1 7833   2.297   2.429   4.650 -1.4525 -2.4050  0.4295
 2623TIP3    H2 7834   2.237   2.568   4.639  2.9821 -0.3664 -0.3823
 2624TIP3   OH2 7835   0.933   0.542   4.557  0.3252  0.0903  0.2359
 2624TIP3    H1 7836   0.959   0.585   4.639  1.3914 -2.5590  1.3982
 2624TIP3    H2 7837   0.992   0.467   4.550  0.1485  0.1423 -2.9282
 2625TIP3   OH2 7838   6.169   5.784   0.071  0.2413 -0.0618 -0.7184
 2625TIP3    H1 7839   6.175   5.830  -0.013  2.2858 -0.8572 -1.0611
 2625TIP3    H2 7840   6.259   5.778   0.102 -0.1816 -1.9383  0.3415
 2626TIP3   OH2 7841   3.379   3.802   1.298 -0.4253 -0.3826  0.0706
 2626TIP3    H1 7842   3.474   3.811   1.294 -0.3582 -1.0922  0.0607
 2626TIP3    H2 7843   3.348   3.837   1.214 -0.0542 -1.6655 -0.6152
 2627TIP3   OH2 7844   0.743   1.944   2.702 -0.1927  0.4378 -0.6002
 2627TIP3    H1 7845   0.792   1.872   2.743  0.1371  0.2869 -1.2297
 2627TIP3    H2 7846   0.654   1.911   2.695 -0.4046  0.7278  0.5934
 2628TIP3   OH2 7847   6.882   2.119   4.168  0.3717  0.0945 -0.0023
 2628TIP3    H1 7848   6.869   2.211   4.194  0.1959  0.3358 -0.9166
 2628TIP3    H2 7849   6.940   2.124   4.093  2.7579 -0.7437  1.6893
 2629TIP3   OH2 7850   4.423   0.963   2.379  0.2764 -0.0690  0.4788
 2629TIP3    H1 7851   4.467   1.022   2.318  0.2231  0.0262  0.5312
 2629TIP3    H2 7852   4.447   0.996   2.466 -2.8849  2.3584  0.6248
 2630TIP3   OH2 7853   2.098   2.158   3.005  0.0354  0.2712 -0.5613
 2630TIP3    H1 7854   2.135   2.153   2.916 -1.4811 -0.4287 -1.1784
 2630TIP3    H2 7855   2.134   2.082   3.050  1.0617  0.7987 -0.4596
 2631TIP3   OH2 7856   2.475   6.368   4.907 -0.4611 -0.1929  0.7287
 2631TIP3    H1 7857   2.563   6.403   4.898 -0.5726 -0.2749 -1.0248
 2631TIP3    H2 7858   2.418   6.437   4.873 -1.0081 -0.5074  0.9890
 2632TIP3   OH2 7859   4.652   3.468   4.958  0.0267  0.0677  0.5574
 2632TIP3    H1 7860   4.684   3.379   4.965  0.4167 -0.0333 -1.7536
 2632TIP3    H2 7861   4.730   3.523   4.967 -0.1917  0.2174  1.8201
 2633TIP3   OH2 7862   6.876   3.456   4.372 -0.8553 -0.1780  0.0477
 2633TIP3    H1 7863   6.898   3.411   4.290  0.8297 -0.1926  0.4655
 2633TIP3    H2 7864   6.781   3.452   4.377 -1.1285  0.9253 -2.5515
 2634TIP3   OH2 7865   1.674   5.822   1.195  0.1817  0.2625  0.4334
 2634TIP3    H1 7866   1.655   5.769   1.272 -0.0785 -1.3517 -0.6744
 2634TIP3    H2 7867   1.612   5.895   1.199  0.4364  0.4171  1.9256
 2635TIP3   OH2 7868  -0.015   4.901   5.740  0.0564 -0.4559  0.2542
 2635TIP3    H1 7869   0.080   4.911   5.727 -0.0446  1.3671  0.6626
 2635TIP3    H2 7870  -0.024   4.816   5.784  1.3268 -1.4478 -1.2897
 2636TIP3   OH2 7871   0.470   4.777   0.277  0.4670  0.0024 -0.3866
 2636TIP3    H1 7872   0.395   4.829   0.307  0.5474  0.1940 -0.5094
 2636TIP3    H2 7873   0.535   4.786   0.347  0.7899  0.7423 -0.7683
 2637TIP3   OH2 7874   6.613   6.249   0.689  0.3098  0.0657 -0.4877
 2637TIP3    H1 7875   6.618   6.210   0.776 -1.8158 -0.0595 -0.3679
 2637TIP3    H2 7876   6.520   6.242   0.665  0.5168  1.7571 -1.9908
 2638TIP3   OH2 7877   5.291   1.624   2.356 -0.0459  0.0148 -0.0323
 2638TIP3    H1 7878   5.336   1.545   2.385  0.0796 -0.4477 -1.3893
 2638TIP3    H2 7879   5.213   1.591   2.310  0.4264  0.6284 -1.3074
 2639TIP3   OH2 7880   6.234   5.228   3.920  0.6098  0.1347  0.4016
 2639TIP3    H1 7881   6.171   5.294   3.950 -0.6024 -0.4435 -0.7530
 2639TIP3    H2 7882   6.287   5.274   3.855 -0.3473 -0.0366 -0.5286
 2640TIP3   OH2 7883   6.740   0.479   1.924 -0.5627  0.6539 -0.1368
 2640TIP3    H1 7884   6.675   0.448   1.987 -0.5536  0.9963  0.0451
 2640TIP3    H2 7885   6.776   0.559   1.964 -0.7589  1.0358 -0.7060
 2641TIP3   OH2 7886   5.516   6.566   1.468 -0.0736 -0.1493 -0.1786
 2641TIP3    H1 7887   5.496   6.585   1.560 -0.7977  0.4820 -0.4589
 2641TIP3    H2 7888   5.466   6.630   1.419  3.0723  1.9196 -0.9241
 2642TIP3   OH2 7889   1.653   6.287   3.277  0.0815 -0.5198 -0.0369
 2642TIP3    H1 7890   1.579   6.263   3.332  0.7818 -0.3675  0.9871
 2642TIP3    H2 7891   1.641   6.381   3.260 -0.0238 -0.5236  0.0196
 2643TIP3   OH2 7892   4.108   4.451   1.198 -0.0721  0.2247  0.2371
 2643TIP3    H1 7893   4.202   4.463   1.184  0.0385  0.0780  0.8486
 2643TIP3    H2 7894   4.067   4.504   1.129  0.4377  1.7690  1.0637
 2644TIP3   OH2 7895   2.560   5.873   2.085 -0.3788  0.2747 -0.7182
 2644TIP3    H1 7896   2.646   5.841   2.113 -0.6065 -0.3620 -0.7408
 2644TIP3    H2 7897   2.498   5.808   2.119 -0.8174  0.5072 -1.0693
 2645TIP3   OH2 7898   5.129   2.509   1.231  0.1515 -0.1749 -0.1310
 2645TIP3    H1 7899   5.209   2.460   1.213 -0.0816 -0.9189  0.7733
 2645TIP3    H2 7900   5.123   2.512   1.327 -1.3035 -0.8238 -0.1630
 2646TIP3   OH2 7901   2.478   0.387   4.864  0.7141  0.0392  0.3543
 2646TIP3    H1 7902   2.571   0.406   4.867  0.9198 -0.9745  0.8861
 2646TIP3    H2 7903   2.470   0.312   4.805  0.3154 -0.2795  0.8005
 2647TIP3   OH2 7904   5.650   0.919   3.324 -0.2263 -0.8441 -0.3514
 2647TIP3    H1 7905   5.606   0.834   3.334 -0.4132 -0.4715  3.4403
 2647TIP3    H2 7906   5.724   0.914   3.384 -1.3122  2.2528  1.4761
 2648TIP3   OH2 7907   4.448   0.492   3.343  0.2467  0.0418  0.4642
 2648TIP3    H1 7908   4.477   0.445   3.265 -0.0618 -0.8567  0.8726
 2648TIP3    H2 7909   4.479   0.439   3.416 -0.6750  0.1168  0.9301
 2649TIP3   OH2 7910   6.349   2.478   4.157  0.0982  0.3131  0.1020
 2649TIP3    H1 7911   6.254   2.488   4.151  0.0387 -0.5816 -0.6821
 2649TIP3    H2 7912   6.383   2.565   4.138 -0.5091  0.0955 -2.3112
 2650TIP3   OH2 7913   0.664   5.102   5.658 -0.0345 -0.2307  0.0706
 2650TIP3    H1 7914   0.669   5.045   5.735  0.3867  0.3746  0.5017
 2650TIP3    H2 7915   0.573   5.097   5.630  0.5348 -3.3934 -1.6774
 2651TIP3   OH2 7916   1.561   5.092   3.392  0.3877 -0.1169  0.0237
 2651TIP3    H1 7917   1.527   5.100   3.303 -0.2709 -1.1948  0.1523
 2651TIP3    H2 7918   1.655   5.103   3.383  0.2637  0.3854 -0.7220
 2652TIP3   OH2 7919   6.998   4.747   5.121  0.2032  0.6189  0.2717
 2652TIP3    H1 7920   7.083   4.711   5.097  0.2762  1.1206 -0.2213
 2652TIP3    H2 7921   7.002   4.839   5.095 -0.4149  0.6951  0.4321
 2653TIP3   OH2 7922   1.890   6.783   4.239 -0.2645 -1.4071 -0.5109
 2653TIP3    H1 7923   1.964   6.776   4.299 -0.2084 -0.8690 -0.5159
 2653TIP3    H2 7924   1.919   6.740   4.159  0.7498  0.4538 -1.1866
 2654TIP3   OH2 7925   6.827   0.450   5.185 -0.1267  0.1689 -0.3297
 2654TIP3    H1 7926   6.883   0.525   5.163 -0.7252  0.8680  0.4688
 2654TIP3    H2 7927   6.818   0.454   5.280 -0.5519 -0.6512 -0.3233
 2655TIP3   OH2 7928   2.367   1.036   5.159 -0.1461 -0.2276 -0.1029
 2655TIP3    H1 7929   2.309   1.056   5.086 -1.0553  0.3261  0.7470
 2655TIP3    H2 7930   2.375   1.118   5.208  1.5745 -0.2145 -0.3259
 2656TIP3   OH2 7931   5.263   3.822   4.461 -0.3575  0.0529  0.5947
 2656TIP3    H1 7932   5.253   3.728   4.447  1.6310 -0.0748 -0.3329
 2656TIP3    H2 7933   5.352   3.832   4.494 -0.7042  1.5711  1.1511
 2657TIP3   OH2 7934   4.327   6.129   4.383  0.5075  0.1455  0.4941
 2657TIP3    H1 7935   4.283   6.200   4.431  1.1943  0.2687  0.9571
 2657TIP3    H2 7936   4.298   6.049   4.427  1.0796  0.2550  1.0877
 2658TIP3   OH2 7937   0.899   4.997   3.948  0.0242 -0.2356 -0.4355
 2658TIP3    H1 7938   0.947   5.078   3.966  1.3652 -0.4736 -2.5359
 2658TIP3    H2 7939   0.897   4.952   4.032  2.7786  0.2357  0.0054
 2659TIP3   OH2 7940   2.327   2.488   0.109 -0.9538 -0.0863 -0.6330
 2659TIP3    H1 7941   2.279   2.538   0.176 -0.2708 -1.5844  1.0784
 2659TIP3    H2 7942   2.263   2.425   0.076 -1.4721  1.0694 -1.9044
 2660TIP3   OH2 7943   6.398   6.235   2.760 -0.0255 -0.2584 -0.1831
 2660TIP3    H1 7944   6.366   6.279   2.682  0.7841 -1.0662 -0.9896
 2660TIP3    H2 7945   6.376   6.143   2.747 -0.8048 -0.2731  1.0288
 2661TIP3   OH2 7946   0.345   2.523   0.529  0.3460 -0.2759 -0.4256
 2661TIP3    H1 7947   0.394   2.490   0.604  0.3609 -1.4940 -0.9437
 2661TIP3    H2 7948   0.320   2.612   0.553 -2.0750 -1.5456  2.1918
 2662TIP3   OH2 7949   1.274   3.140   0.213  0.3866  0.1954 -0.3296
 2662TIP3    H1 7950   1.254   3.172   0.301 -0.5900  2.3228 -1.2409
 2662TIP3    H2 7951   1.242   3.050   0.212  2.5212 -0.6939  2.1529
 2663TIP3   OH2 7952   4.764   2.492   3.558  0.3504  0.0186 -0.0983
 2663TIP3    H1 7953   4.740   2.490   3.651 -0.5199 -0.5350 -0.3236
 2663TIP3    H2 7954   4.767   2.585   3.536  0.5049  0.1525  0.4667
 2664TIP3   OH2 7955   0.625   2.214   4.210  0.0550 -0.3123  0.3661
 2664TIP3    H1 7956   0.641   2.121   4.223  1.1773  0.0651  2.0544
 2664TIP3    H2 7957   0.595   2.246   4.295 -0.4428  0.8472 -0.2224
 2665TIP3   OH2 7958   2.293   1.601   1.926 -0.0768  0.1974 -0.8591
 2665TIP3    H1 7959   2.314   1.511   1.952  0.4332  0.1711 -1.3353
 2665TIP3    H2 7960   2.259   1.642   2.005  3.7292  0.8970  0.5973
 2666TIP3   OH2 7961   3.711   3.457   4.076 -0.2675  0.2116  0.4185
 2666TIP3    H1 7962   3.667   3.383   4.118  1.4054  0.0826  2.0504
 2666TIP3    H2 7963   3.702   3.528   4.139  2.2237  0.0353  1.0759
 2667TIP3   OH2 7964   0.225   2.160   3.570 -0.0540 -0.3244 -0.3561
 2667TIP3    H1 7965   0.199   2.131   3.657  0.5044  0.2292  0.0006
 2667TIP3    H2 7966   0.178   2.243   3.557 -1.9391 -1.5070 -1.5193
 2668TIP3   OH2 7967   3.497   0.866   0.616 -0.5412  0.0965  0.2969
 2668TIP3    H1 7968   3.556   0.929   0.575 -0.8637  1.6711  2.0871
 2668TIP3    H2 7969   3.486   0.898   0.706 -0.2205 -2.8926  1.5208
 2669TIP3   OH2 7970   1.344   5.613   3.818 -0.3230 -0.2926 -0.0465
 2669TIP3    H1 7971   1.370   5.689   3.766 -1.8643 -0.1627 -0.6798
 2669TIP3    H2 7972   1.406   5.610   3.890 -0.9772  2.3219  0.7095
 2670TIP3   OH2 7973   3.604   3.644   2.944  0.1365  0.2284  0.4211
 2670TIP3    H1 7974   3.585   3.684   3.028  1.3071  0.3033  0.6733
 2670TIP3    H2 7975   3.528   3.664   2.889 -0.4202  0.5816  1.3124
 2671TIP3   OH2 7976   5.745   1.119   5.508 -0.2859  0.3376  0.2810
 2671TIP3    H1 7977   5.834   1.154   5.508  0.0444 -0.3218  2.6665
 2671TIP3    H2 7978   5.690   1.195   5.528  0.0477  0.2626  1.5829
 2672TIP3   OH2 7979   5.275   3.906   5.352 -0.2500  0.0884 -0.0115
 2672TIP3    H1 7980   5.245   3.846   5.420 -0.1791 -0.0149 -0.0711
 2672TIP3    H2 7981   5.226   3.987   5.368  0.8333  0.5646  1.0691
 2673TIP3   OH2 7982   0.270   1.177   1.895 -0.2050  0.1775  0.1053
 2673TIP3    H1 7983   0.192   1.122   1.903 -0.1499 -0.0052 -0.5272
 2673TIP3    H2 7984   0.343   1.117   1.903 -0.0980  0.4856  1.6965
 2674TIP3   OH2 7985   5.299   1.287   1.564 -0.6234 -0.3413 -0.1361
 2674TIP3    H1 7986   5.296   1.339   1.483 -0.6709 -0.1117  0.0139
 2674TIP3    H2 7987   5.357   1.214   1.543  0.1166  0.2221 -0.0809
 2675TIP3   OH2 7988   0.352   1.561   5.690  0.1617  0.2187  0.2089
 2675TIP3    H1 7989   0.401   1.529   5.615 -0.1840  2.0211 -0.8669
 2675TIP3    H2 7990   0.267   1.586   5.654 -0.4314  0.0521  1.4350
 2676TIP3   OH2 7991   2.472   5.308   5.147  1.1262  0.2335 -0.0165
 2676TIP3    H1 7992   2.459   5.244   5.216  0.7813 -0.0351 -0.3262
 2676TIP3    H2 7993   2.497   5.257   5.070 -0.9435  0.2441 -0.7709
 2677TIP3   OH2 7994   6.927   6.582   4.349  0.3386  0.2788  0.0482
 2677TIP3    H1 7995   6.995   6.613   4.289  1.0906 -0.8338  0.2950
 2677TIP3    H2 7996   6.846   6.620   4.316  0.3587 -1.9871 -2.9735
 2678TIP3   OH2 7997   0.046   5.228   2.159 -0.3384 -0.0647 -0.1063
 2678TIP3    H1 7998   0.133   5.195   2.141 -0.4221 -1.0551  1.1284
 2678TIP3    H2 7999  -0.012   5.179   2.101 -0.0485  0.9694 -1.3067
 2679TIP3   OH2 8000   1.180   2.367   2.628 -0.0329 -0.5130  0.4937
 2679TIP3    H1 8001   1.102   2.405   2.586 -0.6186  0.5655  2.4237
 2679TIP3    H2 8002   1.146   2.298   2.684  0.2619  0.3652  1.8206
 2680TIP3   OH2 8003   4.474   1.440   5.138 -0.1258  0.5733  0.2592
 2680TIP3    H1 8004   4.407   1.479   5.194  0.6653  1.2821  0.7357
 2680TIP3    H2 8005   4.511   1.369   5.190  0.3648  1.0016  0.4945
 2681TIP3   OH2 8006   5.092   4.786   2.834  0.1010 -0.2053 -0.2549
 2681TIP3    H1 8007   5.166   4.816   2.781  1.0850 -0.2649  1.0477
 2681TIP3    H2 8008   5.056   4.865   2.872 -1.2530 -0.0431 -1.7607
 2682TIP3   OH2 8009   2.059   6.384   3.702  0.6124  0.2260 -0.3701
 2682TIP3    H1 8010   2.037   6.476   3.687 -0.2283 -0.1086 -1.3275
 2682TIP3    H2 8011   1.974   6.340   3.708  0.9972 -0.3487  1.0732
 2683TIP3   OH2 8012   5.471   3.802   4.687  0.1243 -0.1145  0.2590
 2683TIP3    H1 8013   5.490   3.855   4.765 -0.3713  0.2395  0.1408
 2683TIP3    H2 8014   5.425   3.725   4.721 -2.8526  1.4500  0.0566
 2684TIP3   OH2 8015   4.180   1.709   5.089  0.4119 -0.5520  0.4523
 2684TIP3    H1 8016   4.196   1.656   5.010  0.1381 -0.3485  0.2560
 2684TIP3    H2 8017   4.219   1.659   5.160 -1.1547 -1.7725  0.5029
 2685TIP3   OH2 8018   1.700   4.433   0.806 -0.5687  0.4952  0.4555
 2685TIP3    H1 8019   1.742   4.469   0.884  0.1508  1.7225 -0.4643
 2685TIP3    H2 8020   1.758   4.361   0.780 -1.6341 -0.9399  1.8954
 2686TIP3   OH2 8021   5.748   3.986   3.268 -0.0856 -0.5452  0.2727
 2686TIP3    H1 8022   5.808   3.923   3.226 -1.5679 -1.1041 -1.1241
 2686TIP3    H2 8023   5.661   3.955   3.243 -0.8745  1.7267  0.0398
 2687TIP3   OH2 8024   0.809   1.261   1.260  0.2547 -0.3043 -0.0769
 2687TIP3    H1 8025   0.783   1.212   1.182 -2.7149 -0.1594  0.6964
 2687TIP3    H2 8026   0.859   1.199   1.313 -1.4629 -1.8229 -0.1592
 2688TIP3   OH2 8027   0.551   0.466   0.787  0.0489  0.2304 -0.0604
 2688TIP3    H1 8028   0.539   0.436   0.697  4.4549 -1.3011 -0.3711
 2688TIP3    H2 8029   0.527   0.391   0.841  0.9328 -0.1691 -0.2118
 2689TIP3   OH2 8030   1.928   4.696   4.176  0.5270  0.0388  0.0455
 2689TIP3    H1 8031   1.921   4.609   4.216 -0.9110 -0.2874 -0.8435
 2689TIP3    H2 8032   1.962   4.680   4.088  1.5307  0.5241  0.3315
 2690TIP3   OH2 8033   4.100   6.725   2.755  0.1852  0.1156  0.4691
 2690TIP3    H1 8034   4.045   6.791   2.713  0.9753 -0.8857 -2.3291
 2690TIP3    H2 8035   4.049   6.695   2.829 -1.8549  1.1378 -0.4524
 2691TIP3   OH2 8036   3.918   3.702   3.505  0.2953 -0.0972 -0.5358
 2691TIP3    H1 8037   4.011   3.722   3.516 -0.2183  1.9113  0.5418
 2691TIP3    H2 8038   3.903   3.625   3.560  0.7178  1.4125  1.8026
 2692TIP3   OH2 8039   6.391   0.436   3.370 -0.3152  0.0445  0.1205
 2692TIP3    H1 8040   6.360   0.347   3.353  0.7312 -0.4510  0.7280
 2692TIP3    H2 8041   6.312   0.484   3.396 -1.1714 -0.2859 -1.7253
 2693TIP3   OH2 8042   0.138   0.367   2.039 -0.3128  0.5996 -0.6331
 2693TIP3    H1 8043   0.155   0.432   2.107  2.0203  0.3864 -0.9262
 2693TIP3    H2 8044   0.064   0.316   2.072 -1.0624  2.2760  0.3978
 2694TIP3   OH2 8045   2.788   1.128   1.000 -0.3448 -0.0236 -0.1229
 2694TIP3    H1 8046   2.727   1.199   1.022 -1.1509 -0.8851  0.5489
 2694TIP3    H2 8047   2.754   1.092   0.918 -0.8705 -0.6235  0.3479
 2695TIP3   OH2 8048   1.935   0.697   1.251 -0.7050  0.2707  0.3968
 2695TIP3    H1 8049   1.946   0.709   1.345  0.8641  1.3351  0.1145
 2695TIP3    H2 8050   1.884   0.617   1.243 -1.9175  0.7980  2.1748
 2696TIP3   OH2 8051   6.585   2.119   2.234 -0.3966 -0.1923  0.6762
 2696TIP3    H1 8052   6.611   2.164   2.314 -1.6339  0.1682  0.9071
 2696TIP3    H2 8053   6.572   2.190   2.170 -0.5293 -0.3765  0.4965
 2697TIP3   OH2 8054   6.757   4.240   5.217 -0.4855  1.1100 -0.1169
 2697TIP3    H1 8055   6.682   4.296   5.237 -0.7888  0.5094  0.5005
 2697TIP3    H2 8056   6.728   4.152   5.244 -0.0724  0.6335 -1.1660
 2698TIP3   OH2 8057   2.257   1.692   0.013  0.4705 -0.4837  0.0872
 2698TIP3    H1 8058   2.296   1.761   0.067  1.0537  0.7807 -1.8286
 2698TIP3    H2 8059   2.330   1.634  -0.007  0.5559 -0.2274 -0.3709
 2699TIP3   OH2 8060   6.875   3.403   1.740 -0.2324 -0.0963 -0.2891
 2699TIP3    H1 8061   6.841   3.428   1.654 -0.3606 -1.7595 -0.7706
 2699TIP3    H2 8062   6.956   3.356   1.721 -2.6366 -4.9722 -0.0843
 2700TIP3   OH2 8063   3.584   5.908   1.163 -0.0850  0.0079 -0.0300
 2700TIP3    H1 8064   3.510   5.849   1.177  0.7141 -0.9876  0.1150
 2700TIP3    H2 8065   3.559   5.990   1.206 -1.3833 -0.0761 -0.5970
 2701TIP3   OH2 8066   4.923   3.353   1.205 -0.0513  0.6999  0.3096
 2701TIP3    H1 8067   5.009   3.376   1.169  0.3341 -0.4657  0.4339
 2701TIP3    H2 8068   4.919   3.258   1.198 -1.2023  0.7111  0.6263
 2702TIP3   OH2 8069   4.738   1.598   5.104 -0.1495  0.5572  0.3140
 2702TIP3    H1 8070   4.643   1.588   5.104 -0.0854 -0.1112  0.2124
 2702TIP3    H2 8071   4.753   1.689   5.129 -0.7933  0.4597  1.1102
 2703TIP3   OH2 8072   6.194   0.713   2.270 -0.2232  0.5994 -0.3578
 2703TIP3    H1 8073   6.104   0.694   2.245  0.1579 -0.1379 -1.2453
 2703TIP3    H2 8074   6.218   0.641   2.329  0.4571 -0.4840 -1.8573
 2704TIP3   OH2 8075   0.835   5.685   2.917 -0.1684 -0.1860  0.2701
 2704TIP3    H1 8076   0.746   5.669   2.949 -0.7079  1.3168 -0.4270
 2704TIP3    H2 8077   0.880   5.724   2.991 -0.5068  0.3498  0.2011
 2705TIP3   OH2 8078   0.979   3.574   4.313 -0.0899  0.1350  0.4131
 2705TIP3    H1 8079   0.915   3.645   4.321 -1.2474 -0.8847  0.6036
 2705TIP3    H2 8080   0.927   3.498   4.286  0.5552 -1.4227  3.1560
 2706TIP3   OH2 8081   3.455   4.998   5.046  0.2358  0.1938  0.1686
 2706TIP3    H1 8082   3.390   4.985   4.978 -0.6574 -1.1297  1.2170
 2706TIP3    H2 8083   3.421   5.070   5.099  0.1710  0.2206  0.0906
 2707TIP3   OH2 8084   4.852   4.091   5.236 -0.0697  0.3884  0.2218
 2707TIP3    H1 8085   4.856   4.185   5.253  0.4186  0.5354 -0.6631
 2707TIP3    H2 8086   4.941   4.059   5.253  0.0076  0.2580 -0.3980
 2708TIP3   OH2 8087   6.983   4.840   2.417  0.3878 -0.0676 -0.1340
 2708TIP3    H1 8088   7.031   4.765   2.452  0.1431 -0.2930 -0.2771
 2708TIP3    H2 8089   6.916   4.801   2.360  0.6947  0.2873 -0.7462
 2709TIP3   OH2 8090   0.585   0.531   4.973 -0.5151  0.0731  0.6907
 2709TIP3    H1 8091   0.619   0.619   4.958 -0.1009 -0.2469 -0.3616
 2709TIP3    H2 8092   0.662   0.475   4.972 -0.9337 -0.5251 -0.5883
 2710TIP3   OH2 8093   1.079   4.305   4.336 -0.1208 -0.3117  0.2591
 2710TIP3    H1 8094   1.062   4.348   4.252 -0.8777 -0.1448  0.4829
 2710TIP3    H2 8095   1.148   4.242   4.318  1.3673  1.3236  0.0207
 2711TIP3   OH2 8096   2.896   0.520   4.458 -0.3799  0.2246  0.6263
 2711TIP3    H1 8097   2.819   0.475   4.426 -0.2263 -0.5575  1.3212
 2711TIP3    H2 8098   2.898   0.603   4.410 -1.0998 -0.1727 -0.0941
 2712TIP3   OH2 8099   6.513   0.127   4.858  0.5171 -0.6026 -0.6935
 2712TIP3    H1 8100   6.580   0.190   4.829  1.6151 -1.7078 -0.6067
 2712TIP3    H2 8101   6.445   0.182   4.897  0.3505  0.7368 -2.6656
 2713TIP3   OH2 8102   7.026   3.267   5.103  0.2445 -0.1751 -0.0729
 2713TIP3    H1 8103   6.930   3.264   5.107  0.1712 -0.0472 -1.2229
 2713TIP3    H2 8104   7.055   3.239   5.190 -0.8435  1.7644  0.9824
 2714TIP3   OH2 8105   1.161   1.992   1.722 -0.1772 -0.1682 -0.4344
 2714TIP3    H1 8106   1.197   1.970   1.808 -0.5865  0.7793 -0.0136
 2714TIP3    H2 8107   1.151   2.087   1.724 -3.0493 -0.3815 -0.3816
 2715TIP3   OH2 8108   4.967   4.139   5.783 -0.4505  0.1040 -0.5003
 2715TIP3    H1 8109   4.976   4.210   5.720  3.0405 -0.7239 -1.1142
 2715TIP3    H2 8110   5.005   4.063   5.739 -0.1392 -1.0863  1.7017
 2716TIP3   OH2 8111   6.348   0.098   2.009  0.3291  0.2703 -0.2076
 2716TIP3    H1 8112   6.296   0.040   2.064 -0.9783  1.7039  0.1533
 2716TIP3    H2 8113   6.421   0.044   1.979 -0.7543 -1.5038  0.1827
 2717TIP3   OH2 8114   0.890   2.908   2.406  0.1858  0.3930  0.4816
 2717TIP3    H1 8115   0.948   2.978   2.435 -1.2767  1.0928  1.8455
 2717TIP3    H2 8116   0.832   2.891   2.480 -1.0158 -0.6444 -0.6286
 2718TIP3   OH2 8117   0.712   2.243   5.520  0.4363 -0.2070  0.0618
 2718TIP3    H1 8118   0.732   2.304   5.449  0.4816  0.6299  0.7814
 2718TIP3    H2 8119   0.628   2.205   5.496  0.5756 -0.1236 -0.5688
 2719TIP3   OH2 8120   0.124   2.888   0.699 -0.7729  0.3597  0.3076
 2719TIP3    H1 8121   0.198   2.829   0.714 -1.7086 -0.3511  2.4029
 2719TIP3    H2 8122   0.092   2.863   0.612  0.9510  0.1819 -0.3321
 2720TIP3   OH2 8123   4.489   5.706   2.987  0.6253  0.6533 -0.0236
 2720TIP3    H1 8124   4.452   5.736   3.071  1.8985  0.4691  0.6225
 2720TIP3    H2 8125   4.424   5.732   2.922 -0.3438  0.8990  1.0044
 2721TIP3   OH2 8126   5.604   1.401   1.057 -0.5220  0.5558  0.1723
 2721TIP3    H1 8127   5.675   1.459   1.085 -0.6092 -0.2092  2.1925
 2721TIP3    H2 8128   5.587   1.425   0.966  2.0133  1.0596 -0.2409
 2722TIP3   OH2 8129   5.515   4.806   0.260 -0.7082 -0.3414  0.4330
 2722TIP3    H1 8130   5.428   4.779   0.230 -0.8837 -0.8104  1.3150
 2722TIP3    H2 8131   5.524   4.765   0.346  1.1613 -1.8995 -0.4359
 2723TIP3   OH2 8132   2.707   4.172   4.898  0.4318  0.1167 -0.0411
 2723TIP3    H1 8133   2.739   4.214   4.978  1.4358  1.1552 -0.9611
 2723TIP3    H2 8134   2.673   4.088   4.928  1.5999  0.1023  1.3640
 2724TIP3   OH2 8135   5.430   5.562   4.077  0.1337  0.5855  0.2197
 2724TIP3    H1 8136   5.364   5.616   4.033  0.4736 -0.3230 -1.5185
 2724TIP3    H2 8137   5.466   5.508   4.007  1.1683 -0.5082  1.5478
 2725TIP3   OH2 8138   0.390   1.798   1.897  0.2723  0.2402  0.0430
 2725TIP3    H1 8139   0.346   1.721   1.862 -1.2791  0.6179  1.0137
 2725TIP3    H2 8140   0.393   1.860   1.824 -0.9746  0.2420 -0.0337
 2726TIP3   OH2 8141   4.019   5.524   3.275  0.0671 -0.8851  0.6312
 2726TIP3    H1 8142   3.966   5.546   3.198  0.9120 -0.6157  0.1189
 2726TIP3    H2 8143   3.986   5.439   3.303 -0.4480 -0.8518  0.1452
 2727TIP3   OH2 8144   6.561   5.606   0.721  0.4131  0.4301 -0.4051
 2727TIP3    H1 8145   6.504   5.570   0.653 -0.6331  0.3376  0.4894
 2727TIP3    H2 8146   6.629   5.653   0.673  0.9222 -1.3881 -1.5695
 2728TIP3   OH2 8147   1.320   4.943   1.995  0.1165 -0.0616  0.0891
 2728TIP3    H1 8148   1.388   4.984   1.942  1.9031 -0.7603  1.7286
 2728TIP3    H2 8149   1.265   4.897   1.932 -0.5798  2.8066 -1.5639
 2729TIP3   OH2 8150   1.615   4.277   1.456 -0.3360  0.0610  0.1971
 2729TIP3    H1 8151   1.545   4.237   1.404  0.1787 -0.5400 -0.0498
 2729TIP3    H2 8152   1.657   4.340   1.396  0.4892 -0.8900 -0.2656
 2730TIP3   OH2 8153   0.216   5.084   5.832 -0.0876 -0.0661 -0.4548
 2730TIP3    H1 8154   0.155   5.084   5.906  0.6986  1.6249  0.2584
 2730TIP3    H2 8155   0.297   5.119   5.868  0.2235  1.0983 -2.1731
 2731TIP3   OH2 8156   3.903   1.334   3.199 -0.2403  0.0510 -0.7311
 2731TIP3    H1 8157   3.859   1.296   3.123 -1.1896 -0.1435 -0.1013
 2731TIP3    H2 8158   3.842   1.320   3.271  0.7332  0.0554  0.1123
 2732TIP3   OH2 8159   1.533   5.558   0.811 -0.6614  0.4081  0.2558
 2732TIP3    H1 8160   1.533   5.508   0.893  2.0601 -1.1889 -0.5739
 2732TIP3    H2 8161   1.490   5.640   0.833  2.3616  1.2646  4.1691
 2733TIP3   OH2 8162   2.393   3.858   3.198 -0.1289 -0.9169  0.0856
 2733TIP3    H1 8163   2.470   3.914   3.192  0.2601 -1.0537  2.6759
 2733TIP3    H2 8164   2.340   3.881   3.122  1.5109  0.6282 -0.6494
 2734TIP3   OH2 8165   6.532   5.620   2.469  0.6514 -0.0938 -0.1517
 2734TIP3    H1 8166   6.564   5.704   2.436 -0.3272  0.4747  0.3104
 2734TIP3    H2 8167   6.516   5.568   2.390  0.1020  0.5911 -0.4978
 2735TIP3   OH2 8168   3.099   6.560   4.116 -0.4210  0.0027 -0.0074
 2735TIP3    H1 8169   3.188   6.555   4.082  0.1941  2.3929  1.0512
 2735TIP3    H2 8170   3.097   6.640   4.168 -3.7116  1.0404 -1.4730
 2736TIP3   OH2 8171   4.774   4.510   0.553  0.0987 -0.0208 -0.1857
 2736TIP3    H1 8172   4.773   4.518   0.648  2.8733 -2.2868  0.1639
 2736TIP3    H2 8173   4.685   4.481   0.531 -0.4526  0.0338  1.7358
 2737TIP3   OH2 8174   1.950   2.471   1.267  0.8663  0.1777 -0.0231
 2737TIP3    H1 8175   1.891   2.401   1.240 -1.0299  1.6469  0.0693
 2737TIP3    H2 8176   2.023   2.466   1.206 -0.0027 -0.8717 -1.0199
 2738TIP3   OH2 8177   2.338   4.462   4.887  0.3670  0.1393 -0.3614
 2738TIP3    H1 8178   2.424   4.449   4.845  0.6986  0.9275  0.0517
 2738TIP3    H2 8179   2.359   4.480   4.978 -0.0440  2.8668 -0.7265
 2739TIP3   OH2 8180   2.203   6.402   4.000 -0.7056  0.3159 -0.2314
 2739TIP3    H1 8181   2.192   6.382   3.907  1.7343  1.3922 -0.8459
 2739TIP3    H2 8182   2.291   6.440   4.006 -0.2969 -0.8028  2.7112
 2740TIP3   OH2 8183   4.701   6.783   1.920  0.2360  0.1828  0.1070
 2740TIP3    H1 8184   4.661   6.804   1.836 -0.5749  0.7584  0.6272
 2740TIP3    H2 8185   4.669   6.695   1.940  0.7826 -0.1335 -0.3875
 2741TIP3   OH2 8186   0.805   1.183   5.715  0.1573  0.0661 -0.1950
 2741TIP3    H1 8187   0.731   1.243   5.715  0.3970  0.3623 -0.4558
 2741TIP3    H2 8188   0.857   1.209   5.640  0.8192  0.2132  0.3078
 2742TIP3   OH2 8189   1.736   6.556   1.480  0.2191  0.0946  0.0081
 2742TIP3    H1 8190   1.715   6.587   1.392  1.1619  1.9017  0.3613
 2742TIP3    H2 8191   1.662   6.584   1.534  1.2827  2.3495  0.4163
 2743TIP3   OH2 8192   1.796   4.537   1.505  0.0802  0.4854  0.0000
 2743TIP3    H1 8193   1.750   4.548   1.588 -1.6506  2.7360 -1.1597
 2743TIP3    H2 8194   1.727   4.537   1.439  1.4326 -0.8909 -1.5067
 2744TIP3   OH2 8195   4.161   4.011   1.181 -0.3795 -0.0522 -0.0925
 2744TIP3    H1 8196   4.066   4.001   1.175 -0.3014 -1.2044  0.3790
 2744TIP3    H2 8197   4.182   4.075   1.113 -1.3845 -0.4615 -0.8139
 2745TIP3   OH2 8198   6.131   0.177   3.602  0.1943  0.4039 -0.1412
 2745TIP3    H1 8199   6.059   0.115   3.610  0.5625  0.0562  0.5753
 2745TIP3    H2 8200   6.172   0.156   3.518  1.2374 -1.3390  0.7575
 2746TIP3   OH2 8201   3.317   3.228   0.849  0.0129  0.3032 -0.5251
 2746TIP3    H1 8202   3.332   3.296   0.915 -0.6965  2.5609 -2.5552
 2746TIP3    H2 8203   3.379   3.248   0.779  0.0145 -1.3794 -1.0475
 2747TIP3   OH2 8204   3.544   4.324   4.230  0.2246  0.1216 -0.1519
 2747TIP3    H1 8205   3.563   4.230   4.229 -0.2511  0.0287 -0.5489
 2747TIP3    H2 8206   3.606   4.361   4.167  0.3271  0.0593 -0.0892
 2748TIP3   OH2 8207   5.578   4.210   5.506  0.0619 -0.9988  0.2911
 2748TIP3    H1 8208   5.672   4.199   5.491  0.1546 -1.3657  1.0972
 2748TIP3    H2 8209   5.545   4.247   5.424  1.0558 -0.0249  0.2983
 2749TIP3   OH2 8210   7.099   1.739   5.512 -0.2198  0.0305 -0.2797
 2749TIP3    H1 8211   7.025   1.792   5.482 -0.4973 -0.0365  0.2796
 2749TIP3    H2 8212   7.099   1.748   5.607 -1.3534 -2.3189  0.0269
 2750TIP3   OH2 8213   0.344   5.478   1.101 -0.6377 -0.0193 -0.4198
 2750TIP3    H1 8214   0.429   5.521   1.113 -0.0642 -1.5476  1.2383
 2750TIP3    H2 8215   0.281   5.538   1.141 -0.2807  0.7509 -0.9734
 2751TIP3   OH2 8216   4.493   4.458   0.465 -0.2172 -0.1973  0.5950
 2751TIP3    H1 8217   4.506   4.523   0.395  0.7019 -1.4314 -0.4195
 2751TIP3    H2 8218   4.422   4.402   0.433 -0.5585 -0.1106  1.1744
 2752TIP3   OH2 8219   6.569   4.925   1.346  0.2589  0.6761  0.3916
 2752TIP3    H1 8220   6.596   4.908   1.436  3.2503  1.7763 -0.1895
 2752TIP3    H2 8221   6.615   4.859   1.294  0.1551  1.2891 -0.5047
 2753TIP3   OH2 8222   3.197   5.274   1.426  0.0552 -0.3637  0.1300
 2753TIP3    H1 8223   3.214   5.213   1.354 -0.2607  0.2276 -0.4561
 2753TIP3    H2 8224   3.166   5.353   1.383 -0.2686 -0.0472  0.9354
 2754TIP3   OH2 8225   7.226   3.172   5.805  0.4273  0.2138 -0.1744
 2754TIP3    H1 8226   7.266   3.169   5.892 -0.2923 -2.0203  0.1307
 2754TIP3    H2 8227   7.133   3.185   5.822  0.2551 -0.4530 -0.5978
 2755TIP3   OH2 8228  -0.004   1.095   0.631  0.0552  0.1587  0.2798
 2755TIP3    H1 8229  -0.000   1.190   0.622 -0.2540  0.0998 -0.5311
 2755TIP3    H2 8230   0.066   1.074   0.693 -0.4902  1.0040  1.2079
 2756TIP3   OH2 8231   4.708   4.097   3.771 -0.6244 -0.0977 -0.0353
 2756TIP3    H1 8232   4.693   4.011   3.811  2.3420 -1.2872 -1.1803
 2756TIP3    H2 8233   4.764   4.143   3.834  2.5137 -1.2778 -1.7570
 2757TIP3   OH2 8234   3.198   3.777   3.683  0.2336 -0.4565  0.0628
 2757TIP3    H1 8235   3.207   3.716   3.610 -0.0629 -1.1686  0.6069
 2757TIP3    H2 8236   3.139   3.845   3.650  0.4946 -0.5091 -0.5231
 2758TIP3   OH2 8237   6.227   3.578   5.696 -0.2163  0.2109  0.5029
 2758TIP3    H1 8238   6.236   3.489   5.730  1.2768 -0.3149 -1.1133
 2758TIP3    H2 8239   6.260   3.633   5.767  1.4862 -0.7502  0.5114
 2759TIP3   OH2 8240   2.289   5.701   2.576  0.0858 -0.0973  0.2093
 2759TIP3    H1 8241   2.383   5.722   2.578 -0.0087  0.3488  2.5237
 2759TIP3    H2 8242   2.271   5.684   2.483  2.3173  0.3696 -0.3869
 2760TIP3   OH2 8243   4.835   0.150   3.469  0.1784  0.0099  0.0472
 2760TIP3    H1 8244   4.787   0.082   3.516 -2.1691  2.0999  0.9335
 2760TIP3    H2 8245   4.771   0.221   3.458  2.4815  2.1326 -0.6917
 2761TIP3   OH2 8246   6.305   2.413   5.119  0.0961  0.2523  0.0548
 2761TIP3    H1 8247   6.244   2.429   5.046  1.4523  0.1865 -1.1332
 2761TIP3    H2 8248   6.249   2.383   5.190 -1.3403  0.8053 -0.7923
 2762TIP3   OH2 8249   1.723   4.143   2.819 -0.1250 -0.3114 -0.5258
 2762TIP3    H1 8250   1.755   4.230   2.839 -0.2444 -0.3546 -0.1457
 2762TIP3    H2 8251   1.655   4.126   2.885 -0.0083 -0.7446 -0.5140
 2763TIP3   OH2 8252   3.893   1.771   4.949 -0.5760 -0.0793  0.3901
 2763TIP3    H1 8253   3.935   1.729   5.024  0.1335 -0.6439 -0.3084
 2763TIP3    H2 8254   3.833   1.704   4.916  0.1255 -0.3413 -0.3711
 2764TIP3   OH2 8255   1.547   3.652   4.729  0.4868  0.0526 -0.2139
 2764TIP3    H1 8256   1.595   3.570   4.745  0.0524 -0.4289 -1.2740
 2764TIP3    H2 8257   1.551   3.664   4.634 -0.4972  0.6214 -0.1987
 2765TIP3   OH2 8258   0.962   5.078   2.260 -0.2992  0.3927  0.5713
 2765TIP3    H1 8259   0.952   5.168   2.228  0.0640 -0.2141 -1.3874
 2765TIP3    H2 8260   1.057   5.065   2.265 -0.3529  0.1393  0.9300
 2766TIP3   OH2 8261   3.294   4.232   1.694  0.1135  0.0348 -0.5208
 2766TIP3    H1 8262   3.237   4.169   1.650  1.5118 -3.1583  1.8989
 2766TIP3    H2 8263   3.244   4.259   1.771  0.2987  0.4086 -0.5308
 2767TIP3   OH2 8264   4.725   3.348   4.433  0.4057 -0.5988 -0.9723
 2767TIP3    H1 8265   4.665   3.420   4.455  0.6323 -0.3179 -1.2627
 2767TIP3    H2 8266   4.774   3.333   4.513 -0.0276 -0.8025 -0.7449
 2768TIP3   OH2 8267   1.214   0.073   1.942 -0.3434  0.2775 -0.1535
 2768TIP3    H1 8268   1.274   0.036   2.006 -1.3679 -0.7307  0.2665
 2768TIP3    H2 8269   1.265   0.138   1.895  1.6764 -1.9825 -1.2456
 2769TIP3   OH2 8270   3.040   4.114   4.074  0.1100 -0.0477  0.1025
 2769TIP3    H1 8271   2.999   4.028   4.086  0.5202 -0.0668  1.6835
 2769TIP3    H2 8272   3.004   4.146   3.992 -1.1510 -1.1281  0.1874
 2770TIP3   OH2 8273   6.253   2.136   1.350  0.1932  0.5063 -0.1855
 2770TIP3    H1 8274   6.160   2.142   1.368  0.0577  0.2603 -0.7889
 2770TIP3    H2 8275   6.293   2.199   1.410 -0.2982  0.1821  0.4912
 2771TIP3   OH2 8276   7.145   6.593   3.052 -0.3424  0.5022  0.0137
 2771TIP3    H1 8277   7.189   6.595   3.137  1.4799  0.5665 -0.8867
 2771TIP3    H2 8278   7.206   6.546   2.994 -0.6057  2.1580 -1.7193
 2772TIP3   OH2 8279   6.135   0.439   3.665 -0.5099 -0.2502  0.0795
 2772TIP3    H1 8280   6.123   0.347   3.641 -0.3079 -0.0774 -0.7230
 2772TIP3    H2 8281   6.126   0.486   3.582 -2.3750  0.6322  0.7218
 2773TIP3   OH2 8282   2.237   2.655   0.943 -0.0684  0.1226  0.4343
 2773TIP3    H1 8283   2.330   2.641   0.926  0.5261  3.0297  0.8106
 2773TIP3    H2 8284   2.200   2.677   0.857 -0.0405  0.6363  0.5505
 2774TIP3   OH2 8285   0.892   2.945   0.375  0.4068 -0.2618 -0.0069
 2774TIP3    H1 8286   0.827   2.982   0.315  0.9170 -0.6283 -0.8016
 2774TIP3    H2 8287   0.969   2.930   0.320  1.5297  1.1423  1.1236
 2775TIP3   OH2 8288   2.816   0.151   0.132  0.2582  0.0448  0.7020
 2775TIP3    H1 8289   2.902   0.123   0.101 -0.1685 -1.0767  0.4538
 2775TIP3    H2 8290   2.801   0.097   0.210  1.1634  2.5601  2.7505
 2776TIP3   OH2 8291   0.083  -0.004   2.428 -0.1329 -0.0090 -0.1523
 2776TIP3    H1 8292   0.080   0.091   2.418  1.1524  0.2177  1.2160
 2776TIP3    H2 8293   0.009  -0.037   2.376 -1.6939  1.8570  0.7683
 2777TIP3   OH2 8294   5.866   4.477   0.821  0.7059  0.3824  0.2949
 2777TIP3    H1 8295   5.791   4.511   0.772  0.1869  0.0504  0.8320
 2777TIP3    H2 8296   5.846   4.499   0.912  0.8461 -0.4518  0.5396
 2778TIP3   OH2 8297   2.905   2.093   0.035  0.3809  0.1995  0.0281
 2778TIP3    H1 8298   2.878   2.033  -0.035  2.3474 -0.3298 -0.3252
 2778TIP3    H2 8299   2.853   2.067   0.111  0.6934 -1.4981 -0.3136
 2779TIP3   OH2 8300   7.155   1.425   4.858  0.2270  0.1661 -0.2922
 2779TIP3    H1 8301   7.152   1.443   4.764  4.0726  1.2098 -0.3576
 2779TIP3    H2 8302   7.147   1.330   4.864 -0.7360  0.1342 -1.5727
 2780TIP3   OH2 8303   3.505   0.771   5.246  0.2886 -0.4942  0.6694
 2780TIP3    H1 8304   3.496   0.682   5.213  0.4473  0.0174 -0.8837
 2780TIP3    H2 8305   3.600   0.784   5.254  0.2413 -1.1891  3.1593
 2781TIP3   OH2 8306   1.362   4.719   2.153 -0.4321  0.3725  0.4164
 2781TIP3    H1 8307   1.277   4.711   2.197 -0.8500  1.7443 -0.1050
 2781TIP3    H2 8308   1.353   4.795   2.096  0.6448 -0.4001 -0.8375
 2782TIP3   OH2 8309   3.899   1.664   0.471 -0.2777  0.1568 -0.4788
 2782TIP3    H1 8310   3.841   1.672   0.395 -0.1649 -0.3699 -0.6241
 2782TIP3    H2 8311   3.928   1.573   0.470 -1.3354 -0.2310  0.9725
 2783TIP3   OH2 8312   1.957   5.925   0.390 -0.3511 -0.5046  0.7141
 2783TIP3    H1 8313   1.965   5.993   0.457  0.4413 -0.0312  0.1482
 2783TIP3    H2 8314   1.910   5.855   0.434 -1.2329  0.4162  1.3024
 2784TIP3   OH2 8315   4.951   1.256   5.122 -0.2817 -0.0880  0.4321
 2784TIP3    H1 8316   4.915   1.288   5.205 -1.2507  0.6729 -0.2520
 2784TIP3    H2 8317   5.036   1.219   5.145 -0.5216  0.1416  1.7584
 2785TIP3   OH2 8318   0.917   4.133   2.440  0.1378 -0.2832  0.1233
 2785TIP3    H1 8319   0.863   4.180   2.376  1.9938  0.4302 -0.9997
 2785TIP3    H2 8320   0.938   4.050   2.396 -0.8241 -0.9909  0.9605
 2786TIP3   OH2 8321   6.194   5.254   1.165 -0.5030  0.4848  0.0850
 2786TIP3    H1 8322   6.211   5.209   1.083 -0.4429  0.2137  0.2453
 2786TIP3    H2 8323   6.257   5.217   1.227  0.4552  1.7481 -0.1096
 2787TIP3   OH2 8324   5.116   3.119   0.549 -0.7711  0.6322  0.5276
 2787TIP3    H1 8325   5.148   3.172   0.476 -0.4312 -0.8184 -0.4109
 2787TIP3    H2 8326   5.024   3.103   0.528 -0.3590 -0.8166 -0.2325
 2788TIP3   OH2 8327   5.324   1.423   1.298  0.0580  0.5406  0.1987
 2788TIP3    H1 8328   5.414   1.445   1.324  0.3163  0.6981 -0.7961
 2788TIP3    H2 8329   5.295   1.498   1.246 -0.5079  0.3112  0.1781
 2789TIP3   OH2 8330   4.548   3.520   2.678  0.2614  0.5534  1.1566
 2789TIP3    H1 8331   4.527   3.598   2.729 -0.5267  1.2164 -0.0946
 2789TIP3    H2 8332   4.551   3.449   2.741  2.0747  1.7415  2.4971
 2790TIP3   OH2 8333   5.479   2.078   3.870  0.4463  0.5356 -0.1870
 2790TIP3    H1 8334   5.552   2.050   3.815 -0.0180  0.4422 -0.7677
 2790TIP3    H2 8335   5.499   2.042   3.956 -0.6468 -2.6327 -1.1073
 2791TIP3   OH2 8336   2.088   4.555   4.800  0.1824  0.3669 -0.2337
 2791TIP3    H1 8337   2.161   4.512   4.843 -1.0584  0.9367  2.6802
 2791TIP3    H2 8338   2.115   4.646   4.791 -0.6570  0.9617  2.3845
 2792TIP3   OH2 8339   3.878   6.337   4.707  0.1196  0.3307 -0.2144
 2792TIP3    H1 8340   3.789   6.301   4.715  0.1894 -0.0439 -1.0038
 2792TIP3    H2 8341   3.890   6.348   4.612  0.8827  0.4763 -0.1024
 2793TIP3   OH2 8342   4.174   0.589   2.177 -0.5766  0.0278 -0.7693
 2793TIP3    H1 8343   4.251   0.628   2.217 -0.7286  0.4831 -0.9009
 2793TIP3    H2 8344   4.104   0.602   2.242 -0.4647 -0.6985 -0.5039
 2794TIP3   OH2 8345   5.300   0.744   3.744 -0.2598  0.3648  0.0977
 2794TIP3    H1 8346   5.392   0.754   3.719 -0.3606 -0.2466 -0.5225
 2794TIP3    H2 8347   5.299   0.762   3.838  0.7268 -1.0091  0.3942
 2795TIP3   OH2 8348   2.715   4.392   3.504  0.2610 -0.1160 -0.4740
 2795TIP3    H1 8349   2.701   4.327   3.573  1.6942  1.7869  1.7456
 2795TIP3    H2 8350   2.725   4.340   3.424 -1.0717 -2.4473  0.7587
 2796TIP3   OH2 8351   1.947   4.030   5.270 -0.4617  0.3430 -0.0443
 2796TIP3    H1 8352   2.005   4.094   5.229 -1.4826  0.7704 -0.8420
 2796TIP3    H2 8353   2.002   3.989   5.338  1.1161 -0.0550 -1.4950
 2797TIP3   OH2 8354   1.724   2.970   2.478  0.4763  0.0803  0.0092
 2797TIP3    H1 8355   1.648   2.915   2.457  1.8544 -1.2044 -1.9012
 2797TIP3    H2 8356   1.695   3.022   2.553 -1.9326 -1.0887 -0.0027
 2798TIP3   OH2 8357   7.114   0.190   4.227 -0.1208  0.2881 -0.4401
 2798TIP3    H1 8358   7.058   0.143   4.289 -0.2404 -2.3556 -2.3780
 2798TIP3    H2 8359   7.194   0.209   4.276 -0.4926 -1.0644  0.7487
 2799TIP3   OH2 8360   1.729   2.497   0.509 -0.6986 -0.3337  0.0818
 2799TIP3    H1 8361   1.662   2.533   0.451  0.3538 -1.0200 -1.6593
 2799TIP3    H2 8362   1.680   2.460   0.582 -2.1190  0.2193 -0.5456
 2800TIP3   OH2 8363   1.098   0.149   2.239  0.2614 -0.3295  0.1578
 2800TIP3    H1 8364   1.082   0.081   2.175  0.1394 -0.1735  0.0212
 2800TIP3    H2 8365   1.170   0.116   2.293 -0.9374 -1.3507  1.2078
 2801TIP3   OH2 8366   6.495   3.191   1.348 -0.1493  0.3293  0.1368
 2801TIP3    H1 8367   6.500   3.217   1.256  0.1475  2.0273  0.6046
 2801TIP3    H2 8368   6.401   3.189   1.367 -0.1922  0.5563 -0.0464
 2802TIP3   OH2 8369   5.528   4.990   5.681  0.0620  0.2919  0.2303
 2802TIP3    H1 8370   5.534   5.036   5.597 -0.0923  1.2196  0.7108
 2802TIP3    H2 8371   5.434   4.988   5.700  0.0769 -0.1306  0.2752
 2803TIP3   OH2 8372   4.784   6.082   2.458  0.3338  0.0105 -0.2947
 2803TIP3    H1 8373   4.761   6.115   2.545  0.4808 -0.3255 -0.1276
 2803TIP3    H2 8374   4.871   6.117   2.441  0.1856  0.3163 -0.4313
 2804TIP3   OH2 8375   0.158   5.352   4.073  0.9660  0.7136 -0.6392
 2804TIP3    H1 8376   0.228   5.341   4.138  0.3404  0.5005  0.0083
 2804TIP3    H2 8377   0.077   5.341   4.123  0.4812 -1.0988 -1.7311
 2805TIP3   OH2 8378   4.185   3.542   0.697 -0.0406  0.8100 -0.3883
 2805TIP3    H1 8379   4.237   3.505   0.626 -0.2130 -0.6866  0.2310
 2805TIP3    H2 8380   4.248   3.553   0.769 -0.3964 -0.3367  0.1270
 2806TIP3   OH2 8381   6.874   0.139   5.462 -0.2209  0.3232 -0.3346
 2806TIP3    H1 8382   6.825   0.099   5.533 -0.1015  0.3024 -0.2645
 2806TIP3    H2 8383   6.965   0.114   5.477 -0.1937  0.3223 -0.4908
 2807TIP3   OH2 8384   2.229   1.663   1.454 -0.0353  0.0226  0.2141
 2807TIP3    H1 8385   2.203   1.643   1.364 -0.0449 -2.2721  0.6664
 2807TIP3    H2 8386   2.147   1.687   1.497 -0.2052  0.0527 -0.1228
 2808TIP3   OH2 8387   2.128   0.830   0.209  0.7943  0.4431 -0.5153
 2808TIP3    H1 8388   2.130   0.915   0.165  0.9424  1.1611  0.8455
 2808TIP3    H2 8389   2.068   0.841   0.282  0.8052 -0.6336 -0.3184
 2809TIP3   OH2 8390   4.371   5.596   1.772 -0.6559 -0.2402  0.1821
 2809TIP3    H1 8391   4.453   5.556   1.800 -0.7788  0.1341  1.1372
 2809TIP3    H2 8392   4.345   5.651   1.846  0.1430  2.6210 -1.5117
 2810TIP3   OH2 8393   4.461   6.580   1.062  0.4364 -0.3155 -0.3036
 2810TIP3    H1 8394   4.540   6.606   1.015  0.4056 -0.2405 -0.3158
 2810TIP3    H2 8395   4.482   6.595   1.154 -0.3401  1.9654 -0.4221
 2811TIP3   OH2 8396   5.479   5.717   1.430  0.1802 -0.0257  0.2541
 2811TIP3    H1 8397   5.509   5.734   1.519  2.2541 -1.0641 -0.1733
 2811TIP3    H2 8398   5.398   5.767   1.422  0.2610  0.5855  2.5035
 2812TIP3   OH2 8399   3.230   0.721   5.057 -0.1770  0.6759 -0.5414
 2812TIP3    H1 8400   3.148   0.771   5.054  0.2448  1.5571  1.1406
 2812TIP3    H2 8401   3.240   0.697   5.149  1.6677  0.9786 -0.6270
 2813TIP3   OH2 8402   6.526   5.833   2.277 -0.1539  0.5139 -0.0873
 2813TIP3    H1 8403   6.438   5.793   2.278  0.7424 -1.6398 -1.0781
 2813TIP3    H2 8404   6.526   5.887   2.198 -0.6693  0.7702  0.0794
 2814TIP3   OH2 8405   0.050   0.801   3.774  0.5135 -0.0763  0.6877
 2814TIP3    H1 8406   0.134   0.773   3.810  0.7814 -0.5945 -0.2940
 2814TIP3    H2 8407  -0.003   0.825   3.851  1.6854  0.6606  1.2872
 2815TIP3   OH2 8408   3.557   4.930   1.483 -0.0963 -0.4127  0.2180
 2815TIP3    H1 8409   3.532   4.984   1.558 -0.7727 -0.5923  0.1203
 2815TIP3    H2 8410   3.641   4.968   1.454 -0.6818  0.7617 -0.0100
 2816TIP3   OH2 8411   3.267   3.550   3.893  0.3332  0.2238 -0.5336
 2816TIP3    H1 8412   3.313   3.591   3.820 -1.8624  1.1200 -1.5233
 2816TIP3    H2 8413   3.174   3.553   3.867 -0.2087 -2.9159  0.6013
 2817TIP3   OH2 8414   2.085   5.259   0.212  0.0189  0.4506  0.3229
 2817TIP3    H1 8415   1.994   5.290   0.210 -0.1207  0.0748 -2.5783
 2817TIP3    H2 8416   2.078   5.169   0.246 -0.6842  0.4316  0.1476
 2818TIP3   OH2 8417   2.538   5.437   2.475 -0.3962  0.0156 -0.1394
 2818TIP3    H1 8418   2.597   5.458   2.402  0.2115 -1.6198 -0.1611
 2818TIP3    H2 8419   2.570   5.490   2.548  1.9576 -1.7103  0.2097
 2819TIP3   OH2 8420   1.892   1.599   1.086  0.5947  0.5093  0.7626
 2819TIP3    H1 8421   1.901   1.586   1.181  0.1414 -1.4343  0.5645
 2819TIP3    H2 8422   1.918   1.516   1.048  1.1482  1.3931 -0.8763
 2820TIP3   OH2 8423   1.545   5.205   3.991  0.4327  0.1586 -0.1268
 2820TIP3    H1 8424   1.501   5.262   3.928  1.9663  1.1702 -0.3286
 2820TIP3    H2 8425   1.638   5.211   3.968  0.8670 -0.5977  1.3338
 2821TIP3   OH2 8426   2.839   5.910   3.110  0.3288 -0.5213 -0.0333
 2821TIP3    H1 8427   2.746   5.891   3.122  0.1465  0.5078  0.2967
 2821TIP3    H2 8428   2.857   5.885   3.019 -0.8510  1.4451 -0.8731
 2822TIP3   OH2 8429   4.701   3.039   0.259  0.3327  0.0834 -0.4623
 2822TIP3    H1 8430   4.791   3.070   0.251  0.3306 -0.1608 -1.4909
 2822TIP3    H2 8431   4.674   3.016   0.170 -1.1097  1.1282 -0.3358
 2823TIP3   OH2 8432   2.184   4.336   3.253  0.1346  0.1269  0.1024
 2823TIP3    H1 8433   2.114   4.348   3.188  0.3441  1.2485  0.0579
 2823TIP3    H2 8434   2.262   4.316   3.201 -0.0909 -0.8526  0.1348
 2824TIP3   OH2 8435   6.064   0.890   3.987  0.2462 -0.4108 -0.0276
 2824TIP3    H1 8436   6.058   0.864   3.896  0.1965  1.1933 -0.5221
 2824TIP3    H2 8437   6.133   0.956   3.988 -1.1822  1.1546  0.6845
 2825TIP3   OH2 8438   4.823   3.364   0.921 -0.4553 -0.5949 -0.1160
 2825TIP3    H1 8439   4.789   3.309   0.992 -1.8114  0.0735 -0.2270
 2825TIP3    H2 8440   4.896   3.411   0.961 -0.4678 -1.0940  0.5087
 2826TIP3   OH2 8441   3.015   6.134   1.159 -0.3244  0.6233  0.1330
 2826TIP3    H1 8442   3.018   6.230   1.160  0.2667  0.6064  0.5023
 2826TIP3    H2 8443   2.924   6.113   1.183 -0.1994  1.0821  1.0461
 2827TIP3   OH2 8444   6.245   1.601   5.793  0.3012  0.0398 -0.3206
 2827TIP3    H1 8445   6.328   1.555   5.777  0.0135 -0.3781 -0.6292
 2827TIP3    H2 8446   6.265   1.660   5.866  0.9011  0.0273 -0.4660
 2828TIP3   OH2 8447   4.912   1.985   2.789 -0.3358 -0.4302  0.1467
 2828TIP3    H1 8448   4.883   1.940   2.868  1.4769 -0.6177  0.7532
 2828TIP3    H2 8449   4.929   2.075   2.818 -1.1969 -0.0712 -0.4143
 2829TIP3   OH2 8450   3.439   3.626   3.662  0.6524  0.2676  0.4999
 2829TIP3    H1 8451   3.350   3.644   3.632  0.7972 -0.2791 -0.2940
 2829TIP3    H2 8452   3.459   3.539   3.627  0.4192 -0.9438  3.1864
 2830TIP3   OH2 8453   6.160   6.034   3.477  0.0249  0.2226  0.2125
 2830TIP3    H1 8454   6.154   6.002   3.387  2.3955 -1.7614  0.6405
 2830TIP3    H2 8455   6.108   5.973   3.529  0.2378  0.2110  0.4154
 2831TIP3   OH2 8456   0.221   5.812   3.676 -0.1151 -0.3609  0.0954
 2831TIP3    H1 8457   0.127   5.820   3.662 -0.1646  2.2227  1.2745
 2831TIP3    H2 8458   0.260   5.872   3.613  0.6472 -0.4199  0.4961
 2832TIP3   OH2 8459   1.924   4.524   5.718 -0.4060 -0.4071 -0.6951
 2832TIP3    H1 8460   1.998   4.575   5.751 -0.9594 -0.0243 -0.0310
 2832TIP3    H2 8461   1.965   4.452   5.670  0.4519 -1.4231  1.4364
 2833TIP3   OH2 8462   0.346   2.665   4.037  0.0509 -0.2195  0.3431
 2833TIP3    H1 8463   0.277   2.671   4.103  0.5086 -0.1249  0.8198
 2833TIP3    H2 8464   0.318   2.723   3.967 -1.1061 -1.3449 -0.1584
 2834TIP3   OH2 8465   3.897   4.311   1.803  0.3923 -0.1306  0.5983
 2834TIP3    H1 8466   3.914   4.404   1.817 -1.8249  0.5425 -0.6622
 2834TIP3    H2 8467   3.851   4.282   1.882  2.1139 -0.5181  1.5116
 2835TIP3   OH2 8468   1.190   5.184   3.711 -0.1931 -0.0995  0.2499
 2835TIP3    H1 8469   1.160   5.166   3.800 -2.6143  1.2581 -0.2105
 2835TIP3    H2 8470   1.276   5.224   3.723 -0.1132 -0.6633  1.9070
 2836TIP3   OH2 8471   5.798   1.444   4.290  0.2827  0.6985  0.5186
 2836TIP3    H1 8472   5.850   1.463   4.368  0.0876  1.6648  0.4249
 2836TIP3    H2 8473   5.753   1.526   4.270  0.0572  0.3681 -0.4032
 2837TIP3   OH2 8474   5.460   2.223   1.713  0.4128  0.0370 -0.3812
 2837TIP3    H1 8475   5.466   2.282   1.789 -0.4438  0.1339 -0.3710
 2837TIP3    H2 8476   5.444   2.136   1.752  1.5651 -0.1964 -0.3999
 2838TIP3   OH2 8477   0.488   1.300   0.309 -0.8893  0.1403  0.0194
 2838TIP3    H1 8478   0.500   1.206   0.323  0.4510  0.2194 -0.5083
 2838TIP3    H2 8479   0.519   1.340   0.391  1.2551  0.2544 -0.7856
 2839TIP3   OH2 8480   7.183   0.982   3.101 -0.1453  0.8902 -0.1807
 2839TIP3    H1 8481   7.242   0.908   3.087  2.6283  2.7194  0.9110
 2839TIP3    H2 8482   7.102   0.942   3.133  1.0691 -1.6761 -0.0015
 2840TIP3   OH2 8483   5.278   0.256   1.055 -0.2574  0.1773  0.0556
 2840TIP3    H1 8484   5.224   0.185   1.020  0.0301  0.0994 -0.2294
 2840TIP3    H2 8485   5.345   0.211   1.107  1.0987  0.1032 -1.6724
 2841TIP3   OH2 8486   6.399   3.825   2.339  0.8193 -0.2362 -0.2331
 2841TIP3    H1 8487   6.447   3.876   2.274 -0.9515 -1.0196 -2.2487
 2841TIP3    H2 8488   6.464   3.764   2.374  1.9295  0.5422 -0.8619
 2842TIP3   OH2 8489   0.768   2.099   1.715  0.1834 -0.2432  0.3602
 2842TIP3    H1 8490   0.730   2.139   1.636  0.1599 -1.5541 -0.3139
 2842TIP3    H2 8491   0.768   2.170   1.780  1.2695  1.2265 -1.1345
 2843TIP3   OH2 8492   2.070   5.044   2.383 -0.4046 -0.0353 -0.2844
 2843TIP3    H1 8493   2.048   4.962   2.428 -0.5779  0.3972  0.4368
 2843TIP3    H2 8494   2.142   5.021   2.325  0.2721 -0.4719  0.6960
 2844TIP3   OH2 8495   5.732   1.535   3.006 -0.0293  0.0723 -0.6201
 2844TIP3    H1 8496   5.744   1.543   3.101 -0.2998 -1.1163 -0.4690
 2844TIP3    H2 8497   5.722   1.625   2.975  0.1261  0.4753  0.4714
 2845TIP3   OH2 8498   5.758   6.519   1.359 -0.0776  0.1051 -0.4372
 2845TIP3    H1 8499   5.676   6.548   1.399  0.4489 -0.3097  1.0000
 2845TIP3    H2 8500   5.745   6.533   1.265 -1.0580  1.8566 -0.0752
 2846TIP3   OH2 8501   0.443   6.098   0.783  0.1679  0.3703 -0.5968
 2846TIP3    H1 8502   0.413   6.032   0.720  1.4563 -0.4241 -0.4230
 2846TIP3    H2 8503   0.392   6.081   0.861 -1.2718  1.2029 -1.3241
 2847TIP3   OH2 8504   3.806   4.263   5.469  0.1013 -0.1435  0.0358
 2847TIP3    H1 8505   3.736   4.287   5.408  0.3321 -0.8897 -0.5319
 2847TIP3    H2 8506   3.760   4.237   5.549 -0.3118 -1.3381 -0.5774
 2848TIP3   OH2 8507   5.769   4.217   5.043  0.1015 -0.5361 -0.1787
 2848TIP3    H1 8508   5.794   4.296   5.090 -1.6316 -0.9382  1.5363
 2848TIP3    H2 8509   5.853   4.174   5.024  0.9607  0.4698  1.1075
 2849TIP3   OH2 8510   4.901   4.761   3.687 -0.2545  0.1726  0.8455
 2849TIP3    H1 8511   4.873   4.833   3.630  1.2400 -0.3022 -0.5339
 2849TIP3    H2 8512   4.930   4.804   3.767  0.5064  1.1143  0.0797
 2850TIP3   OH2 8513   0.152   0.279   2.455  0.5925 -0.8028  0.2219
 2850TIP3    H1 8514   0.194   0.319   2.531  0.9756 -0.5311 -0.1268
 2850TIP3    H2 8515   0.221   0.277   2.388  0.8958 -2.9271  0.5160
 2851TIP3   OH2 8516   0.887   3.596   2.565  0.1039 -0.5566  0.3165
 2851TIP3    H1 8517   0.883   3.501   2.576 -1.4707 -0.7591 -1.5537
 2851TIP3    H2 8518   0.809   3.629   2.609 -0.6329 -0.4097 -1.0263
 2852TIP3   OH2 8519   5.672   2.523   4.174 -0.3445  0.2005 -0.2633
 2852TIP3    H1 8520   5.740   2.549   4.111 -0.7776  0.4407 -0.6374
 2852TIP3    H2 8521   5.639   2.440   4.140 -0.2016  0.0539 -0.0486
 2853TIP3   OH2 8522   1.182   5.684   1.924 -0.2566 -0.5567 -0.0500
 2853TIP3    H1 8523   1.128   5.645   1.856  0.8881 -1.1143 -0.6639
 2853TIP3    H2 8524   1.238   5.746   1.877 -0.7303  0.4425  0.6568
 2854TIP3   OH2 8525   2.110   3.305   3.490 -0.5147 -0.1012 -0.4297
 2854TIP3    H1 8526   2.029   3.352   3.473 -0.1416  0.6797 -0.1050
 2854TIP3    H2 8527   2.086   3.212   3.482 -1.3077  0.1296 -0.8681
 2855TIP3   OH2 8528   0.943   0.770   2.600 -0.4443 -0.5034  0.2443
 2855TIP3    H1 8529   0.999   0.701   2.566 -0.8705 -0.3806 -0.7561
 2855TIP3    H2 8530   0.884   0.790   2.527 -0.2409  0.9972  0.4679
 2856TIP3   OH2 8531   6.790   4.075   0.553 -0.9321 -0.4589  0.1866
 2856TIP3    H1 8532   6.852   4.015   0.594 -0.8571 -1.3975 -1.2211
 2856TIP3    H2 8533   6.837   4.110   0.477 -1.7218 -0.3149 -0.2542
 2857TIP3   OH2 8534   0.620   5.807   3.446 -0.9750  0.2107  0.1215
 2857TIP3    H1 8535   0.684   5.877   3.444 -0.0375 -0.5742  1.2856
 2857TIP3    H2 8536   0.550   5.840   3.503 -1.5404  0.9851 -0.9864
 2858TIP3   OH2 8537   6.035   2.392   1.171  0.7353 -1.0055 -0.5189
 2858TIP3    H1 8538   6.119   2.363   1.135  1.5173  1.0579 -0.4972
 2858TIP3    H2 8539   6.021   2.479   1.133  0.3648  0.2107  2.1593
 2859TIP3   OH2 8540   6.713   1.659   5.413 -0.8425  0.2682  0.4204
 2859TIP3    H1 8541   6.721   1.666   5.318 -1.4945  1.6848  0.4514
 2859TIP3    H2 8542   6.717   1.565   5.430  0.9261  0.0769 -0.8364
 2860TIP3   OH2 8543   6.126   3.695   4.960  0.0310 -0.4085 -0.7783
 2860TIP3    H1 8544   6.215   3.679   4.991  0.1334  1.7361  0.1951
 2860TIP3    H2 8545   6.073   3.700   5.040 -0.4011  1.3386 -1.1285
 2861TIP3   OH2 8546   5.204   1.169   1.251  0.4419  0.3513  0.0819
 2861TIP3    H1 8547   5.221   1.262   1.263  1.0676  0.2439  0.0444
 2861TIP3    H2 8548   5.136   1.166   1.184  2.0326  0.7348 -1.6325
 2862TIP3   OH2 8549   6.396   6.693   0.676 -0.6460 -0.3638 -0.0459
 2862TIP3    H1 8550   6.392   6.767   0.615 -1.0745  0.4975  0.9922
 2862TIP3    H2 8551   6.336   6.717   0.747 -1.0886 -1.8864  0.1332
 2863TIP3   OH2 8552   2.358   4.275   3.041  0.6191  0.2519  0.1256
 2863TIP3    H1 8553   2.328   4.237   2.958  1.7083  0.4666 -0.3789
 2863TIP3    H2 8554   2.421   4.342   3.016  0.7376  0.5322  1.1197
 2864TIP3   OH2 8555   2.450   4.480   0.834 -0.1547  0.2771  0.0966
 2864TIP3    H1 8556   2.544   4.485   0.817 -0.2180 -0.5564 -0.5975
 2864TIP3    H2 8557   2.414   4.558   0.792 -0.0306 -0.5850 -1.7175
 2865TIP3   OH2 8558   4.628   0.753   1.762  0.3902 -0.3030  0.4749
 2865TIP3    H1 8559   4.539   0.726   1.786 -0.0979  0.4742 -0.3655
 2865TIP3    H2 8560   4.622   0.848   1.754  1.0908 -0.3202 -0.3884
 2866TIP3   OH2 8561   1.300   5.625   2.891 -0.0608  0.2869  0.2031
 2866TIP3    H1 8562   1.385   5.635   2.849 -0.9489  0.8669 -1.5796
 2866TIP3    H2 8563   1.306   5.679   2.970  0.3715  2.6031 -1.2979
 2867TIP3   OH2 8564   5.454   2.232   3.533  0.1680 -0.0776 -0.6042
 2867TIP3    H1 8565   5.427   2.252   3.622  1.5409  1.0506 -0.3927
 2867TIP3    H2 8566   5.424   2.143   3.517  0.3718 -0.4930  1.1809
 2868TIP3   OH2 8567   6.347   4.963   4.468 -0.3225 -0.2252  0.4264
 2868TIP3    H1 8568   6.404   4.964   4.392  0.8110  1.2036  1.2309
 2868TIP3    H2 8569   6.278   5.027   4.448 -0.4173 -0.3579  0.3275
 2869TIP3   OH2 8570   3.401   3.990   2.856  0.0038  0.1347 -0.3081
 2869TIP3    H1 8571   3.493   4.003   2.830  0.2919 -1.7888 -0.3793
 2869TIP3    H2 8572   3.373   4.076   2.887  1.4681  1.0544 -1.3735
 2870TIP3   OH2 8573   1.505   4.139   5.136  0.7179  0.0810  0.1701
 2870TIP3    H1 8574   1.556   4.098   5.206 -0.9551 -1.4178  0.5871
 2870TIP3    H2 8575   1.447   4.201   5.181 -1.7050 -2.2226  0.4837
 2871TIP3   OH2 8576   4.093   6.763   0.811  0.3097  0.0147 -1.0402
 2871TIP3    H1 8577   4.125   6.762   0.901  0.6630 -1.3092 -1.1613
 2871TIP3    H2 8578   4.004   6.800   0.817  0.6678  0.7920 -0.2911
 2872TIP3   OH2 8579   3.071   2.209   2.909  0.5275  0.4188 -0.4893
 2872TIP3    H1 8580   3.071   2.241   2.999  2.1740  0.8500 -0.6151
 2872TIP3    H2 8581   3.145   2.149   2.905  1.5153  1.6666 -1.9617
 2873TIP3   OH2 8582   6.623   0.809   3.087 -0.1683 -0.1807  0.0807
 2873TIP3    H1 8583   6.586   0.883   3.136 -3.5370 -2.1476  0.8868
 2873TIP3    H2 8584   6.678   0.763   3.150  0.9637  0.9482 -0.0641
 2874TIP3   OH2 8585   5.145   4.538   3.385 -0.0569 -0.1103 -0.3140
 2874TIP3    H1 8586   5.097   4.455   3.383  0.1272 -0.2186 -0.2914
 2874TIP3    H2 8587   5.233   4.515   3.355 -0.7536  0.5912 -3.2605
 2875TIP3   OH2 8588   1.656   5.148   4.826 -0.7519 -0.4173 -0.0462
 2875TIP3    H1 8589   1.739   5.100   4.835 -0.6531 -0.2649 -0.1314
 2875TIP3    H2 8590   1.676   5.217   4.763 -1.2125 -0.9868 -0.8429
 2876TIP3   OH2 8591   6.007   6.228   5.578 -0.0825 -0.4338  0.4040
 2876TIP3    H1 8592   6.046   6.315   5.591  1.0247 -1.1142  1.9468
 2876TIP3    H2 8593   5.981   6.201   5.666  0.0660 -1.8978  0.0127
 2877TIP3   OH2 8594   2.750   4.609   1.651  0.0410  0.2270  0.4712
 2877TIP3    H1 8595   2.752   4.695   1.608  0.4651 -0.1902 -0.3867
 2877TIP3    H2 8596   2.699   4.622   1.730 -1.0604  0.9589 -0.3323
 2878TIP3   OH2 8597   6.848   2.402   4.243 -0.2205  0.5292 -0.9003
 2878TIP3    H1 8598   6.802   2.485   4.227  0.4796  1.0256 -0.3983
 2878TIP3    H2 8599   6.940   2.423   4.227 -0.0135 -0.0939 -0.5325
 2879TIP3   OH2 8600   5.290   2.998   3.974  0.1986  0.7438  0.1828
 2879TIP3    H1 8601   5.360   2.941   4.006 -1.0349 -1.8084 -1.3111
 2879TIP3    H2 8602   5.336   3.073   3.935  1.8338  1.7625  3.7008
 2880TIP3   OH2 8603   0.791   2.110   4.923  0.0158 -0.5208 -0.0165
 2880TIP3    H1 8604   0.854   2.119   4.852  2.3329  1.0607  2.0566
 2880TIP3    H2 8605   0.716   2.067   4.883  1.0674  0.4898 -3.4271
 2881TIP3   OH2 8606   7.054   0.701   3.437 -0.3797 -0.1600  0.4214
 2881TIP3    H1 8607   7.133   0.729   3.485 -0.4116  2.3735 -0.8061
 2881TIP3    H2 8608   7.084   0.692   3.346 -0.9966 -1.7119  0.3515
 2882TIP3   OH2 8609   5.794   5.470   3.319  0.1646  0.2714  0.3166
 2882TIP3    H1 8610   5.721   5.485   3.379  0.1548  0.0533  0.3611
 2882TIP3    H2 8611   5.837   5.555   3.312 -1.9177  1.2521 -2.1370
 2883TIP3   OH2 8612   5.811   2.958   3.495 -0.4830  0.4038 -0.5492
 2883TIP3    H1 8613   5.853   3.028   3.445  1.9204 -0.5416  0.0236
 2883TIP3    H2 8614   5.838   2.975   3.585 -0.0303 -1.1278 -0.3801
 2884TIP3   OH2 8615   4.072   4.901   3.473  0.1674 -0.3914  0.8192
 2884TIP3    H1 8616   4.153   4.893   3.423  0.1797  0.0593  0.7612
 2884TIP3    H2 8617   4.097   4.882   3.563  0.2088 -0.8889  0.7083
 2885TIP3   OH2 8618   2.474   5.888   3.746 -0.6417  0.3924  0.5617
 2885TIP3    H1 8619   2.379   5.891   3.752 -0.8425 -1.3978 -0.8409
 2885TIP3    H2 8620   2.492   5.825   3.676  1.6059 -0.5652  1.8869
 2886TIP3   OH2 8621   6.656   0.912   1.006  0.3938  0.4883  0.1430
 2886TIP3    H1 8622   6.622   0.893   0.918 -0.1114  2.4661 -0.1233
 2886TIP3    H2 8623   6.581   0.896   1.064 -0.0098  1.5561 -0.0707
 2887TIP3   OH2 8624   6.777   2.780   1.121 -0.5200 -0.1164 -0.1100
 2887TIP3    H1 8625   6.693   2.817   1.095 -0.6001 -0.0876  0.1797
 2887TIP3    H2 8626   6.816   2.846   1.178  0.3428  0.5020 -1.3612
 2888TIP3   OH2 8627   2.780   3.202   2.673 -0.0748  0.1892 -0.0139
 2888TIP3    H1 8628   2.772   3.122   2.621 -1.8920 -0.8684  1.7521
 2888TIP3    H2 8629   2.690   3.228   2.691  0.4920  1.5118  1.1052
 2889TIP3   OH2 8630   1.225   0.187   5.484  0.4865  0.3691  0.0554
 2889TIP3    H1 8631   1.315   0.219   5.484 -0.4440  3.2262  0.9689
 2889TIP3    H2 8632   1.174   0.258   5.523 -2.1673 -1.2133 -0.3199
 2890TIP3   OH2 8633   1.994   6.330   5.256  0.4067 -0.4118 -0.1575
 2890TIP3    H1 8634   2.082   6.325   5.294  0.4597 -1.3354 -0.3875
 2890TIP3    H2 8635   2.002   6.283   5.173 -0.4601 -1.0130  0.1009
 2891TIP3   OH2 8636   4.262   1.669   1.402  0.1539 -0.2763  0.4107
 2891TIP3    H1 8637   4.278   1.763   1.403  0.4595 -0.3182 -0.5150
 2891TIP3    H2 8638   4.190   1.657   1.340 -1.4989 -0.4216  2.2330
 2892TIP3   OH2 8639   6.647   3.392   3.187  0.0056 -0.2985 -0.1927
 2892TIP3    H1 8640   6.554   3.410   3.177 -0.2271 -0.5127  1.3615
 2892TIP3    H2 8641   6.683   3.471   3.226  0.4348 -0.3274 -0.5140
 2893TIP3   OH2 8642   4.304   2.447   5.061  0.1862  0.1666 -0.2358
 2893TIP3    H1 8643   4.388   2.472   5.097 -0.3094  2.1738 -0.3801
 2893TIP3    H2 8644   4.281   2.366   5.107  1.2394  0.6858  1.2556
 2894TIP3   OH2 8645   1.593   5.777   2.092  0.3836  0.3295 -0.7859
 2894TIP3    H1 8646   1.596   5.744   2.002  1.2522 -0.7016 -0.4006
 2894TIP3    H2 8647   1.546   5.709   2.141  0.9224  0.3256 -0.2536
 2895TIP3   OH2 8648   6.603   0.422   5.908 -0.0781 -0.5122 -0.2451
 2895TIP3    H1 8649   6.636   0.374   5.831 -1.9603  0.9928 -2.0910
 2895TIP3    H2 8650   6.637   0.510   5.897 -0.4855 -0.2435  0.5927
 2896TIP3   OH2 8651   0.745   4.407   5.459  0.5335  0.5596  0.0546
 2896TIP3    H1 8652   0.710   4.491   5.429 -2.4156 -1.0069 -1.2970
 2896TIP3    H2 8653   0.834   4.427   5.488  0.3947  3.8859 -1.4026
 2897TIP3   OH2 8654   4.234   2.066   2.778 -0.2142 -0.0932  0.4686
 2897TIP3    H1 8655   4.234   1.987   2.832 -0.9021 -0.6826 -0.3740
 2897TIP3    H2 8656   4.226   2.138   2.840 -1.1433 -0.7690  1.1460
 2898TIP3   OH2 8657   0.379   1.340   1.397  0.5897 -0.0284 -0.1383
 2898TIP3    H1 8658   0.368   1.320   1.490  2.6539  1.1005  0.4015
 2898TIP3    H2 8659   0.355   1.258   1.352 -1.0824 -0.3899  1.3064
 2899TIP3   OH2 8660   0.759   5.968   1.813 -0.4303 -0.0007  0.2030
 2899TIP3    H1 8661   0.717   6.028   1.874 -1.7483  0.6519 -1.2664
 2899TIP3    H2 8662   0.810   6.024   1.755 -1.2581 -0.3233 -0.8706
 2900TIP3   OH2 8663   1.646   3.006   0.548 -0.1595  0.3142 -0.4159
 2900TIP3    H1 8664   1.633   2.987   0.455  0.4373  0.8089 -0.6045
 2900TIP3    H2 8665   1.710   2.940   0.577 -0.8388 -0.2564 -0.1926
 2901TIP3   OH2 8666   4.575   5.594   2.403 -0.0065 -0.1037 -0.4481
 2901TIP3    H1 8667   4.574   5.563   2.493 -0.0998 -2.1098 -1.0854
 2901TIP3    H2 8668   4.667   5.601   2.380  0.0779  2.1468  0.2907
 2902TIP3   OH2 8669   1.263   6.426   2.171  0.4671  0.3248 -0.1374
 2902TIP3    H1 8670   1.259   6.519   2.151  0.0607  0.2264 -0.5318
 2902TIP3    H2 8671   1.176   6.404   2.203  0.2564 -0.1114 -0.9587
 2903TIP3   OH2 8672   5.702   2.586   5.401 -0.2542 -0.8516 -0.0530
 2903TIP3    H1 8673   5.785   2.578   5.354 -0.6636  0.5618 -1.0806
 2903TIP3    H2 8674   5.723   2.564   5.492  1.4689  0.4851 -0.1013
 2904TIP3   OH2 8675   6.964   0.285   1.939  0.0148  0.0706 -0.1163
 2904TIP3    H1 8676   6.993   0.366   1.896 -1.3939  0.6395 -0.0690
 2904TIP3    H2 8677   6.868   0.288   1.931 -0.1629 -0.7150  1.4716
 2905TIP3   OH2 8678   5.305   3.845   0.333 -0.1822 -0.7977  0.9676
 2905TIP3    H1 8679   5.287   3.938   0.347 -1.0272 -0.5180 -1.3652
 2905TIP3    H2 8680   5.383   3.844   0.278 -0.2772 -1.4360  0.8369
 2906TIP3   OH2 8681   1.862   6.718   5.322  0.1326  0.1367  0.1081
 2906TIP3    H1 8682   1.810   6.648   5.363  1.5439 -0.9870  0.0468
 2906TIP3    H2 8683   1.912   6.756   5.394  0.2629  0.2847 -0.0608
 2907TIP3   OH2 8684   1.859   3.185   2.359 -0.5701 -0.2056 -0.2317
 2907TIP3    H1 8685   1.840   3.095   2.387 -0.2493 -0.7657 -1.7117
 2907TIP3    H2 8686   1.775   3.230   2.364 -0.8778 -0.7779 -0.1492
 2908TIP3   OH2 8687   5.154   2.604   0.887  0.1914  0.5548  0.0147
 2908TIP3    H1 8688   5.129   2.678   0.943  2.0351 -0.1804  1.9704
 2908TIP3    H2 8689   5.106   2.529   0.924 -0.2016  0.4105 -0.7602
 2909TIP3   OH2 8690   1.841   1.798   4.657  0.2580  0.2640 -0.5233
 2909TIP3    H1 8691   1.915   1.860   4.659 -1.3235  2.3435 -2.0090
 2909TIP3    H2 8692   1.843   1.756   4.743  2.5010  1.0424 -0.1246
 2910TIP3   OH2 8693   2.518   0.491   3.158 -0.3629  0.0591  0.0290
 2910TIP3    H1 8694   2.524   0.555   3.087  1.5316  1.2213  1.1558
 2910TIP3    H2 8695   2.588   0.429   3.140  0.8217  0.9386  1.3500
 2911TIP3   OH2 8696   0.782   2.694   3.003 -0.1235  0.2563  0.0685
 2911TIP3    H1 8697   0.874   2.670   3.004 -0.2888 -0.4596 -0.3222
 2911TIP3    H2 8698   0.774   2.755   2.929 -0.1782 -0.7074 -0.7530
 2912TIP3   OH2 8699   5.737   6.077   3.725  0.2923  0.0185 -0.0130
 2912TIP3    H1 8700   5.694   5.991   3.728 -0.4660  0.4242  2.1918
 2912TIP3    H2 8701   5.671   6.135   3.688 -0.6458  0.3603  2.0638
 2913TIP3   OH2 8702   5.060   4.581   3.950  0.4294 -1.0039  0.0469
 2913TIP3    H1 8703   5.128   4.529   3.910  1.6705  0.4805  0.1285
 2913TIP3    H2 8704   5.104   4.661   3.980 -0.9219 -0.9117  2.0261
 2914TIP3   OH2 8705   5.147   4.239   2.856  0.0275 -0.2822  0.4161
 2914TIP3    H1 8706   5.102   4.324   2.855 -2.4163 -1.4454  2.0909
 2914TIP3    H2 8707   5.233   4.259   2.893 -0.8149  1.3685  1.6521
 2915TIP3   OH2 8708   3.597   4.312   4.551  0.1085  0.1261 -0.2750
 2915TIP3    H1 8709   3.537   4.242   4.576  0.0809  0.2047 -0.1211
 2915TIP3    H2 8710   3.620   4.293   4.460 -0.7963  0.5604 -0.6083
 2916TIP3   OH2 8711   4.094   2.357   5.701 -0.0267  0.3830  0.0511
 2916TIP3    H1 8712   4.047   2.274   5.700  0.7763 -0.0991  0.8714
 2916TIP3    H2 8713   4.033   2.419   5.742 -0.3770  0.0396  0.0501
 2917TIP3   OH2 8714   0.471   0.824   2.913  0.2567 -0.1679 -0.1336
 2917TIP3    H1 8715   0.523   0.880   2.855  0.5922 -0.7001 -0.3582
 2917TIP3    H2 8716   0.400   0.880   2.943  0.2451  0.2011 -0.8319
 2918TIP3   OH2 8717   3.949   3.444   3.596 -0.8438 -0.1077 -0.0668
 2918TIP3    H1 8718   4.030   3.395   3.589 -0.1833  1.0146 -0.6721
 2918TIP3    H2 8719   3.903   3.406   3.671  1.0329  0.3563  1.3828
 2919TIP3   OH2 8720   6.059   1.168   1.004  0.0689 -0.3284  0.2337
 2919TIP3    H1 8721   5.980   1.203   1.046  0.3238  1.2306 -0.4932
 2919TIP3    H2 8722   6.124   1.165   1.074 -0.3564 -0.6907  0.6212
 2920TIP3   OH2 8723   3.433   2.404   0.907 -0.5327  0.0727  0.1776
 2920TIP3    H1 8724   3.344   2.422   0.876  0.0477  0.1462 -1.5502
 2920TIP3    H2 8725   3.490   2.452   0.846  0.7532 -1.4483  0.1148
 2921TIP3   OH2 8726   5.327   4.582   3.642 -0.2498 -0.2079 -0.0414
 2921TIP3    H1 8727   5.357   4.522   3.574 -0.9975 -0.2392 -0.3455
 2921TIP3    H2 8728   5.267   4.642   3.598 -0.4068  0.0421  0.4948
 2922TIP3   OH2 8729   2.721   1.359   0.097 -0.2586  0.1693  0.1727
 2922TIP3    H1 8730   2.725   1.270   0.133  0.0337  0.8628  1.9478
 2922TIP3    H2 8731   2.813   1.384   0.087 -0.3382  0.1443 -0.7302
 2923TIP3   OH2 8732   5.450   6.189   1.838  0.0799 -0.5077 -0.5609
 2923TIP3    H1 8733   5.402   6.107   1.828  1.4883 -1.4045 -0.1445
 2923TIP3    H2 8734   5.536   6.172   1.800  1.0866  0.1104  1.2842
 2924TIP3   OH2 8735   6.520   3.973   3.836 -0.5215 -0.6174 -0.7591
 2924TIP3    H1 8736   6.514   4.057   3.880  1.3884  1.0750 -3.4242
 2924TIP3    H2 8737   6.543   3.911   3.905 -0.8771  1.2029  1.1011
 2925TIP3   OH2 8738   3.017   2.268   5.269  0.2591  0.5665 -0.0649
 2925TIP3    H1 8739   2.999   2.174   5.262  2.1964  0.2390 -2.0460
 2925TIP3    H2 8740   2.931   2.309   5.274 -0.6876 -1.2481 -0.4293
 2926TIP3   OH2 8741   0.651   0.638   3.002  0.7240 -0.1814 -0.0801
 2926TIP3    H1 8742   0.607   0.723   2.993  0.9951  0.0239  0.5563
 2926TIP3    H2 8743   0.743   0.659   3.015  1.1049 -0.6251 -1.8059
 2927TIP3   OH2 8744   4.021   1.479   3.397 -0.0363 -0.6649 -0.4769
 2927TIP3    H1 8745   3.988   1.410   3.340 -0.1583  0.0728 -1.3091
 2927TIP3    H2 8746   3.944   1.511   3.443 -0.5617  1.0271 -2.3864
 2928TIP3   OH2 8747   2.813   1.620   3.857  0.4191 -0.1772 -0.4888
 2928TIP3    H1 8748   2.781   1.580   3.938  0.8136  3.2519  1.5592
 2928TIP3    H2 8749   2.909   1.610   3.862  0.6388  1.8666  0.6914
 2929TIP3   OH2 8750   1.976   1.950   1.367 -0.0753 -0.3173 -0.4626
 2929TIP3    H1 8751   2.031   2.014   1.322  0.0379 -0.3298 -0.3413
 2929TIP3    H2 8752   1.927   2.000   1.432  1.3218 -0.6055  0.8715
 2930TIP3   OH2 8753   2.322   2.836   1.322 -0.2379 -0.2176  0.3174
 2930TIP3    H1 8754   2.232   2.865   1.332 -0.8722 -2.0762  0.3863
 2930TIP3    H2 8755   2.331   2.816   1.229  0.4830  1.0192  0.0936
 2931TIP3   OH2 8756   0.482   2.832   1.361 -0.4264  0.4060  0.6108
 2931TIP3    H1 8757   0.456   2.785   1.441 -2.6789  1.4349  0.5528
 2931TIP3    H2 8758   0.427   2.794   1.292 -1.2978  2.0965  0.3142
 2932TIP3   OH2 8759   0.498   3.148   4.364  0.6472 -0.1855 -0.7421
 2932TIP3    H1 8760   0.447   3.141   4.283 -0.9000  0.6360  0.1128
 2932TIP3    H2 8761   0.432   3.162   4.432  1.8237 -1.7848  0.8180
 2933TIP3   OH2 8762   0.901   4.257   3.600 -0.0301  1.0793  0.5698
 2933TIP3    H1 8763   0.827   4.209   3.561 -0.1200 -0.5972  2.5915
 2933TIP3    H2 8764   0.898   4.343   3.559 -0.4249 -0.2993 -2.6345
 2934TIP3   OH2 8765   0.316   2.803   2.106 -0.3543  0.3138 -0.3103
 2934TIP3    H1 8766   0.366   2.722   2.102  0.7384  0.9960 -1.0242
 2934TIP3    H2 8767   0.273   2.808   2.020 -0.0797  0.6812 -0.4309
 2935TIP3   OH2 8768   2.455   2.077   0.643  0.5377  0.2381 -0.2427
 2935TIP3    H1 8769   2.488   2.066   0.733 -0.4188  1.3217  0.2729
 2935TIP3    H2 8770   2.370   2.033   0.643  0.2410  0.7950 -0.4153
 2936TIP3   OH2 8771   3.843   5.250   5.558 -0.2984 -0.4530 -0.2891
 2936TIP3    H1 8772   3.895   5.175   5.529 -1.3731 -0.8507 -1.3050
 2936TIP3    H2 8773   3.882   5.325   5.513  0.2868 -0.5186  0.1012
 2937TIP3   OH2 8774   6.512   6.599   5.531  0.4093  0.0143 -0.5202
 2937TIP3    H1 8775   6.561   6.569   5.607  1.6960 -0.4090 -1.4772
 2937TIP3    H2 8776   6.450   6.528   5.513 -1.1214  0.8604  1.1216
 2938TIP3   OH2 8777   6.293   4.856   0.751  0.1348 -0.5451 -0.1331
 2938TIP3    H1 8778   6.308   4.803   0.829 -0.1507  1.3682  1.2921
 2938TIP3    H2 8779   6.370   4.913   0.746  0.8418 -1.5632 -2.1120
 2939TIP3   OH2 8780   5.486   6.493   1.125 -0.3408  0.1215 -0.1184
 2939TIP3    H1 8781   5.414   6.511   1.187 -0.4411  1.6403 -0.6350
 2939TIP3    H2 8782   5.535   6.575   1.121 -0.4877  0.1614 -2.2416
 2940TIP3   OH2 8783   3.316   6.250   3.045  0.2363 -0.2831  0.0431
 2940TIP3    H1 8784   3.373   6.222   3.117 -0.8786 -0.4308  0.9117
 2940TIP3    H2 8785   3.370   6.307   2.992  0.8031  0.7308  1.6285
 2941TIP3   OH2 8786   7.117   3.934   4.026 -0.0315 -0.3355 -0.1227
 2941TIP3    H1 8787   7.171   3.929   3.948 -1.1982  0.5937 -1.0227
 2941TIP3    H2 8788   7.159   4.001   4.080 -0.1495  0.2271 -0.7158
 2942TIP3   OH2 8789   4.984   0.917   3.277 -0.7615  0.7008 -0.5446
 2942TIP3    H1 8790   5.075   0.942   3.261 -0.3698 -0.5143 -0.3229
 2942TIP3    H2 8791   4.957   0.970   3.351 -0.2264  1.0651 -0.6065
 2943TIP3   OH2 8792   6.314   5.626   3.571 -0.4455 -0.6050  0.3488
 2943TIP3    H1 8793   6.304   5.637   3.476  0.6556  0.3245  0.3151
 2943TIP3    H2 8794   6.305   5.715   3.605  0.9700 -0.6683  0.9237
 2944TIP3   OH2 8795   1.619   5.958   3.638 -0.1820 -0.2703 -0.4333
 2944TIP3    H1 8796   1.627   6.052   3.618  0.5146 -0.4452 -1.0104
 2944TIP3    H2 8797   1.693   5.918   3.592  0.3815 -0.9309  1.0200
 2945TIP3   OH2 8798   5.179   4.099   0.418 -0.2321  0.3622  0.2746
 2945TIP3    H1 8799   5.188   4.054   0.502  2.1967  0.1347 -0.0495
 2945TIP3    H2 8800   5.167   4.191   0.441 -2.2815  0.0084  0.8702
 2946TIP3   OH2 8801   4.550   4.099   5.869 -0.1511 -0.4260 -0.1425
 2946TIP3    H1 8802   4.579   4.130   5.955 -2.3908 -0.7070  0.7928
 2946TIP3    H2 8803   4.510   4.175   5.828 -0.1576 -0.5841 -0.4354
 2947TIP3   OH2 8804   7.115   6.644   4.152 -0.4343 -0.8518 -0.3107
 2947TIP3    H1 8805   7.176   6.572   4.170 -0.5358 -0.7372  0.5833
 2947TIP3    H2 8806   7.074   6.621   4.069  0.2708 -1.3139 -0.5361
 2948TIP3   OH2 8807   1.358   0.198   1.277  0.0984  0.4742  0.0859
 2948TIP3    H1 8808   1.276   0.247   1.282 -0.6907 -0.8165  0.5664
 2948TIP3    H2 8809   1.340   0.128   1.214  0.3834 -0.5698  1.1307
 2949TIP3   OH2 8810   3.067   6.394   3.415 -0.4225  0.0198 -0.6130
 2949TIP3    H1 8811   3.010   6.318   3.420  0.7370 -0.9756 -1.7898
 2949TIP3    H2 8812   3.007   6.469   3.418 -1.7015 -0.9619 -0.7808
 2950TIP3   OH2 8813   3.768   6.417   2.712  0.1639 -0.1221 -0.5699
 2950TIP3    H1 8814   3.681   6.456   2.709  0.0490  0.2111  2.6707
 2950TIP3    H2 8815   3.753   6.323   2.714 -0.3383 -0.0546  1.6100
 2951TIP3   OH2 8816   6.056   5.647   3.277 -0.3210  0.1397 -0.1892
 2951TIP3    H1 8817   6.059   5.552   3.278  2.0782  0.1603  0.7545
 2951TIP3    H2 8818   6.078   5.672   3.187  0.0530 -0.1907 -0.1884
 2952TIP3   OH2 8819   2.170   4.816   4.884 -0.0377 -0.0917  0.4798
 2952TIP3    H1 8820   2.128   4.902   4.879  2.3999  1.2613  1.4100
 2952TIP3    H2 8821   2.135   4.778   4.965  0.0414  0.7399  0.9239
 2953TIP3   OH2 8822   3.836   5.548   4.892 -0.1923 -0.1790 -0.3154
 2953TIP3    H1 8823   3.895   5.565   4.819 -1.5102  0.0207 -1.3530
 2953TIP3    H2 8824   3.753   5.588   4.867 -0.4275  0.7304  1.7000
 2954TIP3   OH2 8825   4.086   3.139   4.244  0.0697  0.2420 -0.9953
 2954TIP3    H1 8826   4.109   3.085   4.168 -2.3137  0.1830 -1.7559
 2954TIP3    H2 8827   4.084   3.229   4.210  2.5326  0.7242 -0.0826
 2955TIP3   OH2 8828   1.360   0.396   5.647 -1.0488 -0.0938  0.0890
 2955TIP3    H1 8829   1.369   0.442   5.563 -1.5655 -1.7049 -0.9074
 2955TIP3    H2 8830   1.325   0.462   5.707 -2.3864  0.6592 -1.4367
 2956TIP3   OH2 8831   6.664   2.952   4.144 -0.0009  0.1180  0.1955
 2956TIP3    H1 8832   6.687   3.021   4.082 -1.5611 -0.1155 -0.7016
 2956TIP3    H2 8833   6.572   2.931   4.124  0.2958 -1.9116  0.7055
 2957TIP3   OH2 8834   6.391   5.398   2.056  0.4020  0.0168  0.0169
 2957TIP3    H1 8835   6.350   5.319   2.021 -0.1440  0.0788  0.5039
 2957TIP3    H2 8836   6.366   5.467   1.994  1.2397 -0.2565 -0.6482
 2958TIP3   OH2 8837   4.493   0.783   3.492 -0.4319  0.2988 -0.0219
 2958TIP3    H1 8838   4.462   0.725   3.423  1.4438 -0.2501 -0.4596
 2958TIP3    H2 8839   4.463   0.870   3.466  0.1273  0.0817 -1.4732
 2959TIP3   OH2 8840   0.433   0.543   4.759 -0.2867  0.3436 -0.2198
 2959TIP3    H1 8841   0.501   0.500   4.706  0.3732  0.0027  0.8745
 2959TIP3    H2 8842   0.445   0.507   4.847 -2.7838 -0.8008 -0.2426
 2960TIP3   OH2 8843   1.752   3.892   0.317 -0.3927 -0.5561 -0.2396
 2960TIP3    H1 8844   1.664   3.928   0.312 -0.3525 -0.3324  0.5838
 2960TIP3    H2 8845   1.806   3.955   0.268 -0.5389 -0.1840  0.0710
 2961TIP3   OH2 8846   2.870   5.137   3.445  0.7799 -0.1021 -0.3320
 2961TIP3    H1 8847   2.932   5.071   3.415  0.3414 -1.6226  1.7845
 2961TIP3    H2 8848   2.871   5.128   3.541  0.9530  3.2672  0.1079
 2962TIP3   OH2 8849   0.547   1.747   0.315  1.0202 -0.7498  0.3112
 2962TIP3    H1 8850   0.585   1.730   0.401  1.8561 -0.2100  0.0656
 2962TIP3    H2 8851   0.622   1.748   0.256  0.5022 -0.6765 -0.3571
 2963TIP3   OH2 8852   4.770   3.011   2.251 -0.2146 -0.1195  0.0463
 2963TIP3    H1 8853   4.691   3.009   2.196 -0.1245 -1.5391 -0.0529
 2963TIP3    H2 8854   4.803   2.922   2.250  1.2361  0.3869  0.3526
 2964TIP3   OH2 8855   2.111   4.673   3.907 -0.5435 -0.0372 -0.4767
 2964TIP3    H1 8856   2.132   4.754   3.954 -2.0842  0.5330 -0.7334
 2964TIP3    H2 8857   2.157   4.681   3.824  0.5344 -0.1288  0.0915
 2965TIP3   OH2 8858   0.464   0.114   3.660  0.0685  0.1209  0.2349
 2965TIP3    H1 8859   0.508   0.123   3.744 -0.8350 -0.5613  0.8170
 2965TIP3    H2 8860   0.372   0.136   3.679  0.2561  2.2911 -1.1074
 2966TIP3   OH2 8861   2.779   4.533   3.094  0.0120 -0.5692 -0.3270
 2966TIP3    H1 8862   2.799   4.626   3.101 -1.4054 -0.3411  2.7392
 2966TIP3    H2 8863   2.849   4.496   3.041  1.7723  1.9171  0.1339
 2967TIP3   OH2 8864   6.629   4.075   4.270  0.0768 -0.4627  0.0850
 2967TIP3    H1 8865   6.690   4.025   4.324  1.3937 -0.8920 -1.7085
 2967TIP3    H2 8866   6.607   4.017   4.198  0.4963  0.9921 -1.2729
 2968TIP3   OH2 8867   4.829   5.311   3.882  0.2341  0.7488 -0.0575
 2968TIP3    H1 8868   4.804   5.369   3.810 -0.5538  0.0489 -0.3661
 2968TIP3    H2 8869   4.794   5.225   3.857  1.2395  0.1705  0.4669
 2969TIP3   OH2 8870   4.777   0.563   1.341 -0.5948 -0.2796  0.5804
 2969TIP3    H1 8871   4.756   0.632   1.404 -0.4679 -0.7532  1.1459
 2969TIP3    H2 8872   4.713   0.574   1.271  0.2254  1.2461  0.0009
 2970TIP3   OH2 8873   2.991   6.270   5.786 -0.4167 -0.3010 -0.0196
 2970TIP3    H1 8874   2.993   6.329   5.861  0.2039 -0.7036  0.2874
 2970TIP3    H2 8875   2.994   6.327   5.710  0.0006  0.0713  0.2748
 2971TIP3   OH2 8876   1.447   4.685   4.489 -0.6078  0.2348  0.1809
 2971TIP3    H1 8877   1.501   4.702   4.412  0.0450  0.7971  0.7522
 2971TIP3    H2 8878   1.504   4.638   4.549 -0.5990  1.2137  0.9678
 2972TIP3   OH2 8879   0.826   5.206   4.489 -0.2558  0.5131  0.2605
 2972TIP3    H1 8880   0.851   5.197   4.397  1.5056 -0.6527  0.8024
 2972TIP3    H2 8881   0.769   5.283   4.491  0.9230  1.5068 -1.5689
 2973TIP3   OH2 8882   6.634   4.414   2.550 -0.2435 -0.6074 -0.0553
 2973TIP3    H1 8883   6.698   4.470   2.595 -0.8074 -0.0842  0.1013
 2973TIP3    H2 8884   6.613   4.347   2.614  0.0043 -0.6709 -0.0383
 2974TIP3   OH2 8885   7.115   1.150   4.946 -0.3974 -0.0637 -0.1405
 2974TIP3    H1 8886   7.193   1.103   4.976 -0.1171 -0.1465 -0.9937
 2974TIP3    H2 8887   7.051   1.137   5.016  0.4356  0.2352  0.7027
 2975TIP3   OH2 8888   1.695   1.424   0.906  0.0597 -0.1016  0.1214
 2975TIP3    H1 8889   1.741   1.485   0.849 -1.1525  0.4836 -0.2701
 2975TIP3    H2 8890   1.637   1.376   0.848 -0.3768 -0.2884  0.6969
 2976TIP3   OH2 8891   4.329   4.862   3.388  1.0379  0.6455  0.5376
 2976TIP3    H1 8892   4.376   4.922   3.330  2.9643 -0.4974  0.8336
 2976TIP3    H2 8893   4.334   4.777   3.343  0.7812  0.1473  1.4266
 2977TIP3   OH2 8894   5.437   0.541   1.917 -0.1354  0.3661  0.0741
 2977TIP3    H1 8895   5.343   0.534   1.933 -0.1533 -0.3789 -0.3332
 2977TIP3    H2 8896   5.446   0.615   1.857 -0.5840 -0.3261 -0.8684
 2978TIP3   OH2 8897   2.348   6.220   3.755  0.2473 -0.2358 -0.6795
 2978TIP3    H1 8898   2.340   6.292   3.693 -1.6637 -0.3742 -0.6407
 2978TIP3    H2 8899   2.280   6.158   3.729  0.3837 -0.9885  0.6567
 2979TIP3   OH2 8900   1.504   1.453   4.511  0.3451 -0.2528 -0.0466
 2979TIP3    H1 8901   1.583   1.398   4.511  0.0686 -0.6640 -0.3681
 2979TIP3    H2 8902   1.524   1.525   4.570  0.9574 -0.3627 -0.1175
 2980TIP3   OH2 8903   2.288   1.552   4.863  0.2551 -0.1880  0.6650
 2980TIP3    H1 8904   2.204   1.596   4.872  0.0585 -0.6809  1.2725
 2980TIP3    H2 8905   2.345   1.618   4.822 -0.4576  0.0921  0.1120
 2981TIP3   OH2 8906   5.764   4.589   4.860 -0.1477  0.1635  0.1482
 2981TIP3    H1 8907   5.722   4.534   4.926  0.2398 -1.4586 -0.8927
 2981TIP3    H2 8908   5.853   4.603   4.894 -0.8653  2.0239  1.4426
 2982TIP3   OH2 8909   6.642   6.557   0.556  0.3028 -0.0075  0.1264
 2982TIP3    H1 8910   6.570   6.586   0.612  0.2747 -0.6348  0.4261
 2982TIP3    H2 8911   6.721   6.573   0.607  0.3539  0.3920 -0.0774
 2983TIP3   OH2 8912   0.985   2.428   2.972  0.4333  0.0447  0.0093
 2983TIP3    H1 8913   0.936   2.357   2.931 -2.1907  0.3503  2.3116
 2983TIP3    H2 8914   0.988   2.496   2.904  1.1874 -1.4439 -1.5240
 2984TIP3   OH2 8915   4.553   4.414   2.246 -0.0474  0.0508  0.1952
 2984TIP3    H1 8916   4.536   4.386   2.156 -0.3427  0.9176 -0.0321
 2984TIP3    H2 8917   4.620   4.354   2.278  1.8381  1.1744 -1.4098
 2985TIP3   OH2 8918   1.091   4.505   4.948 -0.2476  0.1984  0.3255
 2985TIP3    H1 8919   1.125   4.577   4.896 -1.4638  1.0242  0.6223
 2985TIP3    H2 8920   1.058   4.546   5.028  1.0711 -0.9739  1.5228
 2986TIP3   OH2 8921   5.511   3.992   1.542 -0.0640  0.4523  0.0870
 2986TIP3    H1 8922   5.422   3.959   1.551 -0.0730  0.4694  0.0613
 2986TIP3    H2 8923   5.560   3.919   1.502 -0.0062  0.3443  0.3483
 2987TIP3   OH2 8924   6.401   5.768   2.955  0.0585 -0.4882 -0.2214
 2987TIP3    H1 8925   6.492   5.757   2.931  0.0781  1.1397 -0.9879
 2987TIP3    H2 8926   6.391   5.862   2.972 -1.0836 -0.8724  1.5159
 2988TIP3   OH2 8927   0.665   5.067   3.776  0.3486 -0.2521  0.0191
 2988TIP3    H1 8928   0.753   5.040   3.749 -0.4273 -0.4877 -2.6255
 2988TIP3    H2 8929   0.622   5.092   3.694 -1.5646  1.3833  1.4110
 2989TIP3   OH2 8930   3.566   0.935   5.584  0.2323  0.3997  0.5819
 2989TIP3    H1 8931   3.586   0.842   5.570  0.5010  0.4770  0.4446
 2989TIP3    H2 8932   3.485   0.950   5.536 -0.2377  0.0499  1.2538
 2990TIP3   OH2 8933   3.735   5.463   1.712  0.2729  0.1416  0.1063
 2990TIP3    H1 8934   3.709   5.399   1.778 -0.2236  0.8651  0.6296
 2990TIP3    H2 8935   3.781   5.412   1.646  2.6941 -0.3494  2.0032
 2991TIP3   OH2 8936   0.404   2.965   4.603  0.1967 -0.2844 -0.5208
 2991TIP3    H1 8937   0.430   3.056   4.617 -0.7175  0.1717 -1.5953
 2991TIP3    H2 8938   0.310   2.970   4.586  0.0924 -1.4650 -0.3534
 2992TIP3   OH2 8939   3.481   1.839   2.030  0.2487  0.0938  0.5280
 2992TIP3    H1 8940   3.570   1.864   2.007 -0.1954 -0.3926 -2.0435
 2992TIP3    H2 8941   3.465   1.882   2.114  1.5591  3.4958 -0.7781
 2993TIP3   OH2 8942   7.101   3.476   4.530  0.2161  0.1191 -0.5024
 2993TIP3    H1 8943   7.159   3.441   4.463 -0.2899 -0.3406 -0.7106
 2993TIP3    H2 8944   7.018   3.493   4.485 -1.0197 -2.6730  0.4574
 2994TIP3   OH2 8945   3.000   0.891   5.033 -0.3248 -0.3005  0.3453
 2994TIP3    H1 8946   2.926   0.833   5.054  0.1690 -0.2046  2.5488
 2994TIP3    H2 8947   2.975   0.976   5.068  0.0790  0.1977 -0.5412
 2995TIP3   OH2 8948   2.385   1.885   0.160  0.4785  0.5018  0.1167
 2995TIP3    H1 8949   2.429   1.940   0.095  1.4783 -0.6901 -0.2749
 2995TIP3    H2 8950   2.457   1.854   0.216 -0.0492 -0.3972  0.3099
 2996TIP3   OH2 8951   1.899   6.142   2.083  0.5387  0.1881  0.4551
 2996TIP3    H1 8952   1.840   6.070   2.104  0.8324 -0.4426 -0.7868
 2996TIP3    H2 8953   1.849   6.221   2.106 -0.6061 -0.3433 -0.0860
 2997TIP3   OH2 8954   6.413   6.768   0.399  0.2465 -0.6887  0.1442
 2997TIP3    H1 8955   6.494   6.813   0.423 -0.0987 -0.2322  0.4698
 2997TIP3    H2 8956   6.420   6.755   0.305 -0.3800  1.5969 -0.2816
 2998TIP3   OH2 8957   5.072   3.562   3.553  0.1141 -0.3855  0.0299
 2998TIP3    H1 8958   5.075   3.496   3.623  3.0203  0.8039  1.1868
 2998TIP3    H2 8959   4.993   3.613   3.572 -0.2874 -1.3706  1.1773
 2999TIP3   OH2 8960   0.387   1.536   0.672 -0.4356 -0.3736 -0.0110
 2999TIP3    H1 8961   0.341   1.562   0.593 -0.5771  0.9906  0.4964
 2999TIP3    H2 8962   0.474   1.510   0.642 -0.0721  1.3270 -0.4993
 3000TIP3   OH2 8963   3.284   6.652   2.826 -0.0391 -0.3559  0.0676
 3000TIP3    H1 8964   3.197   6.689   2.812 -0.4512 -1.2619  0.1860
 3000TIP3    H2 8965   3.340   6.728   2.842 -1.2131  0.1486  2.2200
 3001TIP3   OH2 8966   5.912   5.796   4.038 -0.4694  0.0410 -0.6564
 3001TIP3    H1 8967   5.959   5.874   4.067 -1.2570 -0.2420  1.5339
 3001TIP3    H2 8968   5.979   5.744   3.994  0.6162  0.9060 -0.1005
 3002TIP3   OH2 8969   6.431   4.527   1.262  0.1997 -0.0786  0.0845
 3002TIP3    H1 8970   6.471   4.560   1.181 -0.3849 -1.9388 -1.0258
 3002TIP3    H2 8971   6.362   4.590   1.282 -0.5768 -0.2955 -1.7028
 3003TIP3   OH2 8972   2.447   1.776   0.624  0.6221 -0.5972  0.4997
 3003TIP3    H1 8973   2.399   1.842   0.575  2.2578 -0.3474 -0.8881
 3003TIP3    H2 8974   2.427   1.793   0.715 -1.2826 -0.0588  0.0144
 3004TIP3   OH2 8975   5.151   5.983   4.629  0.2801  0.3440  0.6347
 3004TIP3    H1 8976   5.192   5.971   4.544 -0.6376 -0.9775  0.3430
 3004TIP3    H2 8977   5.212   6.037   4.679  1.7555 -0.5095 -0.2056
 3005TIP3   OH2 8978   1.790   1.463   4.896 -0.5763  0.1869 -0.1943
 3005TIP3    H1 8979   1.811   1.405   4.969 -4.1831  0.7098  1.4911
 3005TIP3    H2 8980   1.820   1.416   4.818  0.8136 -1.7129  1.3816
 3006TIP3   OH2 8981   3.579   3.874   4.800  0.2721  0.4630  0.3893
 3006TIP3    H1 8982   3.565   3.815   4.875  0.2506  0.0638  0.0752
 3006TIP3    H2 8983   3.653   3.836   4.754  1.4244  1.6850  1.1707
 3007TIP3   OH2 8984   3.414   1.448   2.390  0.0701 -0.5120 -0.0700
 3007TIP3    H1 8985   3.432   1.360   2.358 -1.5037 -0.2304 -1.9393
 3007TIP3    H2 8986   3.412   1.503   2.311  2.7376  1.6049  1.1615
 3008TIP3   OH2 8987   4.967   1.097   2.652 -0.1673  0.4930 -0.1231
 3008TIP3    H1 8988   5.014   1.157   2.593 -0.1540  0.0246 -0.5959
 3008TIP3    H2 8989   4.880   1.091   2.614 -0.2990  0.5408  0.1674
 3009TIP3   OH2 8990   6.981   2.860   4.960 -0.2231 -0.1294  0.1040
 3009TIP3    H1 8991   6.934   2.779   4.946 -1.9787  0.7479  0.7034
 3009TIP3    H2 8992   6.970   2.909   4.878  1.1848 -0.6065 -0.4173
 3010TIP3   OH2 8993   0.152   3.845   5.526 -0.1292  0.8480  0.4885
 3010TIP3    H1 8994   0.232   3.802   5.557  0.3663  0.6567 -0.9918
 3010TIP3    H2 8995   0.084   3.779   5.537  0.0222  0.7899  1.1482
 3011TIP3   OH2 8996   4.571   2.454   3.115  0.1528 -0.0333 -0.0344
 3011TIP3    H1 8997   4.537   2.420   3.032  0.5252  1.1558 -0.7076
 3011TIP3    H2 8998   4.510   2.524   3.139 -0.6368 -1.1354  1.3524
 3012TIP3   OH2 8999   0.186   4.072   4.759  0.5669  0.0267 -0.1321
 3012TIP3    H1 9000   0.247   4.127   4.809 -0.6913  4.8298 -3.1763
 3012TIP3    H2 9001   0.239   4.036   4.688  0.9463 -0.7688  0.5446
 3013TIP3   OH2 9002   1.269   1.676   2.153 -0.2937  0.1639  0.5966
 3013TIP3    H1 9003   1.284   1.723   2.236 -1.4540  0.2598  0.7740
 3013TIP3    H2 9004   1.174   1.682   2.140  0.0407  1.8790 -1.7505
 3014TIP3   OH2 9005   1.214   1.599   3.389  0.1955  0.4760  0.2429
 3014TIP3    H1 9006   1.206   1.610   3.294 -1.8249  2.3185  0.5397
 3014TIP3    H2 9007   1.246   1.684   3.421 -3.0342  1.3649  1.4983
 3015TIP3   OH2 9008   5.512   1.337   3.070 -0.1315 -0.1166  0.6839
 3015TIP3    H1 9009   5.582   1.402   3.061  0.3050 -0.6075  0.5074
 3015TIP3    H2 9010   5.555   1.253   3.054 -0.6620 -0.4634  1.0512
 3016TIP3   OH2 9011   4.960   4.124   0.913 -0.0021 -0.1028 -0.9819
 3016TIP3    H1 9012   5.006   4.201   0.882 -1.1970  0.4779 -1.3852
 3016TIP3    H2 9013   4.996   4.106   1.000  2.1144 -0.6673 -1.9272
 3017TIP3   OH2 9014   6.768   4.808   5.448  0.3587  0.2236 -0.0351
 3017TIP3    H1 9015   6.742   4.835   5.536 -2.4140  2.0694 -1.2891
 3017TIP3    H2 9016   6.863   4.822   5.447  0.7957 -1.4217  3.0644
 3018TIP3   OH2 9017   3.232   0.757   4.285 -0.3100 -0.7369 -0.0318
 3018TIP3    H1 9018   3.158   0.698   4.273 -0.9724 -0.1436  0.9676
 3018TIP3    H2 9019   3.246   0.760   4.380 -1.3762  1.9484  0.1402
 3019TIP3   OH2 9020   2.941   4.587   0.484 -0.0690 -0.7158  0.4159
 3019TIP3    H1 9021   2.856   4.585   0.526  0.1771 -1.2228  0.8957
 3019TIP3    H2 9022   2.938   4.519   0.417 -0.8886  0.8833 -1.2749
 3020TIP3   OH2 9023   3.099   5.479   1.655 -0.2104 -0.1462  0.1926
 3020TIP3    H1 9024   3.142   5.399   1.625 -0.1642 -0.2195  0.4529
 3020TIP3    H2 9025   3.159   5.517   1.718 -0.8594 -0.6498  1.1312
 3021TIP3   OH2 9026   1.948   5.052   1.473 -0.5607  0.6166 -0.2742
 3021TIP3    H1 9027   2.016   4.985   1.478  0.7233  1.8807 -0.2654
 3021TIP3    H2 9028   1.913   5.057   1.562  0.1040  0.7219 -0.0152
 3022TIP3   OH2 9029   4.235   3.283   1.151  0.2682  0.1695 -0.2610
 3022TIP3    H1 9030   4.193   3.325   1.225 -0.1952  0.9745 -0.9591
 3022TIP3    H2 9031   4.323   3.321   1.147  0.2352  0.2496 -0.2207
 3023TIP3   OH2 9032   6.997   0.317   4.923  0.0879  0.0047 -0.3385
 3023TIP3    H1 9033   6.972   0.284   5.009 -1.6100 -0.1618 -0.8719
 3023TIP3    H2 9034   7.020   0.409   4.939 -0.5082  0.0571  0.2433
 3024TIP3   OH2 9035   3.542   2.115   4.101 -0.4082 -0.2175 -0.6014
 3024TIP3    H1 9036   3.536   2.020   4.091  1.0869 -0.3671 -0.3733
 3024TIP3    H2 9037   3.623   2.129   4.151 -0.6949  1.1646 -0.4703
 3025TIP3   OH2 9038   0.564   2.445   2.820 -0.3704 -0.1391  0.0856
 3025TIP3    H1 9039   0.516   2.433   2.902  1.8159  1.9297  1.8539
 3025TIP3    H2 9040   0.652   2.413   2.840  0.5592  1.6225 -0.9813
 3026TIP3   OH2 9041   6.539   6.164   0.204  0.1178 -0.3930  0.1835
 3026TIP3    H1 9042   6.525   6.248   0.248 -0.5785  0.1689 -1.0668
 3026TIP3    H2 9043   6.474   6.105   0.243  1.3858 -0.7416  1.9280
 3027TIP3   OH2 9044   1.399   5.562   4.493  0.0076  0.0216  0.2629
 3027TIP3    H1 9045   1.461   5.523   4.431 -0.8298 -0.0902 -0.5217
 3027TIP3    H2 9046   1.350   5.488   4.528 -1.4033  0.2842 -1.0337
 3028TIP3   OH2 9047   3.633   1.421   3.014 -0.4723 -0.3148  0.4272
 3028TIP3    H1 9048   3.541   1.442   2.995 -0.5603 -0.6934  0.4156
 3028TIP3    H2 9049   3.683   1.490   2.971 -0.7588 -0.0174  0.5692
 3029TIP3   OH2 9050   5.316   6.488   0.905  0.4340 -0.3805  0.1653
 3029TIP3    H1 9051   5.295   6.396   0.892  2.3254 -0.7181 -0.9303
 3029TIP3    H2 9052   5.387   6.488   0.970  1.4844  0.1297 -0.9292
 3030TIP3   OH2 9053   3.382   0.426   2.068  0.3956  0.0366 -0.6195
 3030TIP3    H1 9054   3.317   0.465   2.010  0.4285  0.3205 -0.4680
 3030TIP3    H2 9055   3.354   0.450   2.156  0.9678  0.5647 -0.5758
 3031TIP3   OH2 9056   1.398   1.882   0.454  0.1960 -0.4602 -0.0151
 3031TIP3    H1 9057   1.385   1.893   0.360 -0.4128  0.9509  0.2166
 3031TIP3    H2 9058   1.324   1.928   0.494  2.2515  2.0489  1.2039
 3032TIP3   OH2 9059   3.099   1.779   3.141 -0.1662  0.0381 -0.0101
 3032TIP3    H1 9060   3.110   1.708   3.077 -1.4352  0.5868 -0.8653
 3032TIP3    H2 9061   3.063   1.735   3.218  2.4285 -0.8301  0.8449
 3033TIP3   OH2 9062   0.349   6.012   3.475  0.2711  0.0928  0.2431
 3033TIP3    H1 9063   0.388   6.064   3.405 -0.2076  0.9218  0.5831
 3033TIP3    H2 9064   0.396   6.037   3.554 -0.8258  1.0186  0.6365
 3034TIP3   OH2 9065   1.840   6.307   1.532 -0.5778 -0.7582 -0.3843
 3034TIP3    H1 9066   1.777   6.380   1.527  0.0650 -0.2389 -1.0872
 3034TIP3    H2 9067   1.809   6.254   1.605 -0.1011  1.1252  1.2548
 3035TIP3   OH2 9068   1.678   0.111   1.915  0.3037  0.4917  0.0674
 3035TIP3    H1 9069   1.676   0.027   1.870  0.5842  0.4657  0.1038
 3035TIP3    H2 9070   1.771   0.128   1.931  0.1957  0.3399  0.9257
 3036TIP3   OH2 9071   1.396   6.116   4.636 -0.2930 -0.0954  0.3779
 3036TIP3    H1 9072   1.361   6.069   4.712  0.3367  0.2790  0.9054
 3036TIP3    H2 9073   1.352   6.075   4.561 -0.5655 -0.7894  0.9034
 3037TIP3   OH2 9074   1.880   3.776   3.415 -0.5115  0.1959  0.3599
 3037TIP3    H1 9075   1.903   3.775   3.322 -1.1480 -1.0612  0.1985
 3037TIP3    H2 9076   1.955   3.737   3.460 -0.6912 -0.2944  0.2413
 3038TIP3   OH2 9077   1.698   2.902   0.110  0.0305 -0.2860  0.4221
 3038TIP3    H1 9078   1.697   2.966   0.039  1.5752 -0.5400  0.1287
 3038TIP3    H2 9079   1.653   2.945   0.182 -0.4105  0.4866 -0.2913
 3039TIP3   OH2 9080   2.450   2.508   2.717  0.1793 -0.5002  0.3248
 3039TIP3    H1 9081   2.469   2.563   2.792  0.5501 -0.0550 -0.0865
 3039TIP3    H2 9082   2.429   2.570   2.646 -1.2095 -0.9254  0.3220
 3040TIP3   OH2 9083   0.841   0.979   1.651 -0.3953 -0.8717  0.3061
 3040TIP3    H1 9084   0.871   0.963   1.741  1.0608  1.5646  0.3564
 3040TIP3    H2 9085   0.759   1.027   1.662 -0.6231 -1.2602  0.3119
 3041TIP3   OH2 9086   4.091   1.207   5.875  0.0789 -0.0289 -0.4327
 3041TIP3    H1 9087   4.012   1.250   5.843  0.0062 -0.4450 -0.8199
 3041TIP3    H2 9088   4.132   1.170   5.797  0.2033 -0.5520 -0.1251
 3042TIP3   OH2 9089   4.583   6.022   4.700 -0.1482  0.1996  0.0112
 3042TIP3    H1 9090   4.659   6.055   4.652 -1.0649  2.7679  0.1606
 3042TIP3    H2 9091   4.530   5.977   4.634  0.3918  0.4220 -0.5783
 3043TIP3   OH2 9092   3.735   6.056   5.209 -0.0278 -0.0852 -0.5440
 3043TIP3    H1 9093   3.807   6.059   5.147 -1.1609  0.5812 -1.8726
 3043TIP3    H2 9094   3.662   6.098   5.164 -1.3563 -1.0332  0.6196
 3044TIP3   OH2 9095   2.841   6.279   1.493 -0.4236 -0.1363 -0.0849
 3044TIP3    H1 9096   2.808   6.195   1.527  0.0814 -0.1632  0.3771
 3044TIP3    H2 9097   2.831   6.340   1.566 -1.1678  0.3178 -0.5551
 3045TIP3   OH2 9098   7.106   0.716   2.354  0.2626  0.3620  0.1446
 3045TIP3    H1 9099   7.134   0.665   2.430 -0.3325 -0.3065 -0.0784
 3045TIP3    H2 9100   7.017   0.743   2.375 -0.5759 -1.3526 -1.0678
 3046TIP3   OH2 9101   6.491   4.469   5.123  0.3265  0.0931 -0.3352
 3046TIP3    H1 9102   6.537   4.416   5.058 -0.3026 -0.0820 -0.6455
 3046TIP3    H2 9103   6.560   4.524   5.161  0.6638  0.4257 -1.3725
 3047TIP3   OH2 9104   4.948   0.771   0.727 -0.1395  0.2054 -0.1799
 3047TIP3    H1 9105   4.864   0.730   0.745  0.5405 -1.1885 -0.0463
 3047TIP3    H2 9106   4.941   0.857   0.768 -0.4824 -0.9635  2.4734
 3048TIP3   OH2 9107   5.725   5.328   1.719  0.3293  0.2222  0.1553
 3048TIP3    H1 9108   5.684   5.397   1.667  1.2177  1.5463  1.1406
 3048TIP3    H2 9109   5.694   5.247   1.680  0.2691  1.1576 -1.8681
 3049TIP3   OH2 9110   1.688   4.038   2.487 -0.0830  0.2873 -0.4377
 3049TIP3    H1 9111   1.675   3.967   2.550  1.1797  0.7385  0.3691
 3049TIP3    H2 9112   1.617   4.100   2.507  0.1215  0.2833  0.3565
 3050TIP3   OH2 9113   1.554   1.475   4.095  0.4650 -0.1488 -0.3624
 3050TIP3    H1 9114   1.485   1.410   4.080  0.3224 -0.1410  0.2326
 3050TIP3    H2 9115   1.636   1.426   4.089  0.3407 -0.4878  0.5632
 3051TIP3   OH2 9116   6.615   0.359   0.965  0.8765 -0.7736  0.2265
 3051TIP3    H1 9117   6.611   0.417   1.041 -0.2402 -0.4183 -0.0907
 3051TIP3    H2 9118   6.672   0.287   0.993  0.6036 -0.5733  1.3478
 3052TIP3   OH2 9119   3.039   6.445   4.922  0.4312  0.3841 -1.0953
 3052TIP3    H1 9120   2.975   6.375   4.912  0.0175  0.5867 -0.0652
 3052TIP3    H2 9121   3.114   6.418   4.870  1.2928 -2.0676  1.2218
 3053TIP3   OH2 9122   1.268   2.747   2.269 -0.1084 -0.0093 -0.4535
 3053TIP3    H1 9123   1.310   2.663   2.287  0.3666  0.4890  0.8981
 3053TIP3    H2 9124   1.334   2.798   2.223 -0.1369 -0.1105 -0.6078
 3054TIP3   OH2 9125   7.206   6.326   5.562 -0.0676  0.1297  0.0809
 3054TIP3    H1 9126   7.155   6.393   5.607 -0.2976  0.3439 -0.4891
 3054TIP3    H2 9127   7.236   6.268   5.632  0.7933  1.2568  0.6883
 3055TIP3   OH2 9128   1.482   5.267   5.882  0.2679  0.7159  0.1784
 3055TIP3    H1 9129   1.461   5.360   5.891 -0.0658  0.7786 -1.0455
 3055TIP3    H2 9130   1.396   5.223   5.883  0.4617  0.2857  1.7849
 3056TIP3   OH2 9131   2.773   2.771   4.825 -0.1038  0.2488 -0.4234
 3056TIP3    H1 9132   2.728   2.797   4.905  0.0908  0.2151 -0.3006
 3056TIP3    H2 9133   2.764   2.675   4.823  2.9504 -0.2185  1.4804
 3057TIP3   OH2 9134   6.610   0.131   3.466 -0.0278  0.1220 -0.4334
 3057TIP3    H1 9135   6.658   0.071   3.523 -2.2693 -2.2374 -0.8263
 3057TIP3    H2 9136   6.550   0.178   3.525  0.1429  0.3274 -0.4205
 3058TIP3   OH2 9137   4.159   1.571   4.635 -0.1890  0.3535  0.2470
 3058TIP3    H1 9138   4.224   1.519   4.683 -1.0079 -0.7931  0.1729
 3058TIP3    H2 9139   4.141   1.645   4.693  0.5015  0.1978  0.6791
 3059TIP3   OH2 9140   3.154   0.770   2.533  0.7083  0.3747  0.0299
 3059TIP3    H1 9141   3.120   0.779   2.622  0.2991  1.1554 -0.1996
 3059TIP3    H2 9142   3.086   0.806   2.477  0.9401 -0.1660 -0.6107
 3060TIP3   OH2 9143   5.956   0.886   0.242 -0.7865 -0.0507  0.0985
 3060TIP3    H1 9144   5.968   0.794   0.266 -0.8322  0.0642  0.5722
 3060TIP3    H2 9145   6.014   0.934   0.301 -0.4305  0.1969 -0.4402
 3061TIP3   OH2 9146   5.744   3.456   0.225  0.1226 -0.8338 -0.3234
 3061TIP3    H1 9147   5.699   3.525   0.273 -0.7127 -0.3555 -1.7428
 3061TIP3    H2 9148   5.836   3.467   0.247  0.2143  1.7654 -1.7279
 3062TIP3   OH2 9149   6.079   2.890   4.232 -0.4311  0.4324 -0.2459
 3062TIP3    H1 9150   6.020   2.965   4.224 -0.0139  0.6374 -1.8107
 3062TIP3    H2 9151   6.071   2.845   4.148 -1.3170 -1.8064  0.9463
 3063TIP3   OH2 9152   3.783   2.210   1.036  0.2786  0.2016  0.3083
 3063TIP3    H1 9153   3.852   2.154   1.001 -0.0750 -0.6891  1.0054
 3063TIP3    H2 9154   3.813   2.236   1.122 -0.0232  0.2309  0.4082
 3064TIP3   OH2 9155   1.128   3.475   3.661 -0.2076 -0.2487  0.0623
 3064TIP3    H1 9156   1.043   3.435   3.645  0.8492 -2.4317 -0.4368
 3064TIP3    H2 9157   1.109   3.547   3.722 -2.7676  1.1501 -2.1587
 3065TIP3   OH2 9158   3.939   1.388   0.384  0.5441  0.2001  0.3304
 3065TIP3    H1 9159   3.900   1.396   0.297 -0.1267  0.5949  0.6551
 3065TIP3    H2 9160   3.898   1.310   0.421  1.6157 -0.5777 -0.0941
 3066TIP3   OH2 9161   4.733   2.810   3.746  0.0958 -0.0075  0.3489
 3066TIP3    H1 9162   4.645   2.803   3.710  0.0890  0.7131  0.2283
 3066TIP3    H2 9163   4.790   2.809   3.670  0.0065  3.2536  0.1076
 3067TIP3   OH2 9164   7.041   4.298   1.255  0.3491  0.2297  0.5495
 3067TIP3    H1 9165   7.061   4.256   1.171 -0.2189  1.0175  0.0018
 3067TIP3    H2 9166   7.089   4.380   1.253  1.1981 -0.2354  1.4777
 3068TIP3   OH2 9167   5.591   5.893   2.305  0.0284 -0.4567 -0.0029
 3068TIP3    H1 9168   5.544   5.837   2.367  0.5205  0.0126  0.8179
 3068TIP3    H2 9169   5.670   5.920   2.353  0.5160 -0.2440 -0.9130
 3069TIP3   OH2 9170   5.340   5.036   4.856  0.5886  0.4416  0.8138
 3069TIP3    H1 9171   5.326   5.123   4.816  1.3535 -0.3978 -1.4815
 3069TIP3    H2 9172   5.306   4.975   4.791  2.4118 -1.0488  1.1803
 3070TIP3   OH2 9173   5.328   0.129   1.985  0.0976 -0.3722 -0.3049
 3070TIP3    H1 9174   5.253   0.094   2.033  1.3212 -2.0880  0.4636
 3070TIP3    H2 9175   5.404   0.106   2.039  1.1496  2.0888 -0.6106
 3071TIP3   OH2 9176   1.568   1.878   3.512 -0.6110  0.5926  0.0837
 3071TIP3    H1 9177   1.584   1.913   3.600  1.2374 -0.0223  0.0302
 3071TIP3    H2 9178   1.593   1.786   3.518 -0.9470  0.4188 -0.9787
 3072TIP3   OH2 9179   1.397   6.068   0.345 -0.9955 -0.5624 -0.3204
 3072TIP3    H1 9180   1.312   6.111   0.348 -1.6268 -1.4673 -2.7382
 3072TIP3    H2 9181   1.460   6.141   0.344 -1.5731  0.1006  2.7464
 3073TIP3   OH2 9182   5.617   5.604   4.723 -0.0384 -0.1894 -0.3218
 3073TIP3    H1 9183   5.598   5.645   4.639 -1.3995 -0.5096 -0.1925
 3073TIP3    H2 9184   5.537   5.616   4.774  1.7580  2.9764  2.2028
 3074TIP3   OH2 9185   3.999   0.931   4.260  0.1424 -0.0674 -0.0243
 3074TIP3    H1 9186   3.985   0.847   4.217  0.6863 -0.3033  0.2448
 3074TIP3    H2 9187   3.917   0.979   4.247 -0.2271 -0.6915 -0.0527
 3075TIP3   OH2 9188   2.062   2.656   5.149 -0.0856 -0.4264  0.5790
 3075TIP3    H1 9189   2.084   2.743   5.183 -0.0355 -1.3635  3.1553
 3075TIP3    H2 9190   2.130   2.639   5.083  1.1538  0.6692  1.5030
 3076TIP3   OH2 9191   1.954   2.851   4.712  0.3158 -0.2343  0.5890
 3076TIP3    H1 9192   1.996   2.850   4.626  0.3155  0.0498  0.5879
 3076TIP3    H2 9193   2.022   2.884   4.771  1.0130 -2.2946  1.0515
 3077TIP3   OH2 9194   0.709   0.944   2.023  0.0975 -0.4592  0.1265
 3077TIP3    H1 9195   0.673   0.856   2.031  2.1350 -1.6956 -2.5923
 3077TIP3    H2 9196   0.803   0.931   2.009  0.4991  2.1513 -0.1673
 3078TIP3   OH2 9197   3.451   6.020   4.072 -0.4313 -0.7664 -0.2730
 3078TIP3    H1 9198   3.498   5.937   4.061 -0.2782 -0.7800  0.4851
 3078TIP3    H2 9199   3.363   6.002   4.038 -0.2140 -1.0454 -0.7041
 3079TIP3   OH2 9200   0.081   3.672   4.294 -0.3128 -0.2214  0.3838
 3079TIP3    H1 9201   0.111   3.641   4.208  2.6968  1.9728  0.4964
 3079TIP3    H2 9202  -0.015   3.664   4.290 -0.1697 -1.8682 -2.4636
 3080TIP3   OH2 9203   3.164   4.558   2.962  0.7049  0.1753 -0.3873
 3080TIP3    H1 9204   3.240   4.565   3.020 -0.2716  0.0519  0.9691
 3080TIP3    H2 9205   3.170   4.635   2.905  1.4657  0.5443  0.1700
 3081TIP3   OH2 9206   6.072   5.100   0.782 -0.0204 -0.0051  0.2994
 3081TIP3    H1 9207   6.062   5.194   0.764 -0.1331 -0.2021 -0.7479
 3081TIP3    H2 9208   6.167   5.087   0.784  0.1946 -0.5769 -3.9848
 3082TIP3   OH2 9209   1.149   5.725   0.838 -0.3024 -0.1409  0.1049
 3082TIP3    H1 9210   1.075   5.776   0.804  0.1267  1.3616  1.3170
 3082TIP3    H2 9211   1.217   5.732   0.771 -0.7534 -0.3552 -0.3831
 3083TIP3   OH2 9212   0.503   0.011   2.907  0.4945 -0.8169  0.1350
 3083TIP3    H1 9213   0.432  -0.003   2.971  0.6670 -0.2842  0.4555
 3083TIP3    H2 9214   0.460   0.002   2.822  0.1353 -0.9457  0.3233
 3084TIP3   OH2 9215   3.586   2.169   3.410 -0.1980 -0.2023 -0.4402
 3084TIP3    H1 9216   3.668   2.159   3.361 -0.0980 -0.1290 -0.2893
 3084TIP3    H2 9217   3.613   2.177   3.502 -0.3129  0.6171 -0.4660
 3085TIP3   OH2 9218   1.874   4.767   5.515 -0.2595 -0.2615 -0.4317
 3085TIP3    H1 9219   1.880   4.695   5.453  0.1760 -0.3585 -0.2801
 3085TIP3    H2 9220   1.811   4.737   5.581  0.4353 -0.7907  0.0061
 3086TIP3   OH2 9221   2.899   6.720   1.488  0.6312 -0.4679  0.2544
 3086TIP3    H1 9222   2.950   6.710   1.568  1.2289  0.2616 -0.0224
 3086TIP3    H2 9223   2.895   6.815   1.474 -0.3765 -0.5348 -0.0038
 3087TIP3   OH2 9224   5.552   4.397   4.951 -0.1059  0.0007  0.0527
 3087TIP3    H1 9225   5.503   4.360   4.877 -0.8900  0.1151  0.5032
 3087TIP3    H2 9226   5.619   4.331   4.971 -0.5880 -0.5362 -0.0586
 3088TIP3   OH2 9227   4.845   5.020   1.647  0.5113  0.1250  0.6118
 3088TIP3    H1 9228   4.774   5.083   1.633 -0.9405 -1.5098  0.2876
 3088TIP3    H2 9229   4.891   5.052   1.725 -1.3247  0.5918  1.5623
 3089TIP3   OH2 9230   6.258   1.336   1.467 -0.2110 -0.6962 -0.5447
 3089TIP3    H1 9231   6.237   1.276   1.396  0.1396 -3.1634  1.2917
 3089TIP3    H2 9232   6.191   1.318   1.534  1.4432 -1.0161  1.1116
 3090TIP3   OH2 9233   6.916   4.727   3.948 -0.2081  0.0876  0.2928
 3090TIP3    H1 9234   6.981   4.673   3.903 -0.6209  0.5708 -0.9135
 3090TIP3    H2 9235   6.876   4.780   3.879 -1.1616  0.5489  1.1667
 3091TIP3   OH2 9236   1.842   6.639   4.549 -0.4152  0.0653 -0.4938
 3091TIP3    H1 9237   1.922   6.640   4.495  0.5211  0.7608  0.8527
 3091TIP3    H2 9238   1.855   6.567   4.610 -1.6213 -0.9321 -1.3575
 3092TIP3   OH2 9239   6.970   5.925   5.002  0.0774  0.0615 -0.3355
 3092TIP3    H1 9240   6.893   5.939   5.056 -0.0804  0.7449 -0.7235
 3092TIP3    H2 9241   7.024   6.002   5.017  0.3960 -0.1151 -0.5512
 3093TIP3   OH2 9242   6.388   2.797   1.502  0.0855  0.2267 -0.3142
 3093TIP3    H1 9243   6.401   2.832   1.414  2.8317  1.6381  0.5135
 3093TIP3    H2 9244   6.450   2.724   1.508  0.1915  0.3739  0.5362
 3094TIP3   OH2 9245   0.838   2.206   2.761  0.4135 -0.6482  0.1857
 3094TIP3    H1 9246   0.789   2.144   2.706  0.4392 -0.5644  0.0695
 3094TIP3    H2 9247   0.920   2.160   2.781 -0.1626 -1.2274  1.2712
 3095TIP3   OH2 9248   1.484   4.022   3.259 -0.2497  0.3187 -0.1868
 3095TIP3    H1 9249   1.548   4.055   3.322 -1.3795  0.6050  0.8451
 3095TIP3    H2 9250   1.415   3.982   3.313 -1.2771  0.6335 -1.2215
 3096TIP3   OH2 9251   1.127   5.218   3.978 -0.2309  0.2707 -0.0333
 3096TIP3    H1 9252   1.190   5.161   4.022  0.0925  0.9309  0.3526
 3096TIP3    H2 9253   1.136   5.303   4.020 -0.8366  0.5738 -0.4947
 3097TIP3   OH2 9254   4.002   3.415   2.841  0.0022 -0.0790 -0.1167
 3097TIP3    H1 9255   4.086   3.373   2.824 -0.3047 -1.1901  0.9951
 3097TIP3    H2 9256   3.949   3.347   2.881 -0.5718  1.2950  1.5922
 3098TIP3   OH2 9257   3.999   3.209   3.352  0.0364  0.2113 -0.2447
 3098TIP3    H1 9258   4.016   3.301   3.370 -0.7936 -0.0200  2.2004
 3098TIP3    H2 9259   3.928   3.209   3.288  0.3116  1.2372 -0.5656
 3099TIP3   OH2 9260   6.803   2.071   2.963 -0.1277  0.5908  0.0095
 3099TIP3    H1 9261   6.793   2.165   2.953  3.8001  1.2885  0.8013
 3099TIP3    H2 9262   6.885   2.051   2.917  0.5506 -1.9098  2.0675
 3100TIP3   OH2 9263   3.835   5.268   1.555 -0.3964  0.7252  0.2067
 3100TIP3    H1 9264   3.808   5.285   1.464  1.7220  1.7054 -0.2845
 3100TIP3    H2 9265   3.864   5.177   1.554  0.1171  0.8878 -0.2489
 3101TIP3   OH2 9266   5.208   3.014   3.364 -0.3494  0.0418  0.4755
 3101TIP3    H1 9267   5.282   2.966   3.327 -0.4854  0.3929 -0.2589
 3101TIP3    H2 9268   5.229   3.022   3.457 -0.7023 -2.1596  0.8088
 3102TIP3   OH2 9269   2.267   6.140   1.510  0.2697  0.0964 -0.0828
 3102TIP3    H1 9270   2.294   6.222   1.471  1.0210 -0.3492 -0.5241
 3102TIP3    H2 9271   2.346   6.107   1.554  0.3085 -0.9318 -0.8779
 3103TIP3   OH2 9272   0.110   4.202   2.692 -0.3605 -0.6259  0.3216
 3103TIP3    H1 9273   0.166   4.279   2.705 -2.8114  1.2809  0.4093
 3103TIP3    H2 9274   0.065   4.219   2.610 -0.1816 -2.5354 -0.2002
 3104TIP3   OH2 9275   6.084   6.795   3.741 -0.7918 -0.3306 -0.8591
 3104TIP3    H1 9276   6.047   6.709   3.723 -0.2575 -0.6291 -0.5638
 3104TIP3    H2 9277   6.143   6.811   3.667  1.1968 -1.4376  0.3832
 3105TIP3   OH2 9278   4.413   6.396   3.475 -0.4445 -0.1373  0.2231
 3105TIP3    H1 9279   4.505   6.421   3.474 -0.4366 -0.1399  0.6979
 3105TIP3    H2 9280   4.393   6.383   3.567 -1.6098  2.4156  0.4225
 3106TIP3   OH2 9281   0.906   0.802   2.262  0.5546 -0.2768 -0.5296
 3106TIP3    H1 9282   0.976   0.858   2.296  0.1168  0.8373 -1.4016
 3106TIP3    H2 9283   0.826   0.841   2.297  0.3820 -2.3775  1.6496
 3107TIP3   OH2 9284   0.714   3.909   2.556 -0.2147  0.4138  0.5906
 3107TIP3    H1 9285   0.695   3.995   2.519 -2.2663  0.5049  1.7129
 3107TIP3    H2 9286   0.795   3.922   2.605 -0.9522  1.9947  1.4875
 3108TIP3   OH2 9287   6.597   1.098   5.069 -0.4956  0.4019 -0.3391
 3108TIP3    H1 9288   6.603   1.186   5.107  2.0791 -0.3327  1.2400
 3108TIP3    H2 9289   6.558   1.045   5.138 -1.6594  0.1687 -1.1379
 3109TIP3   OH2 9290   0.363   3.618   2.193  0.0665  0.2769 -0.3041
 3109TIP3    H1 9291   0.298   3.558   2.156  0.2692 -0.5411  0.6202
 3109TIP3    H2 9292   0.318   3.702   2.197 -0.4858  0.0188 -0.9122
 3110TIP3   OH2 9293   4.012   4.765   0.212  0.1836  0.2260 -0.1722
 3110TIP3    H1 9294   3.942   4.818   0.249 -0.2046 -1.2267  1.2781
 3110TIP3    H2 9295   4.069   4.828   0.167 -0.2786  1.8639  1.4228
 3111TIP3   OH2 9296   3.426   1.928   2.793  0.5834 -0.5323  0.3832
 3111TIP3    H1 9297   3.502   1.981   2.819  0.6452  0.9782 -2.4923
 3111TIP3    H2 9298   3.465   1.852   2.750  0.4509 -2.2125  3.0115
 3112TIP3   OH2 9299   3.762   4.794   2.765  0.2761 -0.6426 -0.0230
 3112TIP3    H1 9300   3.780   4.845   2.686  1.2042  1.3018  1.3731
 3112TIP3    H2 9301   3.848   4.767   2.797  0.1695  0.8580  1.7114
 3113TIP3   OH2 9302   5.224   4.891   4.046 -0.2279 -0.0414 -0.4449
 3113TIP3    H1 9303   5.254   4.968   3.999  2.6337  0.1620  1.4853
 3113TIP3    H2 9304   5.303   4.843   4.070 -1.6128 -1.3587  2.0467
 3114TIP3   OH2 9305   7.121   3.215   5.362  0.7263 -0.0339  0.2033
 3114TIP3    H1 9306   7.208   3.251   5.381  2.1011 -0.2806 -4.3435
 3114TIP3    H2 9307   7.127   3.123   5.385  1.4276  0.1013  0.5934
 3115TIP3   OH2 9308   2.102   2.687   3.037 -0.7260 -0.5814  0.8408
 3115TIP3    H1 9309   2.092   2.597   3.066  0.6148 -0.9146  0.3227
 3115TIP3    H2 9310   2.109   2.681   2.942  0.2142 -0.0162  0.8666
 3116TIP3   OH2 9311   2.281   6.419   1.481 -0.2312  0.6507 -0.4711
 3116TIP3    H1 9312   2.376   6.410   1.488 -0.2251 -0.0700 -1.3472
 3116TIP3    H2 9313   2.265   6.513   1.491  0.5235  0.7245  0.1492
 3117TIP3   OH2 9314   6.614   3.720   1.753  0.1683  0.2097 -0.5235
 3117TIP3    H1 9315   6.569   3.636   1.739  1.8370 -0.5488 -1.8146
 3117TIP3    H2 9316   6.626   3.725   1.847 -0.8453 -0.5323 -0.3393
 3118TIP3   OH2 9317   3.726   2.722   3.466  0.4193 -0.3508  0.1804
 3118TIP3    H1 9318   3.681   2.804   3.486 -0.8872 -0.9250 -0.2751
 3118TIP3    H2 9319   3.712   2.667   3.543  2.2212  0.1894  0.9477
 3119TIP3   OH2 9320   0.150   0.073   5.731  0.2406 -0.3547 -0.0250
 3119TIP3    H1 9321   0.244   0.055   5.738  0.9815  1.4926 -3.1731
 3119TIP3    H2 9322   0.138   0.152   5.784  0.5499 -0.3922  0.1076
 3120TIP3   OH2 9323   2.864   4.868   2.852  0.3421  0.2222  0.3297
 3120TIP3    H1 9324   2.957   4.890   2.861  0.0773  1.0584  1.1982
 3120TIP3    H2 9325   2.863   4.772   2.846  1.2587  0.2008  0.2955
 3121TIP3   OH2 9326   1.862   6.374   1.891  0.5061  0.8885 -0.3894
 3121TIP3    H1 9327   1.843   6.287   1.855 -0.3144  2.2029 -3.3913
 3121TIP3    H2 9328   1.816   6.375   1.975 -0.9666 -0.9764 -1.0873
 3122TIP3   OH2 9329   4.793   3.434   3.512  0.5703 -0.2934 -0.1771
 3122TIP3    H1 9330   4.785   3.436   3.607  0.0278 -0.7774 -0.2049
 3122TIP3    H2 9331   4.824   3.345   3.492  1.7116  0.1377 -0.3882
 3123TIP3   OH2 9332   4.222   2.908   4.586 -0.5230 -0.2679 -0.5617
 3123TIP3    H1 9333   4.254   2.881   4.673 -1.4626 -0.6386 -0.3254
 3123TIP3    H2 9334   4.246   3.001   4.580  2.4457 -0.9557 -1.2332
 3124TIP3   OH2 9335   0.550   5.235   1.887 -0.1871 -0.1995  0.8371
 3124TIP3    H1 9336   0.572   5.162   1.943 -2.1900 -1.4823  0.0845
 3124TIP3    H2 9337   0.459   5.255   1.909 -0.3683  0.5962 -0.5180
 3125TIP3   OH2 9338   3.311   3.809   3.064 -0.3132  0.4095 -0.4562
 3125TIP3    H1 9339   3.357   3.863   3.000 -0.6415  0.6717 -0.4761
 3125TIP3    H2 9340   3.371   3.803   3.138 -1.1282  2.6999  0.4915
 3126TIP3   OH2 9341   2.706   0.257   0.553 -0.2900  0.0079  0.5881
 3126TIP3    H1 9342   2.754   0.300   0.623 -1.4342  2.0446  0.2129
 3126TIP3    H2 9343   2.763   0.265   0.476  0.3937 -1.0532  0.9642
 3127TIP3   OH2 9344   4.083   2.991   5.855  0.1011  0.2680 -0.2626
 3127TIP3    H1 9345   4.144   3.050   5.812 -0.3970  0.2613 -1.0082
 3127TIP3    H2 9346   4.135   2.945   5.920  1.0055 -0.0966 -1.2155
 3128TIP3   OH2 9347   0.792   1.856   2.240  0.0614  0.0288 -0.9504
 3128TIP3    H1 9348   0.755   1.867   2.152 -1.4283 -0.7129 -0.4479
 3128TIP3    H2 9349   0.761   1.932   2.288 -1.7402 -1.0860 -0.2537
 3129TIP3   OH2 9350   0.084   3.399   1.704 -0.1766  0.3498 -0.4242
 3129TIP3    H1 9351   0.031   3.319   1.707 -0.1353  0.3330  0.0235
 3129TIP3    H2 9352   0.037   3.461   1.760 -0.7007  0.9578 -1.5065
 3130TIP3   OH2 9353   0.681   1.647   3.056  0.3127 -0.0406  0.2866
 3130TIP3    H1 9354   0.733   1.640   3.137 -0.0503  1.1328  0.6397
 3130TIP3    H2 9355   0.592   1.662   3.087  0.3271  1.3978 -0.3292
 3131TIP3   OH2 9356   3.994   4.022   5.168  0.2081  0.2975  0.5182
 3131TIP3    H1 9357   3.915   3.985   5.130  0.5767 -0.6643  0.6521
 3131TIP3    H2 9358   4.029   4.080   5.100  0.1074 -0.3134 -0.0623
 3132TIP3   OH2 9359   6.328   2.739   3.779 -0.2295 -0.3001 -0.1739
 3132TIP3    H1 9360   6.390   2.678   3.818 -0.2062 -1.0170 -1.2921
 3132TIP3    H2 9361   6.382   2.809   3.743 -0.2538  0.3897  1.0676
 3133TIP3   OH2 9362   3.644   0.992   0.413  0.1209 -0.1580  0.0918
 3133TIP3    H1 9363   3.687   0.952   0.338 -0.8686 -1.0269 -0.0346
 3133TIP3    H2 9364   3.608   1.074   0.379 -2.4036 -1.6212 -1.1025
 3134TIP3   OH2 9365   6.240   0.325   4.048 -0.5497 -0.1178 -0.6410
 3134TIP3    H1 9366   6.271   0.334   4.138  0.9898 -1.8725 -0.9328
 3134TIP3    H2 9367   6.226   0.415   4.019  2.2971  0.7296  0.2478
 3135TIP3   OH2 9368   3.797   3.686   4.193 -1.2348  0.3683  0.5049
 3135TIP3    H1 9369   3.832   3.693   4.105 -2.8584 -1.6844 -0.4011
 3135TIP3    H2 9370   3.873   3.695   4.251  0.1766 -0.3579 -1.1729
 3136TIP3   OH2 9371   1.011   1.786   1.150  0.0925  0.0844  0.4281
 3136TIP3    H1 9372   0.994   1.879   1.140  0.4023 -0.0865 -2.5798
 3136TIP3    H2 9373   0.925   1.745   1.140 -0.4445  0.0431  4.0247
 3137TIP3   OH2 9374   2.096   4.103   4.411 -0.3381  0.2883 -0.1600
 3137TIP3    H1 9375   2.164   4.091   4.344 -0.3470 -0.3243 -0.0669
 3137TIP3    H2 9376   2.107   4.193   4.441  0.0724  0.3679 -0.5400
 3138TIP3   OH2 9377   3.255   5.427   5.744  0.1410 -0.1938  0.6127
 3138TIP3    H1 9378   3.241   5.498   5.681  0.3177 -1.2734 -0.6830
 3138TIP3    H2 9379   3.181   5.434   5.805 -0.8054  0.0152 -0.5350
 3139TIP3   OH2 9380   4.992   0.509   5.451 -0.1627  0.0651  0.4454
 3139TIP3    H1 9381   4.906   0.471   5.433  0.0303  0.3225 -1.1789
 3139TIP3    H2 9382   5.008   0.490   5.543 -1.9325 -0.0368  0.7655
 3140TIP3   OH2 9383   4.144   6.683   2.416 -0.3328 -0.1853 -0.7900
 3140TIP3    H1 9384   4.079   6.750   2.433  0.8120  0.8156 -0.1702
 3140TIP3    H2 9385   4.095   6.601   2.410 -1.6334  0.5618 -0.5112
 3141TIP3   OH2 9386   2.797   3.704   0.289  0.0137  0.4182  0.1432
 3141TIP3    H1 9387   2.775   3.794   0.263 -2.4938 -0.0334  0.3910
 3141TIP3    H2 9388   2.808   3.709   0.384  2.8780  0.9312 -0.1350
 3142TIP3   OH2 9389   1.487   2.776   2.504 -0.0105 -0.7680 -0.2293
 3142TIP3    H1 9390   1.433   2.698   2.495 -0.9481 -0.0913 -0.7374
 3142TIP3    H2 9391   1.510   2.779   2.597  0.4758 -1.9188 -0.3101
 3143TIP3   OH2 9392   5.576   3.590   3.949 -0.0794  0.1024 -0.5498
 3143TIP3    H1 9393   5.638   3.646   3.901 -1.0318  0.2622 -1.6607
 3143TIP3    H2 9394   5.490   3.622   3.922 -0.6539 -0.3552  0.6739
 3144TIP3   OH2 9395   5.013   2.744   3.255 -0.2254  0.3141 -0.1145
 3144TIP3    H1 9396   4.952   2.763   3.184  1.1194  2.5534 -0.7581
 3144TIP3    H2 9397   5.081   2.691   3.215 -0.2922  0.2085 -0.0895
 3145TIP3   OH2 9398   4.294   1.996   5.463 -0.0237 -0.0736  0.1189
 3145TIP3    H1 9399   4.212   1.950   5.479  0.6353 -0.8554  1.3779
 3145TIP3    H2 9400   4.333   2.006   5.550  2.4005 -1.9498 -0.6705
 3146TIP3   OH2 9401   6.807   2.358   0.678  0.0979  0.1700 -0.1212
 3146TIP3    H1 9402   6.811   2.408   0.597  2.0015 -0.4250 -0.4488
 3146TIP3    H2 9403   6.716   2.328   0.684 -0.9179  2.9136 -0.3161
 3147TIP3   OH2 9404   5.212   3.489   2.379 -0.0216  0.2836 -0.1478
 3147TIP3    H1 9405   5.205   3.524   2.468 -0.3962 -0.1840  0.0132
 3147TIP3    H2 9406   5.194   3.395   2.389  1.3395 -0.0361 -0.5092
 3148TIP3   OH2 9407   4.436   1.386   0.682  0.3938 -0.5093 -0.0364
 3148TIP3    H1 9408   4.505   1.430   0.633 -0.2685 -0.0631 -0.5816
 3148TIP3    H2 9409   4.482   1.317   0.730  1.5320  1.0466  1.2115
 3149TIP3   OH2 9410   5.885   0.948   5.023  0.5123  0.0334  0.0890
 3149TIP3    H1 9411   5.903   1.038   4.995 -0.2895 -0.1836 -1.1690
 3149TIP3    H2 9412   5.959   0.898   4.991 -0.7363 -0.3467 -2.4793
 3150TIP3   OH2 9413   1.505   3.974   3.633 -0.3945 -0.1209  0.6513
 3150TIP3    H1 9414   1.437   3.913   3.661 -0.2403 -0.5674  0.0795
 3150TIP3    H2 9415   1.587   3.931   3.657 -0.2210 -0.9641 -1.2908
 3151TIP3   OH2 9416   3.934   0.754   2.012  0.1508  0.3372  0.0278
 3151TIP3    H1 9417   3.969   0.760   2.101 -0.5300 -0.4177  0.3627
 3151TIP3    H2 9418   3.924   0.660   1.997 -2.1496  0.5014  0.1334
 3152TIP3   OH2 9419   4.367   1.532   4.897 -0.2347 -0.3275 -0.1363
 3152TIP3    H1 9420   4.397   1.480   4.971 -0.7799  0.8107  0.9255
 3152TIP3    H2 9421   4.448   1.563   4.856  0.0941  0.1283  0.8071
 3153TIP3   OH2 9422   0.946   1.301   5.523  0.4324 -0.3420 -0.0790
 3153TIP3    H1 9423   0.991   1.339   5.599 -0.5125  0.6405  0.0082
 3153TIP3    H2 9424   1.014   1.253   5.477  1.7098  1.5186 -0.2265
 3154TIP3   OH2 9425   3.470   4.454   0.444  0.3358  0.2015 -0.1870
 3154TIP3    H1 9426   3.497   4.546   0.445  0.3064  0.2104  0.5723
 3154TIP3    H2 9427   3.485   4.425   0.354  1.8755  0.5096 -0.0510
 3155TIP3   OH2 9428   6.449   1.526   1.408  0.1220  0.6108 -0.1322
 3155TIP3    H1 9429   6.412   1.564   1.329  0.8188  4.6119  1.2136
 3155TIP3    H2 9430   6.383   1.464   1.439 -0.2190 -0.9632 -3.6130
 3156TIP3   OH2 9431   2.489   3.072   2.653 -0.2429 -0.0676 -0.6737
 3156TIP3    H1 9432   2.413   3.130   2.663 -0.5184 -0.6294  0.8309
 3156TIP3    H2 9433   2.506   3.070   2.559 -3.3986 -1.5870 -1.3273
 3157TIP3   OH2 9434   1.734   3.728   2.983 -0.4770 -0.2733 -0.0297
 3157TIP3    H1 9435   1.823   3.697   2.997  0.1501  1.4706  0.1775
 3157TIP3    H2 9436   1.712   3.775   3.063 -0.4350  1.8047 -1.1569
 3158TIP3   OH2 9437   0.781   1.935   4.259  0.2809 -0.4057  0.2138
 3158TIP3    H1 9438   0.876   1.935   4.243  0.5488 -1.0470  1.5875
 3158TIP3    H2 9439   0.774   1.952   4.353 -0.9163 -1.3713  0.3177
 3159TIP3   OH2 9440   1.996   3.545   1.581  0.1344  0.6106 -0.0548
 3159TIP3    H1 9441   1.901   3.532   1.588 -0.3122  2.8382 -1.1264
 3159TIP3    H2 9442   2.024   3.562   1.671 -0.3309 -0.7598  0.3733
 3160TIP3   OH2 9443   3.147   0.331   1.534  0.1157  0.7212 -0.0974
 3160TIP3    H1 9444   3.089   0.349   1.460  0.0052 -0.0637 -0.2073
 3160TIP3    H2 9445   3.185   0.416   1.556 -0.4970  1.1059 -0.5108
 3161TIP3   OH2 9446   2.173   2.597   0.326 -0.1737  0.4702 -0.2369
 3161TIP3    H1 9447   2.084   2.570   0.304 -0.3788  0.8575  0.1123
 3161TIP3    H2 9448   2.205   2.529   0.385  0.8304 -1.2748 -2.5811
 3162TIP3   OH2 9449   5.630   5.451   1.463 -0.0435  0.1320 -0.5075
 3162TIP3    H1 9450   5.596   5.532   1.425  0.6503  0.4832 -0.3990
 3162TIP3    H2 9451   5.625   5.387   1.392 -1.5149 -0.0080 -0.3131
 3163TIP3   OH2 9452   0.786   4.969   2.501  0.1317  0.2421  0.1616
 3163TIP3    H1 9453   0.833   5.049   2.474 -0.7376  0.9016  0.5489
 3163TIP3    H2 9454   0.781   4.916   2.421  0.0690  0.9156 -0.2944
 3164TIP3   OH2 9455   4.710   6.634   2.313  0.0441 -0.2629 -0.6421
 3164TIP3    H1 9456   4.668   6.613   2.230  0.6132 -1.2434 -0.7105
 3164TIP3    H2 9457   4.742   6.549   2.345 -0.2586  0.0829  0.6291
 3165TIP3   OH2 9458   5.449   6.091   3.920 -0.9567  0.6805 -0.4992
 3165TIP3    H1 9459   5.438   6.035   3.842  0.1060  1.6544 -1.3895
 3165TIP3    H2 9460   5.430   6.179   3.888 -1.4020  0.9810  0.5838
 3166TIP3   OH2 9461   5.206   1.165   5.430 -0.5894 -0.2376 -0.4640
 3166TIP3    H1 9462   5.261   1.176   5.507 -1.3813  0.0621  0.0677
 3166TIP3    H2 9463   5.133   1.227   5.443 -1.7082 -1.4926 -0.5356
 3167TIP3   OH2 9464   3.570   0.639   0.168 -0.5147 -0.1046 -0.0496
 3167TIP3    H1 9465   3.654   0.665   0.129 -1.6970  2.2289 -1.2765
 3167TIP3    H2 9466   3.538   0.568   0.113 -0.4288  0.6250 -1.0665
 3168TIP3   OH2 9467   5.588   4.085   4.429 -0.7356 -0.2180 -0.1666
 3168TIP3    H1 9468   5.619   4.038   4.507 -2.2214 -0.9039  0.0464
 3168TIP3    H2 9469   5.495   4.100   4.446 -1.4733 -1.7243 -2.4128
 3169TIP3   OH2 9470   2.260   5.601   5.706  0.5224  0.0614 -0.4756
 3169TIP3    H1 9471   2.200   5.627   5.776  1.2869 -0.4421  0.3886
 3169TIP3    H2 9472   2.266   5.679   5.650 -0.2651  0.3997 -0.1085
 3170TIP3   OH2 9473   1.082   2.463   2.082 -0.1087 -0.1954  0.4074
 3170TIP3    H1 9474   1.035   2.537   2.120 -1.0603 -0.8568  0.5650
 3170TIP3    H2 9475   1.123   2.499   2.003 -1.7845  0.1935 -0.3509
 3171TIP3   OH2 9476   5.790   0.745   1.357 -0.0546 -0.1624  1.0938
 3171TIP3    H1 9477   5.864   0.699   1.316  0.3298  0.3572  1.2003
 3171TIP3    H2 9478   5.828   0.786   1.435  0.0265  1.8396  0.0526
 3172TIP3   OH2 9479   6.387   1.321   5.034  0.0850  0.2105  0.3983
 3172TIP3    H1 9480   6.426   1.372   4.963  0.3654 -0.5541 -0.0175
 3172TIP3    H2 9481   6.371   1.235   4.995 -0.9566  0.1662  0.8989
 3173TIP3   OH2 9482   0.771   6.668   2.827  0.0886 -0.5700  0.4153
 3173TIP3    H1 9483   0.787   6.654   2.921  3.4041 -0.9985 -0.1218
 3173TIP3    H2 9484   0.735   6.585   2.796  0.8048 -1.0969  0.9627
 3174TIP3   OH2 9485   1.946   6.648   1.217  0.0385  0.2260  0.2080
 3174TIP3    H1 9486   1.955   6.558   1.249  0.1299 -0.0339 -0.5253
 3174TIP3    H2 9487   1.903   6.638   1.132  3.0364  0.5945 -1.4902
 3175TIP3   OH2 9488   4.007   6.124   5.472  0.5689 -0.5368  0.3987
 3175TIP3    H1 9489   3.913   6.122   5.490  0.5945 -1.6157  0.4347
 3175TIP3    H2 9490   4.029   6.035   5.448  1.9712 -0.7562  2.2954
 3176TIP3   OH2 9491   2.802   6.713   4.626  0.0762  0.0290  0.0688
 3176TIP3    H1 9492   2.845   6.760   4.554  0.2432 -0.7838 -0.3761
 3176TIP3    H2 9493   2.830   6.622   4.614  1.0163  0.0446  1.8260
 3177TIP3   OH2 9494   6.679   3.301   3.436  0.4089 -0.3611 -0.2310
 3177TIP3    H1 9495   6.775   3.307   3.438  0.3262  1.5670 -0.2544
 3177TIP3    H2 9496   6.656   3.309   3.344  0.1675  1.1710 -0.0645
 3178TIP3   OH2 9497   0.731   6.536   1.614 -0.3722 -0.0410 -0.0335
 3178TIP3    H1 9498   0.715   6.592   1.689  1.0245  0.8956 -0.3856
 3178TIP3    H2 9499   0.792   6.470   1.646 -0.3963 -0.1124 -0.1353
 3179TIP3   OH2 9500   5.547   2.338   5.294 -0.4635 -0.9646  0.2538
 3179TIP3    H1 9501   5.586   2.269   5.348  0.8668  0.2724  0.9269
 3179TIP3    H2 9502   5.620   2.371   5.241 -1.4808 -1.3335 -1.4796
 3180TIP3   OH2 9503   4.299   0.690   2.937 -0.0474 -0.1216 -0.0772
 3180TIP3    H1 9504   4.393   0.709   2.948  0.2164 -1.3304 -0.1283
 3180TIP3    H2 9505   4.258   0.776   2.930  0.8992  0.4703  1.2304
 3181TIP3   OH2 9506   0.652   2.767   2.431 -0.4825  0.2596 -0.5429
 3181TIP3    H1 9507   0.581   2.706   2.409  0.4904 -0.9419 -0.5041
 3181TIP3    H2 9508   0.701   2.777   2.349 -0.3799  0.6498 -0.4378
 3182TIP3   OH2 9509   4.390   6.498   5.052 -0.1537 -0.4761 -0.2211
 3182TIP3    H1 9510   4.333   6.437   5.099  1.6324 -2.0957 -0.0144
 3182TIP3    H2 9511   4.477   6.461   5.062  0.6915  0.8138 -2.2280
 3183TIP3   OH2 9512   5.449   1.993   5.682  0.1336  0.6630 -0.2746
 3183TIP3    H1 9513   5.504   1.925   5.719  2.7816  0.7849 -3.4795
 3183TIP3    H2 9514   5.366   1.949   5.663  0.6555 -0.7820  0.6579
 3184TIP3   OH2 9515   6.354   5.508   4.456 -0.1558  0.1542 -0.3385
 3184TIP3    H1 9516   6.435   5.557   4.439  0.2305 -0.4545 -0.3180
 3184TIP3    H2 9517   6.366   5.472   4.544 -0.6711  0.4687 -0.1350
 3185TIP3   OH2 9518   5.446   1.627   3.346  0.8997 -0.7563  0.8781
 3185TIP3    H1 9519   5.465   1.686   3.420  1.1839  2.4865 -1.5459
 3185TIP3    H2 9520   5.360   1.590   3.366 -1.1323  3.4563  1.0011
 3186TIP3   OH2 9521   5.495   0.294   5.036  0.1201 -0.1542  0.0355
 3186TIP3    H1 9522   5.560   0.329   4.975  0.4508 -1.6829 -0.5330
 3186TIP3    H2 9523   5.411   0.315   4.995  0.2853  0.5509  0.0462
 3187TIP3   OH2 9524   6.634   2.786   2.968  0.4847 -0.1328  0.4245
 3187TIP3    H1 9525   6.583   2.709   2.943 -0.0890  0.7951 -1.4418
 3187TIP3    H2 9526   6.697   2.753   3.032 -0.7501 -1.8260  0.8421
 3188TIP3   OH2 9527   5.859   3.594   3.067  0.4529  0.1875 -0.2528
 3188TIP3    H1 9528   5.892   3.683   3.077  0.9062  0.0770 -0.7203
 3188TIP3    H2 9529   5.877   3.571   2.976  0.3058 -0.3637 -0.1492
 3189TIP3   OH2 9530   6.346   4.691   1.631  0.1182 -0.0794  0.2743
 3189TIP3    H1 9531   6.332   4.679   1.537 -1.3209  1.3254  0.2733
 3189TIP3    H2 9532   6.323   4.606   1.669  2.9557 -1.4505 -0.7703
 3190TIP3   OH2 9533   6.208   6.191   3.230 -0.2152 -0.1934  0.0777
 3190TIP3    H1 9534   6.207   6.164   3.322 -3.2004  0.4536  0.3298
 3190TIP3    H2 9535   6.190   6.285   3.233  0.3598 -0.0237 -1.1818
 3191TIP3   OH2 9536   5.475   0.203   4.045 -0.2176 -0.3085  0.3239
 3191TIP3    H1 9537   5.441   0.284   4.083  1.0043 -0.0046  0.8018
 3191TIP3    H2 9538   5.397   0.155   4.016 -0.9090  1.5533 -1.0503
 3192TIP3   OH2 9539   2.500   4.469   0.179 -0.2171 -0.3932 -0.0352
 3192TIP3    H1 9540   2.457   4.384   0.173 -0.6355 -0.1982  0.1635
 3192TIP3    H2 9541   2.447   4.527   0.125 -1.1060  0.2010  1.4000
 3193TIP3   OH2 9542   2.203   0.377   2.596  0.1623  0.2779  0.1070
 3193TIP3    H1 9543   2.112   0.345   2.601  0.0777  0.2326 -1.4154
 3193TIP3    H2 9544   2.224   0.402   2.686 -0.4314 -2.2442  1.0377
 3194TIP3   OH2 9545   6.024   5.172   5.145 -0.3347 -0.3392  0.4182
 3194TIP3    H1 9546   6.056   5.245   5.198 -1.2169  1.1376 -0.9871
 3194TIP3    H2 9547   6.085   5.101   5.163  0.7752  0.8444  1.5692
 3195TIP3   OH2 9548   2.315   0.885   4.063  0.5221  0.1091 -0.0995
 3195TIP3    H1 9549   2.375   0.924   4.126 -0.4772 -0.9955  1.6274
 3195TIP3    H2 9550   2.228   0.897   4.102 -0.4549  1.7200 -2.5372
 3196TIP3   OH2 9551   4.605   4.736   2.609  0.2648 -0.5346  0.4376
 3196TIP3    H1 9552   4.625   4.676   2.681 -0.5888 -0.4518  0.7532
 3196TIP3    H2 9553   4.525   4.700   2.569  0.5889 -0.4427 -0.3088
 3197TIP3   OH2 9554   4.782   6.397   5.709  0.4818  0.3563  0.9549
 3197TIP3    H1 9555   4.783   6.486   5.745 -0.6740  1.0843 -0.7062
 3197TIP3    H2 9556   4.744   6.344   5.779  0.5816  1.2823  1.7343
 3198TIP3   OH2 9557   5.751   3.297   0.541 -0.4084  0.1564 -0.0253
 3198TIP3    H1 9558   5.681   3.334   0.488 -0.9569  0.1219  0.6644
 3198TIP3    H2 9559   5.727   3.206   0.553 -0.6437  0.3270  0.8483
 3199TIP3   OH2 9560   3.657   2.151   1.877  0.3262  0.3182 -0.2047
 3199TIP3    H1 9561   3.567   2.173   1.901  0.3806  0.8032 -0.4306
 3199TIP3    H2 9562   3.648   2.105   1.793  0.2884  0.3922 -0.2419
 3200TIP3   OH2 9563   4.257   3.046   4.031 -0.2487  0.1028  0.3127
 3200TIP3    H1 9564   4.269   2.971   3.972 -0.7489 -1.0840  1.6662
 3200TIP3    H2 9565   4.273   3.122   3.976  1.1241 -1.0086 -0.9195
 3201TIP3   OH2 9566   1.447   1.111   0.441 -0.1321 -0.2599 -0.5900
 3201TIP3    H1 9567   1.428   1.097   0.348 -1.6096  0.3465 -0.3973
 3201TIP3    H2 9568   1.392   1.048   0.487 -0.9738  0.8173 -0.0648
 3202TIP3   OH2 9569   3.563   5.299   2.432  0.2663 -0.0374 -0.1168
 3202TIP3    H1 9570   3.470   5.319   2.434  0.2218 -0.2466  0.0475
 3202TIP3    H2 9571   3.606   5.382   2.412  0.0989  0.2696  0.7517
 3203TIP3   OH2 9572   1.367   0.764   5.359 -0.2183 -0.3300 -0.0814
 3203TIP3    H1 9573   1.362   0.854   5.327 -0.5744 -0.7466 -1.2337
 3203TIP3    H2 9574   1.461   0.746   5.365 -0.1172 -0.4410 -1.5509
 3204TIP3   OH2 9575   6.769   3.448   5.912 -0.4838  0.2743 -0.1994
 3204TIP3    H1 9576   6.715   3.422   5.837 -0.7800  0.6171 -0.1072
 3204TIP3    H2 9577   6.792   3.539   5.894  1.1644 -0.2344 -0.8836
 3205TIP3   OH2 9578   4.620   5.570   2.682  0.1766  0.3958  0.8767
 3205TIP3    H1 9579   4.651   5.652   2.720  3.5849  0.1625 -0.9687
 3205TIP3    H2 9580   4.695   5.511   2.690 -0.6283 -1.1330 -1.7603
 3206TIP3   OH2 9581   0.295   1.697   3.495  0.1579 -0.6395 -0.4829
 3206TIP3    H1 9582   0.206   1.701   3.459 -0.1886  0.4764  0.4087
 3206TIP3    H2 9583   0.336   1.779   3.465 -0.0648  0.1998  1.3855
 3207TIP3   OH2 9584   2.660   3.519   4.953 -0.0452 -0.5761 -0.4120
 3207TIP3    H1 9585   2.700   3.606   4.948  0.7620 -0.9295 -0.3446
 3207TIP3    H2 9586   2.697   3.472   4.879  0.5513 -1.2657  0.3079
 3208TIP3   OH2 9587   5.375   3.827   2.190  0.3710 -0.1734  0.2356
 3208TIP3    H1 9588   5.398   3.895   2.126 -2.6355 -0.5408 -1.4131
 3208TIP3    H2 9589   5.289   3.796   2.162  0.3768 -2.6953  2.6181
 3209TIP3   OH2 9590   3.214   4.620   5.783 -0.0525  0.2106 -0.6686
 3209TIP3    H1 9591   3.124   4.650   5.778 -0.4007 -0.7757 -0.6327
 3209TIP3    H2 9592   3.267   4.695   5.756 -0.9290  0.5253 -1.5487
 3210TIP3   OH2 9593   0.327   4.164   3.575 -0.1721 -0.4977  0.0860
 3210TIP3    H1 9594   0.253   4.164   3.636 -0.2526 -1.0342  0.0007
 3210TIP3    H2 9595   0.300   4.102   3.506 -1.0795  1.7573 -1.7340
 3211TIP3   OH2 9596   5.144   5.046   0.075  0.4080 -0.1752 -0.3098
 3211TIP3    H1 9597   5.181   4.975   0.022 -0.2814 -0.1863 -0.7940
 3211TIP3    H2 9598   5.054   5.053   0.045  0.4483  0.8582 -0.2137
 3212TIP3   OH2 9599   0.031   3.949   2.623 -0.1232 -0.1559  0.3371
 3212TIP3    H1 9600   0.053   3.997   2.543 -1.7385  0.2326  0.0973
 3212TIP3    H2 9601   0.063   4.004   2.694 -0.3973  0.4246  0.0110
 3213TIP3   OH2 9602   6.170   3.639   1.025 -0.0442 -0.8119 -0.0505
 3213TIP3    H1 9603   6.212   3.553   1.023 -0.5133 -1.0290 -1.4479
 3213TIP3    H2 9604   6.101   3.631   1.091 -0.9613 -1.9345 -1.1167
 3214TIP3   OH2 9605   4.129   0.630   1.623  0.6378 -0.2523  0.2844
 3214TIP3    H1 9606   4.090   0.717   1.612  1.1393 -0.0323  0.1945
 3214TIP3    H2 9607   4.201   0.645   1.685  0.1150 -0.7895  1.0309
 3215TIP3   OH2 9608   1.109   3.220   4.443 -0.1199 -0.3720 -0.2562
 3215TIP3    H1 9609   1.162   3.141   4.437 -1.3288 -1.1523 -1.0062
 3215TIP3    H2 9610   1.109   3.241   4.537  2.8456  0.6477 -0.3799
 3216TIP3   OH2 9611   6.084   1.353   5.839  0.0516  0.4185  0.0724
 3216TIP3    H1 9612   6.155   1.412   5.863 -1.0847  1.8898  0.0063
 3216TIP3    H2 9613   6.005   1.394   5.875 -1.2138  0.6887 -2.7066
 3217TIP3   OH2 9614   3.625   5.709   4.210 -0.1876  0.0418 -0.5716
 3217TIP3    H1 9615   3.617   5.639   4.145 -0.0821  0.0346 -0.5774
 3217TIP3    H2 9616   3.608   5.789   4.161  1.0720  0.1527 -0.8853
 3218TIP3   OH2 9617   1.863   4.582   0.009 -0.4470  0.3912  0.0085
 3218TIP3    H1 9618   1.911   4.661   0.034 -0.2315  0.1739  0.2829
 3218TIP3    H2 9619   1.847   4.537   0.092  0.1551 -0.2669 -0.2292
 3219TIP3   OH2 9620   3.974   1.621   2.629 -0.2671 -0.2327 -0.5550
 3219TIP3    H1 9621   3.979   1.712   2.600  2.2945 -0.1003  0.1066
 3219TIP3    H2 9622   3.906   1.622   2.697 -0.1388  1.2317 -0.4100
 3220TIP3   OH2 9623   1.585   1.971   5.623  0.3810  1.1271 -0.2607
 3220TIP3    H1 9624   1.510   1.912   5.630  2.2236 -1.2171  0.7819
 3220TIP3    H2 9625   1.604   1.996   5.713  1.9583  0.1999 -0.3170
 3221TIP3   OH2 9626   1.651   0.545   4.587  0.0912  0.1963 -0.1838
 3221TIP3    H1 9627   1.619   0.635   4.574 -1.3452 -0.1262  0.8565
 3221TIP3    H2 9628   1.666   0.512   4.499 -1.6858  0.6875 -0.7219
 3222TIP3   OH2 9629   0.060   4.749   4.862 -0.1936 -0.2500  0.0325
 3222TIP3    H1 9630  -0.011   4.797   4.821 -0.5307  0.1696  1.0790
 3222TIP3    H2 9631   0.099   4.698   4.791  0.6466  2.0982 -1.3185
 3223TIP3   OH2 9632   2.609   4.783   3.559 -0.0127  0.0868 -0.1385
 3223TIP3    H1 9633   2.634   4.768   3.650  0.9455  1.0022 -0.2347
 3223TIP3    H2 9634   2.675   4.737   3.507 -0.4931 -0.3447 -0.3782
 3224TIP3   OH2 9635   5.879   0.859   5.269  0.3815 -0.6011 -0.1064
 3224TIP3    H1 9636   5.858   0.881   5.178  0.8655 -2.9703 -0.8426
 3224TIP3    H2 9637   5.973   0.879   5.277 -0.1017  1.7455  0.6195
 3225TIP3   OH2 9638   1.046   0.303   4.181 -0.4015 -0.7427 -0.0102
 3225TIP3    H1 9639   1.001   0.371   4.232 -1.1015 -0.1828 -1.3225
 3225TIP3    H2 9640   1.092   0.352   4.112 -1.1999 -1.5878 -1.1870
 3226TIP3   OH2 9641   5.230   1.820   0.570  0.3411 -0.1432  0.2409
 3226TIP3    H1 9642   5.135   1.810   0.571  0.3386 -0.1017  0.9014
 3226TIP3    H2 9643   5.262   1.741   0.526  0.0032 -0.1388 -0.0195
 3227TIP3   OH2 9644   1.789   6.341   2.394 -0.0162 -0.1955  0.0722
 3227TIP3    H1 9645   1.836   6.407   2.344 -0.5927 -0.5643 -0.9751
 3227TIP3    H2 9646   1.710   6.323   2.343 -1.6905  0.8899  2.0610
 3228TIP3   OH2 9647   1.214   2.630   3.448  0.4930  0.0253 -0.2252
 3228TIP3    H1 9648   1.308   2.650   3.442  0.7931 -1.2187 -0.0899
 3228TIP3    H2 9649   1.175   2.675   3.374  0.5762  3.6884  1.7432
 3229TIP3   OH2 9650   0.657   5.928   1.452  0.3745  0.1063 -0.0330
 3229TIP3    H1 9651   0.693   5.907   1.538  1.4424 -0.2914 -0.5542
 3229TIP3    H2 9652   0.714   5.882   1.390 -1.2604 -0.8670 -0.8978
 3230TIP3   OH2 9653   0.046   6.169   4.750 -0.0671  0.1608 -0.4679
 3230TIP3    H1 9654   0.072   6.077   4.760 -0.8933 -0.1542 -1.1060
 3230TIP3    H2 9655  -0.028   6.166   4.689  1.0139  1.4280 -1.9060
 3231TIP3   OH2 9656   4.049   4.370   1.525 -0.3996  0.0621 -0.7748
 3231TIP3    H1 9657   4.009   4.294   1.566  1.1623 -0.9202 -0.9885
 3231TIP3    H2 9658   4.130   4.384   1.574  0.5050  0.1063 -2.2286
 3232TIP3   OH2 9659   1.343   0.207   4.855  0.0327 -0.1340 -0.1160
 3232TIP3    H1 9660   1.402   0.279   4.833 -1.5483  1.2577 -0.0012
 3232TIP3    H2 9661   1.318   0.169   4.770  1.1753 -0.8435 -0.1568
 3233TIP3   OH2 9662   3.752   5.631   1.282 -0.1480  0.2947 -0.1442
 3233TIP3    H1 9663   3.746   5.536   1.276  0.7236  0.0335  2.2432
 3233TIP3    H2 9664   3.704   5.654   1.362  0.7145  1.7301 -0.0020
 3234TIP3   OH2 9665   2.239   0.321   3.565  0.1774  0.1893  0.7084
 3234TIP3    H1 9666   2.217   0.254   3.631  1.9947  0.9419  2.1558
 3234TIP3    H2 9667   2.199   0.288   3.484 -1.5684 -1.1131  2.0092
 3235TIP3   OH2 9668   6.806   2.995   2.950  0.1753  0.2243  0.2547
 3235TIP3    H1 9669   6.726   2.944   2.952  1.0553 -1.1816  1.2622
 3235TIP3    H2 9670   6.805   3.039   2.865 -1.1405 -0.5928 -0.1733
 3236TIP3   OH2 9671   7.025   3.936   5.685  0.2681 -0.2660 -0.2805
 3236TIP3    H1 9672   7.033   3.856   5.633  1.6217  1.5500 -3.1477
 3236TIP3    H2 9673   7.108   3.943   5.731  0.6002  0.0154 -0.9092
 3237TIP3   OH2 9674   6.964   4.936   4.547  0.2992 -0.0582 -0.5413
 3237TIP3    H1 9675   7.041   4.992   4.556 -1.2912  2.2415 -0.1652
 3237TIP3    H2 9676   6.958   4.891   4.632  1.3532 -0.4884 -0.6763
 3238TIP3   OH2 9677   3.161   2.890   4.178 -0.3706  0.0275 -0.2374
 3238TIP3    H1 9678   3.196   2.804   4.199 -1.7255 -0.2733  0.8960
 3238TIP3    H2 9679   3.182   2.944   4.254 -0.8979  0.2900 -0.2753
 3239TIP3   OH2 9680   6.937   3.917   5.362  0.0599  0.3109  0.5997
 3239TIP3    H1 9681   6.916   3.899   5.454  2.8466  0.6001  1.3764
 3239TIP3    H2 9682   6.948   3.830   5.323  0.6319  0.1972  1.0065
 3240TIP3   OH2 9683   4.275   2.688   3.947 -0.2737 -0.6523  0.4095
 3240TIP3    H1 9684   4.308   2.632   3.877 -1.1947 -1.6756  0.7644
 3240TIP3    H2 9685   4.222   2.754   3.901  0.0791 -0.6061  0.0597
 3241TIP3   OH2 9686   3.475   3.293   5.120  0.5854  0.2582  0.2921
 3241TIP3    H1 9687   3.564   3.272   5.091  0.8322  0.3155  0.9927
 3241TIP3    H2 9688   3.483   3.302   5.215 -0.5656 -1.7766  0.6362
 3242TIP3   OH2 9689   3.889   3.507   1.951 -0.0159  0.1302 -0.2547
 3242TIP3    H1 9690   3.886   3.600   1.970 -3.0354  0.2983 -1.0741
 3242TIP3    H2 9691   3.826   3.494   1.880 -1.2188 -2.7944  1.1592
 3243TIP3   OH2 9692   0.750   1.310   4.662 -0.0670 -0.7007  0.0464
 3243TIP3    H1 9693   0.678   1.373   4.669  0.4999  0.0783 -0.9183
 3243TIP3    H2 9694   0.825   1.363   4.635  1.0073 -1.4078  1.4960
 3244TIP3   OH2 9695   0.916   5.053   1.332  0.2683  0.4606  0.3090
 3244TIP3    H1 9696   0.911   5.146   1.352 -0.4020  0.1939  1.4606
 3244TIP3    H2 9697   1.008   5.038   1.311  0.5795  1.1933  1.0751
 3245TIP3   OH2 9698   6.748   3.207   2.208 -0.2782  0.0127  0.4009
 3245TIP3    H1 9699   6.800   3.213   2.128  0.0711  1.3021  0.6962
 3245TIP3    H2 9700   6.812   3.209   2.279 -0.5561 -1.5980  0.7227
 3246TIP3   OH2 9701   3.010   3.083   4.429  0.2530 -0.0713 -0.0544
 3246TIP3    H1 9702   2.962   3.047   4.503 -0.5215 -1.2783 -1.0953
 3246TIP3    H2 9703   3.102   3.066   4.449  0.0378 -0.5944  0.5261
 3247TIP3   OH2 9704   5.395   5.199   3.995 -0.2809  0.3340 -0.1374
 3247TIP3    H1 9705   5.477   5.167   3.956 -0.0075 -0.9617  1.3951
 3247TIP3    H2 9706   5.327   5.171   3.934  0.2809 -0.0387 -0.6025
 3248TIP3   OH2 9707   0.253   4.872   0.395  0.0821  0.0049  0.3543
 3248TIP3    H1 9708   0.257   4.956   0.349 -1.2793  0.8267  1.6200
 3248TIP3    H2 9709   0.177   4.827   0.357 -1.2533  0.8278  1.9107
 3249TIP3   OH2 9710   4.119   4.025   4.774 -0.0019  0.1531 -0.5324
 3249TIP3    H1 9711   4.161   4.057   4.854 -0.2550 -1.6959  0.3862
 3249TIP3    H2 9712   4.184   3.968   4.733 -0.1211  0.5596 -1.3235
 3250TIP3   OH2 9713   4.836   3.372   0.638  0.4244  0.1336  0.1279
 3250TIP3    H1 9714   4.802   3.458   0.613 -0.5859 -0.4892 -0.6702
 3250TIP3    H2 9715   4.797   3.356   0.724 -1.2777 -0.5273 -0.7303
 3251TIP3   OH2 9716   2.107   6.420   0.887 -0.4310 -0.4938  1.4224
 3251TIP3    H1 9717   2.106   6.327   0.866 -0.1944 -0.4034  1.0002
 3251TIP3    H2 9718   2.014   6.443   0.897 -0.6768 -0.2513 -0.8986
 3252TIP3   OH2 9719   5.249   6.800   0.971 -0.2510 -0.3205 -0.3191
 3252TIP3    H1 9720   5.210   6.780   0.885 -2.1330 -0.2845  0.4825
 3252TIP3    H2 9721   5.312   6.728   0.985 -0.2209 -0.5584 -1.5286
 3253TIP3   OH2 9722   2.188   3.835   5.758 -0.1018 -0.1493  0.0971
 3253TIP3    H1 9723   2.190   3.825   5.663  0.5607  1.5299 -0.0987
 3253TIP3    H2 9724   2.158   3.750   5.790 -0.9462 -0.5617 -1.6321
 3254TIP3   OH2 9725   3.261   6.150   4.999 -0.0676  0.0008  0.4843
 3254TIP3    H1 9726   3.217   6.121   4.919  0.1733  0.0439  0.3329
 3254TIP3    H2 9727   3.292   6.239   4.978 -0.2009  0.1006  0.7036
 3255TIP3   OH2 9728   2.812   0.272   2.520  0.5351 -0.1362  0.2081
 3255TIP3    H1 9729   2.750   0.283   2.592 -1.3529 -0.1877 -1.3308
 3255TIP3    H2 9730   2.769   0.312   2.444  2.1723 -0.6408 -1.0622
 3256TIP3   OH2 9731   7.022   4.853   5.482 -0.6472  0.0082  0.0977
 3256TIP3    H1 9732   7.069   4.854   5.566  0.3469 -2.7133 -0.3223
 3256TIP3    H2 9733   7.037   4.940   5.445  1.2636  0.3528  1.5126
 3257TIP3   OH2 9734   6.440   5.712   5.447 -0.1325 -0.3644 -0.0639
 3257TIP3    H1 9735   6.364   5.653   5.451 -0.1512 -0.4536 -1.3091
 3257TIP3    H2 9736   6.513   5.655   5.423  0.2931 -0.2295  0.8536
 3258TIP3   OH2 9737   2.004   0.560   2.780 -0.4638 -0.4432  0.2849
 3258TIP3    H1 9738   2.097   0.580   2.773 -0.0145 -2.7527 -1.8462
 3258TIP3    H2 9739   1.963   0.612   2.711 -0.6932  0.1051  0.8233
 3259TIP3   OH2 9740   2.968   3.246   1.062  0.4677 -0.2685  0.1551
 3259TIP3    H1 9741   2.977   3.200   0.978  0.9369 -0.4544  0.3066
 3259TIP3    H2 9742   3.034   3.206   1.119  1.2410  0.9345  0.1361
 3260TIP3   OH2 9743   2.176   6.710   4.133 -0.1769  0.3323  0.2603
 3260TIP3    H1 9744   2.145   6.754   4.212 -0.2880 -0.9983  0.9743
 3260TIP3    H2 9745   2.265   6.682   4.155 -0.9402 -1.9387  0.7482
 3261TIP3   OH2 9746   5.386   6.539   3.843  0.1458  0.3639  0.0319
 3261TIP3    H1 9747   5.349   6.627   3.834  2.1525  1.2073 -0.5884
 3261TIP3    H2 9748   5.479   6.551   3.825  0.5400 -1.8321  0.3927
 3262TIP3   OH2 9749   2.201   0.417   0.772 -0.0654 -0.1452 -0.1112
 3262TIP3    H1 9750   2.277   0.377   0.729  1.7344  1.6828  1.1214
 3262TIP3    H2 9751   2.207   0.510   0.748 -1.8188  0.0822  0.2030
 3263TIP3   OH2 9752   2.510   2.157   0.186  0.2031 -0.1967 -0.0706
 3263TIP3    H1 9753   2.473   2.166   0.273 -1.0226  0.6971 -0.6543
 3263TIP3    H2 9754   2.603   2.141   0.201  0.0473  0.1310  1.3891
 3264TIP3   OH2 9755   5.914   4.257   2.964 -0.6950 -0.5030  0.9883
 3264TIP3    H1 9756   5.827   4.225   2.942 -0.0794 -1.7174  0.1408
 3264TIP3    H2 9757   5.908   4.352   2.956 -2.0429 -0.5369  1.3756
 3265TIP3   OH2 9758   0.960   3.362   0.676 -0.6182  0.5465  0.5231
 3265TIP3    H1 9759   0.976   3.271   0.654 -0.7491  0.6082  0.1620
 3265TIP3    H2 9760   1.006   3.412   0.608 -0.5277  0.7500  0.7307
 3266TIP3   OH2 9761   4.811   2.884   2.634  0.2159  0.3423 -0.5738
 3266TIP3    H1 9762   4.868   2.961   2.630 -0.6161  1.0282  0.4040
 3266TIP3    H2 9763   4.728   2.913   2.595  0.5547 -0.7103 -2.1939
 3267TIP3   OH2 9764   1.230   5.074   2.257 -0.1245 -0.1704 -0.4620
 3267TIP3    H1 9765   1.282   5.154   2.267 -0.5136  0.0207  0.0984
 3267TIP3    H2 9766   1.256   5.039   2.172  1.4396 -0.4621  0.0959
 3268TIP3   OH2 9767   6.140   4.410   2.784  0.1636  0.0467  0.0493
 3268TIP3    H1 9768   6.170   4.321   2.769 -1.9989 -0.9653  1.3128
 3268TIP3    H2 9769   6.213   4.465   2.756  1.1349 -2.0538 -1.8406
 3269TIP3   OH2 9770   2.284   0.340   5.494 -0.5756 -0.5784 -0.6696
 3269TIP3    H1 9771   2.371   0.349   5.454 -1.1658  1.5623 -1.5834
 3269TIP3    H2 9772   2.239   0.275   5.441  0.0671 -0.8443 -0.8950
 3270TIP3   OH2 9773   5.687   4.068   3.535  0.0015 -0.5812  0.3202
 3270TIP3    H1 9774   5.755   4.030   3.591  1.1056 -0.4151 -0.8669
 3270TIP3    H2 9775   5.702   4.029   3.449 -0.1727  0.9331 -0.4277
 3271TIP3   OH2 9776   4.096   1.311   5.007  0.4410  0.0520  0.0117
 3271TIP3    H1 9777   4.185   1.287   5.033  0.4476 -0.9146 -0.8235
 3271TIP3    H2 9778   4.081   1.261   4.927 -0.5020  0.9655 -0.3933
 3272TIP3   OH2 9779   1.893   5.063   2.750 -0.6796  0.2059 -0.4439
 3272TIP3    H1 9780   1.955   5.113   2.696 -0.5340  0.8982  0.3418
 3272TIP3    H2 9781   1.857   4.997   2.691 -0.7702  1.1534 -1.4852
 3273TIP3   OH2 9782   2.153   1.741   4.388  0.0272 -0.2739  0.0078
 3273TIP3    H1 9783   2.107   1.780   4.314 -0.4719 -0.1428  0.3811
 3273TIP3    H2 9784   2.135   1.647   4.381  1.0224 -0.4288 -0.7479
 3274TIP3   OH2 9785   5.587   5.199   4.277 -0.0152 -0.2213 -0.4282
 3274TIP3    H1 9786   5.526   5.138   4.235  0.9668 -0.4766 -1.5568
 3274TIP3    H2 9787   5.552   5.286   4.257 -1.3610 -0.3826  1.0880
 3275TIP3   OH2 9788   4.978   6.483   0.280 -0.6159  0.0791  0.1432
 3275TIP3    H1 9789   5.072   6.472   0.267 -0.3460 -0.4239  2.2762
 3275TIP3    H2 9790   4.948   6.401   0.318 -1.5961  0.8492  1.1030
 3276TIP3   OH2 9791   3.626   6.645   3.918  0.2048  0.4793 -0.3950
 3276TIP3    H1 9792   3.633   6.728   3.965  0.3373 -1.0961  2.6096
 3276TIP3    H2 9793   3.714   6.608   3.922 -0.3288 -0.7498  0.1929
 3277TIP3   OH2 9794   1.547   0.764   1.203 -0.5566  0.3164 -0.0108
 3277TIP3    H1 9795   1.579   0.737   1.289  3.3968  1.0044 -1.0525
 3277TIP3    H2 9796   1.510   0.851   1.218  0.2063  0.4894  0.9901
 3278TIP3   OH2 9797   3.758   4.989   3.116  0.2205  0.4302  0.2937
 3278TIP3    H1 9798   3.752   5.016   3.208  0.5685  0.6374  0.2580
 3278TIP3    H2 9799   3.840   5.028   3.085 -0.1730  0.8388 -0.2643
 3279TIP3   OH2 9800   2.786   2.948   3.248 -0.5883 -0.4144 -0.5536
 3279TIP3    H1 9801   2.872   2.975   3.216  0.5483 -0.9163  1.7904
 3279TIP3    H2 9802   2.728   3.022   3.231  1.3569  1.7806  1.6118
 3280TIP3   OH2 9803   0.430   5.122   5.033  0.2309  0.4065  0.1119
 3280TIP3    H1 9804   0.393   5.034   5.030  1.6138 -0.3093  1.7842
 3280TIP3    H2 9805   0.511   5.115   4.982 -0.1693  1.0016 -0.6154
 3281TIP3   OH2 9806   3.346   1.013   2.730 -0.2341  0.0712  0.0142
 3281TIP3    H1 9807   3.413   1.065   2.685 -0.3884  0.8111  0.6216
 3281TIP3    H2 9808   3.285   1.077   2.765 -0.9900 -0.5754 -0.0875
 3282TIP3   OH2 9809   0.913   4.679   0.282 -0.0448 -0.4833  0.2288
 3282TIP3    H1 9810   0.941   4.588   0.293  0.7531 -0.4728 -1.4308
 3282TIP3    H2 9811   0.924   4.718   0.369  3.6378 -0.9026  0.0861
 3283TIP3   OH2 9812   4.188   0.756   1.183 -0.3338  0.4887 -0.3625
 3283TIP3    H1 9813   4.281   0.761   1.162  0.0854 -2.6506  0.1986
 3283TIP3    H2 9814   4.153   0.692   1.121 -1.6162 -0.0071  0.8307
 3284TIP3   OH2 9815   0.999   6.236   2.485 -0.5616  0.2040 -0.6764
 3284TIP3    H1 9816   0.921   6.193   2.448  0.1959 -0.5235 -1.4588
 3284TIP3    H2 9817   1.073   6.191   2.444  0.2931  0.3259  0.6763
 3285TIP3   OH2 9818   1.021   4.467   5.227 -0.0316 -0.5740  0.0873
 3285TIP3    H1 9819   1.033   4.514   5.310 -0.3989  0.0678 -0.2133
 3285TIP3    H2 9820   1.025   4.375   5.251 -0.7790 -0.3997  0.9192
 3286TIP3   OH2 9821   2.545   4.590   1.275  0.2451  0.4117  0.0108
 3286TIP3    H1 9822   2.489   4.667   1.275  0.3374  0.4822 -0.4003
 3286TIP3    H2 9823   2.631   4.623   1.302 -0.3792 -0.0674  2.8571
 3287TIP3   OH2 9824   4.828   4.624   0.163  0.3708  0.6916  0.0536
 3287TIP3    H1 9825   4.766   4.681   0.210  1.3809  0.9702  1.1070
 3287TIP3    H2 9826   4.800   4.535   0.185  1.1371  0.8163  1.6784
 3288TIP3   OH2 9827   6.988   5.435   5.676 -0.3110  0.0958 -0.2855
 3288TIP3    H1 9828   7.065   5.440   5.733  0.8603 -0.5819 -1.7430
 3288TIP3    H2 9829   6.922   5.491   5.719  1.0499  0.8585  0.8837
 3289TIP3   OH2 9830   0.084   4.903   0.665  0.6899 -0.1529 -0.2910
 3289TIP3    H1 9831   0.066   4.938   0.752  0.4842 -0.2201 -0.3071
 3289TIP3    H2 9832  -0.001   4.875   0.631  0.7378  0.0683 -0.5981
 3290TIP3   OH2 9833   0.740   4.275   3.821  0.1105  0.4868  0.3023
 3290TIP3    H1 9834   0.771   4.272   3.731 -1.9665  0.6396 -0.4697
 3290TIP3    H2 9835   0.646   4.291   3.814  0.0169  1.3315  2.5231
 3291TIP3   OH2 9836   2.191   1.256   2.404 -0.1741  0.0716 -0.0911
 3291TIP3    H1 9837   2.108   1.209   2.392 -0.1502  0.1245 -0.4808
 3291TIP3    H2 9838   2.207   1.253   2.498 -0.8415  0.4365  0.0377
 3292TIP3   OH2 9839   5.435   6.469   1.903 -0.2208  0.1276  0.2017
 3292TIP3    H1 9840   5.423   6.376   1.883 -0.1006 -0.0913  1.1238
 3292TIP3    H2 9841   5.348   6.500   1.928 -0.0842  0.0338  0.8061
 3293TIP3   OH2 9842   3.898   1.210   2.744  0.5467  0.0358 -0.2153
 3293TIP3    H1 9843   3.826   1.266   2.715 -0.2849 -0.8284  0.1332
 3293TIP3    H2 9844   3.965   1.272   2.775 -0.4359  0.8377  0.3738
 3294TIP3   OH2 9845   5.497   4.770   5.475 -0.0833  0.0353 -0.5972
 3294TIP3    H1 9846   5.507   4.832   5.547  0.9207  0.2050 -0.8709
 3294TIP3    H2 9847   5.443   4.817   5.411  1.0767  0.8474 -1.0189
 3295TIP3   OH2 9848   0.624   1.907   1.999 -0.3436  1.1284 -0.5300
 3295TIP3    H1 9849   0.543   1.864   1.972 -0.5130  2.0712 -1.5594
 3295TIP3    H2 9850   0.693   1.862   1.949  0.1843 -1.4203  2.1673
 3296TIP3   OH2 9851   5.702   0.342   4.879 -0.0440 -0.4367  0.3175
 3296TIP3    H1 9852   5.661   0.285   4.815 -1.4999  0.8792  0.0341
 3296TIP3    H2 9853   5.752   0.405   4.827 -2.8720  1.9377  0.2032
 3297TIP3   OH2 9854   6.027   1.783   0.111 -0.0425  0.2472 -0.6333
 3297TIP3    H1 9855   6.035   1.780   0.206 -0.2601  0.5935 -0.6014
 3297TIP3    H2 9856   6.047   1.694   0.082 -2.5863 -0.5788 -0.0639
 3298TIP3   OH2 9857   0.149   0.698   3.469 -0.6425 -0.1432  0.3393
 3298TIP3    H1 9858   0.164   0.618   3.520 -1.3577  0.3153  1.3107
 3298TIP3    H2 9859   0.191   0.681   3.385  0.3192 -1.0510  0.9686
 3299TIP3   OH2 9860   0.812   4.156   4.482  0.1956  0.0445  0.2244
 3299TIP3    H1 9861   0.735   4.149   4.539  0.3355  0.7284  0.5071
 3299TIP3    H2 9862   0.796   4.092   4.412 -0.2364 -0.4111  0.7271
 3300TIP3   OH2 9863   3.885   3.985   5.427  0.4772 -0.0568 -0.0365
 3300TIP3    H1 9864   3.885   3.977   5.331 -0.2735  0.1898 -0.0644
 3300TIP3    H2 9865   3.864   4.077   5.443 -0.2943 -0.3016  0.3801
 3301TIP3   OH2 9866   0.165   3.991   0.903 -0.0145  0.5226  0.0317
 3301TIP3    H1 9867   0.078   3.959   0.878  0.8932 -1.6736 -0.5614
 3301TIP3    H2 9868   0.221   3.967   0.829  1.3911  0.4445  1.0776
 3302TIP3   OH2 9869   6.802   0.093   5.891 -0.5464 -0.0559  0.8635
 3302TIP3    H1 9870   6.851   0.054   5.818 -1.5511  1.8745 -0.9532
 3302TIP3    H2 9871   6.808   0.028   5.961  1.3411 -1.5590 -0.5682
 3303TIP3   OH2 9872   6.689   0.363   2.443  0.0053 -0.3785 -0.2125
 3303TIP3    H1 9873   6.608   0.390   2.485 -0.3250 -0.8376 -0.5476
 3303TIP3    H2 9874   6.677   0.270   2.425  1.1143 -0.7692  0.9149
 3304TIP3   OH2 9875   0.486   4.045   2.048 -0.2180 -0.4644  0.1157
 3304TIP3    H1 9876   0.418   4.041   1.981  0.2148  0.4092 -0.3895
 3304TIP3    H2 9877   0.535   3.964   2.037 -0.6969 -0.7346 -0.0398
 3305TIP3   OH2 9878   3.412   0.020   4.741  0.0789 -0.0988  0.7883
 3305TIP3    H1 9879   3.491   0.032   4.794  0.8085 -0.8624 -0.0963
 3305TIP3    H2 9880   3.363  -0.049   4.787 -0.7581  1.2939  2.0723
 3306TIP3   OH2 9881   1.528   1.637   1.734 -0.6089 -0.1934 -0.1622
 3306TIP3    H1 9882   1.612   1.592   1.728 -1.2868 -1.3000 -2.7197
 3306TIP3    H2 9883   1.486   1.599   1.810  1.7173  1.5072  2.1740
 3307TIP3   OH2 9884   0.145   6.156   5.394  0.1328  0.3471 -0.5838
 3307TIP3    H1 9885   0.084   6.218   5.435  0.1858  0.5196 -0.7615
 3307TIP3    H2 9886   0.090   6.086   5.361  0.1909 -0.3692  0.7815
 3308TIP3   OH2 9887   6.785   3.147   5.771  0.3057 -0.1064  0.2789
 3308TIP3    H1 9888   6.859   3.149   5.831  0.2813  0.9235  0.2956
 3308TIP3    H2 9889   6.817   3.191   5.692  0.4257 -1.6969 -0.5896
 3309TIP3   OH2 9890   6.916   4.918   3.666 -0.4668 -0.0687  0.6190
 3309TIP3    H1 9891   6.841   4.868   3.699  0.4703 -0.8209  1.6877
 3309TIP3    H2 9892   6.899   5.008   3.694 -0.7853 -0.3052  1.1972
 3310TIP3   OH2 9893   1.519   5.310   1.724 -0.2525 -0.0280  0.4989
 3310TIP3    H1 9894   1.442   5.360   1.749 -0.3500  1.3325 -2.1587
 3310TIP3    H2 9895   1.577   5.374   1.683  0.4892 -1.6984 -1.2599
 3311TIP3   OH2 9896   4.613   6.080   5.204 -0.0671  0.0201  0.6801
 3311TIP3    H1 9897   4.655   6.028   5.271  0.0797 -0.2199  0.4016
 3311TIP3    H2 9898   4.663   6.063   5.124  0.0991  0.7282  0.6243
 3312TIP3   OH2 9899   2.875   0.783   0.880 -0.5291 -0.1052 -0.2541
 3312TIP3    H1 9900   2.885   0.699   0.835  0.4887  0.0018 -0.2456
 3312TIP3    H2 9901   2.789   0.778   0.922 -1.6662 -0.0996 -2.4320
 3313TIP3   OH2 9902   2.042   3.502   1.303  0.0308 -0.7901 -0.1993
 3313TIP3    H1 9903   2.126   3.457   1.300  1.3044  1.4602 -1.0446
 3313TIP3    H2 9904   2.037   3.538   1.392  0.3985 -0.1779 -0.4228
 3314TIP3   OH2 9905   2.346   5.657   2.110 -0.3611 -1.0003  0.0305
 3314TIP3    H1 9906   2.277   5.716   2.140 -0.5853 -0.9434 -0.5784
 3314TIP3    H2 9907   2.340   5.581   2.168  1.1359  0.3158  2.0371
 3315TIP3   OH2 9908   3.024   0.894   3.730 -0.0106  0.0693 -0.5220
 3315TIP3    H1 9909   2.995   0.810   3.765  0.6406  0.2909  0.5951
 3315TIP3    H2 9910   2.951   0.954   3.748  0.2879  0.1633  0.4004
 3316TIP3   OH2 9911   3.446   1.796   5.643 -0.1191 -0.3033  0.0322
 3316TIP3    H1 9912   3.498   1.723   5.676 -2.2946 -1.3106  1.4527
 3316TIP3    H2 9913   3.477   1.872   5.694  0.6326 -0.6571  0.1194
 3317TIP3   OH2 9914   1.796   6.294   5.619 -0.4524 -0.2664 -0.2271
 3317TIP3    H1 9915   1.824   6.206   5.594  1.1806 -0.0021  0.5428
 3317TIP3    H2 9916   1.745   6.281   5.699  2.6711 -0.3312  1.9412
 3318TIP3   OH2 9917   6.803   5.318   5.159  0.0226  0.1233 -0.0310
 3318TIP3    H1 9918   6.827   5.388   5.219  0.7504 -1.2844  1.3690
 3318TIP3    H2 9919   6.768   5.249   5.215  1.3500 -1.5081 -1.1254
 3319TIP3   OH2 9920   3.939   6.455   4.145 -0.6139 -0.2944 -0.0838
 3319TIP3    H1 9921   3.947   6.547   4.168 -0.8582 -0.5581  1.1521
 3319TIP3    H2 9922   3.859   6.426   4.189 -0.4557 -1.1337 -0.3218
 3320TIP3   OH2 9923   4.697   0.249   4.955 -0.1790  0.0937  0.3322
 3320TIP3    H1 9924   4.704   0.169   5.008  1.2485  1.6575  2.6891
 3320TIP3    H2 9925   4.717   0.320   5.016 -0.3745  2.2026 -1.9082
 3321TIP3   OH2 9926   5.772   4.142   0.824  0.3123 -0.0186 -0.4608
 3321TIP3    H1 9927   5.790   4.188   0.742  0.1975 -0.5220 -0.7767
 3321TIP3    H2 9928   5.858   4.116   0.857  0.3207 -0.3775 -0.7578
 3322TIP3   OH2 9929   6.306   4.776   1.315 -0.5176  0.2619  0.5962
 3322TIP3    H1 9930   6.244   4.807   1.381  0.1854 -0.0274  1.3949
 3322TIP3    H2 9931   6.348   4.856   1.283  0.0476  0.2944  1.4076
 3323TIP3   OH2 9932   1.619   4.497   1.284  1.0104 -0.2169  0.3409
 3323TIP3    H1 9933   1.683   4.529   1.220  1.2742  0.5083  0.9614
 3323TIP3    H2 9934   1.536   4.498   1.237  1.1322  0.7057  0.1239
 3324TIP3   OH2 9935   4.978   5.335   4.298  0.0638 -0.2177 -0.1357
 3324TIP3    H1 9936   4.937   5.382   4.225 -1.3824  2.0423  1.9596
 3324TIP3    H2 9937   4.916   5.266   4.321 -0.9761  0.9590  0.7670
 3325TIP3   OH2 9938   2.569   0.086   0.733 -0.4147  0.3788 -0.1928
 3325TIP3    H1 9939   2.624   0.132   0.669 -0.9637 -0.5138 -1.3574
 3325TIP3    H2 9940   2.584  -0.007   0.715 -1.2923  0.1184  0.3475
 3326TIP3   OH2 9941   3.529   4.184   1.402  0.5362 -0.8537 -0.5083
 3326TIP3    H1 9942   3.525   4.277   1.425 -1.7633 -1.2866  1.1572
 3326TIP3    H2 9943   3.452   4.169   1.348  0.6549 -1.8845 -0.4138
 3327TIP3   OH2 9944   1.250   4.272   4.975 -0.7074  0.0596  0.2206
 3327TIP3    H1 9945   1.282   4.275   5.065 -1.5444 -1.3760  0.6084
 3327TIP3    H2 9946   1.211   4.358   4.960 -2.4743 -0.3504  1.9970
 3328TIP3   OH2 9947   6.168   2.992   0.857 -0.0876 -0.1191  0.3088
 3328TIP3    H1 9948   6.103   3.058   0.833 -1.0034 -0.7853  0.8887
 3328TIP3    H2 9949   6.139   2.959   0.942  1.9981  0.8193  1.4768
 3329TIP3   OH2 9950   1.973   3.346   3.081 -0.0658  0.0120  0.0039
 3329TIP3    H1 9951   2.015   3.275   3.033  0.4738  0.9225 -0.8996
 3329TIP3    H2 9952   1.965   3.313   3.171  0.0296 -1.2382 -0.4313
 3330TIP3   OH2 9953   0.215   3.664   4.045 -0.2374 -0.1814 -0.7059
 3330TIP3    H1 9954   0.306   3.652   4.072 -0.5770 -1.6594 -0.1198
 3330TIP3    H2 9955   0.207   3.611   3.965 -0.3578  0.7091 -1.3041
 3331TIP3   OH2 9956   0.027   6.438   0.643 -0.2161  0.3133 -0.0312
 3331TIP3    H1 9957  -0.068   6.434   0.654 -0.0895  0.0526  1.0893
 3331TIP3    H2 9958   0.045   6.384   0.566 -0.6465 -2.7994  1.8712
 3332TIP3   OH2 9959   3.792   4.690   3.711  0.4728 -0.1026  0.2682
 3332TIP3    H1 9960   3.781   4.766   3.654 -0.6617 -1.5373 -1.5656
 3332TIP3    H2 9961   3.734   4.708   3.786  1.8193  1.7158  0.9433
 3333TIP3   OH2 9962   5.221   1.509   5.850  0.0193  0.7647 -0.5023
 3333TIP3    H1 9963   5.172   1.427   5.841 -0.3776  0.9285  0.1361
 3333TIP3    H2 9964   5.312   1.483   5.839 -0.1423  0.3260 -0.8637
 3334TIP3   OH2 9965   1.628   4.776   4.310 -0.6806  0.1147 -0.5682
 3334TIP3    H1 9966   1.629   4.696   4.258 -0.9568 -0.1744 -0.1297
 3334TIP3    H2 9967   1.675   4.840   4.256  1.1220 -0.8010 -0.1500
 3335TIP3   OH2 9968   6.426   0.995   5.314  0.0501 -0.0172  0.1120
 3335TIP3    H1 9969   6.348   0.955   5.276  0.0053 -1.6927  1.8440
 3335TIP3    H2 9970   6.439   0.948   5.396  1.4139  1.9591  1.0895
 3336TIP3   OH2 9971   2.245   4.680   1.994  0.3730 -0.2326 -0.8172
 3336TIP3    H1 9972   2.326   4.686   2.045 -0.1587  0.2717 -0.0122
 3336TIP3    H2 9973   2.267   4.621   1.921  0.8931 -1.7684  0.5072
 3337TIP3   OH2 9974   2.496   2.778   4.011 -0.3460  0.0074  0.7020
 3337TIP3    H1 9975   2.499   2.834   3.934 -1.3587  1.1559  1.4694
 3337TIP3    H2 9976   2.417   2.726   4.000 -1.2629  1.1602  1.5960
 3338TIP3   OH2 9977   7.003   5.556   2.823  0.4681  0.5437 -0.4994
 3338TIP3    H1 9978   6.979   5.589   2.736  0.7514  2.1317 -0.0171
 3338TIP3    H2 9979   7.099   5.558   2.824  0.5327 -1.1361 -0.7313
 3339TIP3   OH2 9980   5.014   1.651   0.662 -0.2379  0.0336  0.2909
 3339TIP3    H1 9981   4.942   1.592   0.685 -0.2770 -0.0981 -0.1689
 3339TIP3    H2 9982   5.084   1.628   0.723  0.6433 -2.2106 -1.4336
 3340TIP3   OH2 9983   4.386   1.509   5.798  0.2946 -0.8206 -0.1782
 3340TIP3    H1 9984   4.465   1.560   5.781 -0.1620  0.0367  0.2251
 3340TIP3    H2 9985   4.344   1.553   5.873 -0.7932 -0.9922 -0.6681
 3341TIP3   OH2 9986   0.245   4.486   0.189 -0.5557 -0.9845 -0.7408
 3341TIP3    H1 9987   0.190   4.428   0.137 -0.2565 -0.8949 -1.1639
 3341TIP3    H2 9988   0.305   4.428   0.235 -0.8589 -1.0678 -0.4487
 3342TIP3   OH2 9989   4.880   6.728   2.688  0.2032 -0.0569 -0.0174
 3342TIP3    H1 9990   4.802   6.775   2.716 -0.2571 -1.1739  0.6515
 3342TIP3    H2 9991   4.894   6.756   2.598  1.2178  2.9979  0.9544
 3343TIP3   OH2 9992   3.555   4.348   2.892  0.3556  0.2996 -0.3542
 3343TIP3    H1 9993   3.630   4.319   2.945 -1.1671  0.4659  2.0617
 3343TIP3    H2 9994   3.592   4.413   2.832  1.9286  1.6115  1.8476
 3344TIP3   OH2 9995   6.113   4.058   3.040 -0.3420  0.2309 -0.1751
 3344TIP3    H1 9996   6.055   4.124   3.002 -1.2031 -0.9467 -0.9808
 3344TIP3    H2 9997   6.186   4.108   3.077 -1.2190  1.6545 -0.3077
 3345TIP3   OH2 9998   1.905   5.347   0.713  0.0169 -0.3307 -0.6906
 3345TIP3    H1 9999   1.861   5.397   0.645 -1.4471 -0.8247 -0.1480
 3345TIP3    H210000   1.953   5.279   0.665 -1.6564 -1.1915 -1.2452
 3346TIP3   OH210001   2.249   0.002   4.913 -0.3246  0.1049 -0.1084
 3346TIP3    H110002   2.179   0.014   4.977 -0.3694  2.1084 -0.4651
 3346TIP3    H210003   2.209   0.027   4.830 -0.0744 -1.8235 -0.8658
 3347TIP3   OH210004   5.268   5.100   1.112 -0.3118  0.7019 -0.1097
 3347TIP3    H110005   5.275   5.017   1.160 -0.0084  0.9069  0.2021
 3347TIP3    H210006   5.174   5.110   1.096 -0.7062  1.7073  2.3395
 3348TIP3   OH210007   5.641   0.680   2.279  0.2042 -0.0594 -0.2871
 3348TIP3    H110008   5.623   0.608   2.218  2.1690 -0.8578 -0.0142
 3348TIP3    H210009   5.654   0.756   2.223  1.2672 -0.6280 -0.8453
 3349TIP3   OH210010   0.054   3.362   4.340  0.5579  0.0020  0.9309
 3349TIP3    H110011   0.012   3.281   4.367  0.4658  0.6455  2.9370
 3349TIP3    H210012   0.026   3.376   4.250  0.9605 -2.4009  0.3801
 3350TIP3   OH210013   5.644   4.841   2.179 -0.0237  0.4739  0.3772
 3350TIP3    H110014   5.685   4.767   2.134  2.1235  0.1303  2.6499
 3350TIP3    H210015   5.559   4.807   2.208  0.4546 -0.7420  0.4170
 3351TIP3   OH210016   1.784   1.503   2.602  0.3254 -0.3633 -0.0485
 3351TIP3    H110017   1.814   1.421   2.639  2.5667  0.7220  0.6798
 3351TIP3    H210018   1.739   1.547   2.675  0.3387 -0.3443 -0.0519
 3352TIP3   OH210019   6.529   1.845   0.936  0.3583 -0.5165 -0.2719
 3352TIP3    H110020   6.522   1.870   1.028 -2.1808 -1.3574 -0.1578
 3352TIP3    H210021   6.528   1.928   0.888  0.6652 -0.1082  0.4210
 3353TIP3   OH210022   1.387   1.004   1.269  0.3172 -0.1109  0.3322
 3353TIP3    H110023   1.319   1.031   1.208  0.4582 -0.4175  0.0355
 3353TIP3    H210024   1.340   0.963   1.342  0.1350  0.4693  0.5432
 3354TIP3   OH210025   3.266   2.423   2.612  0.0476  0.3957 -0.0283
 3354TIP3    H110026   3.236   2.391   2.526  1.1360  1.4386 -0.8356
 3354TIP3    H210027   3.332   2.359   2.639  0.7327  0.8156 -0.6630
 3355TIP3   OH210028   3.780   0.037   2.665  0.1871 -0.1787 -0.9628
 3355TIP3    H110029   3.793   0.128   2.692  0.9114 -0.4364 -0.4329
 3355TIP3    H210030   3.777   0.040   2.569 -0.1404  0.4429 -0.9366
 3356TIP3   OH210031   6.411   5.759   3.983 -0.5414 -0.0083  0.2105
 3356TIP3    H110032   6.363   5.703   4.045 -1.3862  0.9166  0.4211
 3356TIP3    H210033   6.454   5.824   4.038  1.7339 -1.3071  0.1030
 3357TIP3   OH210034   1.698   3.605   3.802  0.3256 -0.3312 -0.1126
 3357TIP3    H110035   1.603   3.602   3.800  0.2967 -1.8170  1.3656
 3357TIP3    H210036   1.726   3.535   3.744  0.6189  1.3114 -2.0880
 3358TIP3   OH210037   2.978   5.654   1.934  0.2094 -0.1158  0.6206
 3358TIP3    H110038   2.980   5.567   1.893  0.8101  0.2649 -0.1917
 3358TIP3    H210039   3.019   5.712   1.869 -2.4564  1.2650  0.0317
 3359TIP3   OH210040   2.716   5.407   1.091 -0.4789  0.1798 -0.1367
 3359TIP3    H110041   2.649   5.370   1.034 -1.1973 -0.0891  0.8472
 3359TIP3    H210042   2.776   5.452   1.032 -1.2294 -0.0357 -1.0883
 3360TIP3   OH210043   0.880   4.481   3.466 -0.2140 -0.2311 -0.0011
 3360TIP3    H110044   0.808   4.516   3.413 -0.7357  1.2368  1.5850
 3360TIP3    H210045   0.932   4.559   3.490  2.2695 -1.2759 -1.5251
 3361TIP3   OH210046   0.296   2.756   5.629 -0.4976  0.0333  0.2850
 3361TIP3    H110047   0.315   2.731   5.539 -0.8242 -0.2801  0.3025
 3361TIP3    H210048   0.200   2.753   5.635 -0.5186  0.8543  0.4124
 3362TIP3   OH210049   4.680   3.411   1.320 -0.5865  0.8677  0.2954
 3362TIP3    H110050   4.768   3.409   1.282 -0.9103  0.3621 -0.4446
 3362TIP3    H210051   4.686   3.477   1.390  0.5814  0.2884  0.7756
 3363TIP3   OH210052   5.645   0.410   0.484 -0.2741 -0.1659  0.7308
 3363TIP3    H110053   5.593   0.351   0.429  1.0291 -1.6013  0.9860
 3363TIP3    H210054   5.717   0.438   0.427  0.5305 -0.8716  1.3757
 3364TIP3   OH210055   5.357   2.540   3.586 -0.0948  0.6220  0.3665
 3364TIP3    H110056   5.332   2.475   3.651 -0.4877  0.3156 -0.0815
 3364TIP3    H210057   5.274   2.568   3.547  0.1987 -0.2823 -1.0185
 3365TIP3   OH210058   4.895   3.067   3.964 -0.1743 -0.2231  0.8754
 3365TIP3    H110059   4.903   2.971   3.969  1.9492 -0.1950 -0.6751
 3365TIP3    H210060   4.852   3.084   3.881  3.2270  0.1602 -0.9798
 3366TIP3   OH210061   6.229   0.558   0.829  0.2442  1.1616 -0.2189
 3366TIP3    H110062   6.197   0.504   0.901  1.7289 -0.1050 -0.4655
 3366TIP3    H210063   6.309   0.515   0.799  0.1790  2.1668 -2.0285
 3367TIP3   OH210064   4.796   6.273   2.171  0.8106  0.1305 -0.0400
 3367TIP3    H110065   4.784   6.294   2.078 -0.2668 -0.3416 -0.0251
 3367TIP3    H210066   4.867   6.208   2.171  2.4431  1.8241 -0.2940
 3368TIP3   OH210067   0.779   3.370   5.170  0.0006 -0.0784 -0.0128
 3368TIP3    H110068   0.781   3.380   5.075 -1.5239  1.1212  0.0312
 3368TIP3    H210069   0.869   3.386   5.197  0.4151 -0.2062 -1.2424
 3369TIP3   OH210070   5.768   5.473   4.439  0.3371 -0.4214 -0.3097
 3369TIP3    H110071   5.742   5.536   4.506  2.5546 -0.3954  0.6030
 3369TIP3    H210072   5.761   5.521   4.356 -1.0621 -0.0079  0.0237
 3370TIP3   OH210073   6.975   6.336   5.386 -0.6204  0.6418  0.3817
 3370TIP3    H110074   7.004   6.282   5.460 -0.0469 -1.4005 -1.2358
 3370TIP3    H210075   7.053   6.346   5.331 -1.1598  1.6845 -0.2341
 3371TIP3   OH210076   0.501   4.865   4.224  0.4473  0.2158  0.4131
 3371TIP3    H110077   0.524   4.955   4.247  0.2353  0.4131 -0.1340
 3371TIP3    H210078   0.548   4.848   4.143 -0.6314  0.3273 -0.2521
 3372TIP3   OH210079   2.658   0.739   1.035  0.6669  0.1396  0.2933
 3372TIP3    H110080   2.584   0.689   1.069 -0.0271  0.9632  0.0437
 3372TIP3    H210081   2.645   0.828   1.070  0.1550  0.9129 -1.7177
 3373TIP3   OH210082   0.885   6.618   0.280  0.8524 -0.3804 -0.0660
 3373TIP3    H110083   0.891   6.669   0.200  0.5241 -1.2989 -0.6960
 3373TIP3    H210084   0.903   6.680   0.350  0.3379  0.6136 -0.7980
 3374TIP3   OH210085   5.377   2.033   0.493  0.0899 -0.3832 -0.6542
 3374TIP3    H110086   5.312   2.099   0.515 -0.4167 -2.0408  3.8447
 3374TIP3    H210087   5.330   1.950   0.501  1.6908 -1.4685 -1.9082
 3375TIP3   OH210088   6.982   0.479   1.001  0.7508 -0.1749  0.2742
 3375TIP3    H110089   6.937   0.562   1.017  1.9838  0.2448  1.7986
 3375TIP3    H210090   7.060   0.503   0.952  1.8258 -0.1986  1.8940
 3376TIP3   OH210091   0.608   6.602   4.791  0.5000  0.2462 -0.7651
 3376TIP3    H110092   0.576   6.692   4.793  0.2545  0.1682 -1.1628
 3376TIP3    H210093   0.697   6.607   4.827 -0.2794  0.3248  1.3027
 3377TIP3   OH210094   4.322   0.861   4.287 -0.2450 -0.0200 -0.5119
 3377TIP3    H110095   4.308   0.781   4.236  0.1115 -0.4971  0.1255
 3377TIP3    H210096   4.413   0.854   4.317 -0.2126  0.6268 -0.4510
 3378TIP3   OH210097   2.316   3.374   5.476 -0.3884  0.0794 -0.7145
 3378TIP3    H110098   2.279   3.322   5.547 -1.0110  0.7124 -0.5658
 3378TIP3    H210099   2.321   3.313   5.402  1.5224 -0.9604  0.2033
 3379TIP3   OH210100   2.450   1.452   2.312 -0.2337  0.1510  0.0288
 3379TIP3    H110101   2.359   1.477   2.326 -0.9450 -1.6303 -1.0664
 3379TIP3    H210102   2.465   1.383   2.377  0.9916  1.7309  1.5184
 3380TIP3   OH210103   2.076   0.377   4.494 -0.2943  0.7297  0.5229
 3380TIP3    H110104   2.025   0.331   4.428  0.0533 -0.0872  0.8165
 3380TIP3    H210105   2.088   0.314   4.564  0.2420  1.2429  0.9074
 3381TIP3   OH210106   4.953  -0.026   2.404  0.2592  0.3398 -0.3819
 3381TIP3    H110107   4.925   0.061   2.432 -0.9034 -0.2019  0.1685
 3381TIP3    H210108   4.934  -0.027   2.310  0.3358  0.6971 -0.4056
 3382TIP3   OH210109   2.546   1.630   3.800 -0.3811  0.3171 -0.6031
 3382TIP3    H110110   2.638   1.604   3.806 -0.7209 -0.5684  2.0705
 3382TIP3    H210111   2.543   1.714   3.846 -1.1286 -0.4995  0.9323
 3383TIP3   OH210112   1.622   6.685   5.736  0.1987 -0.1173  0.0001
 3383TIP3    H110113   1.701   6.669   5.786  1.0740  1.8182 -0.6597
 3383TIP3    H210114   1.562   6.728   5.797  1.1083  1.8546 -0.4055
 3384TIP3   OH210115   6.805   4.089   2.980 -0.1645  0.4157 -0.2813
 3384TIP3    H110116   6.850   4.052   3.057  0.1481  1.7898  0.2453
 3384TIP3    H210117   6.724   4.040   2.973  0.8665 -1.3247 -0.5180
 3385TIP3   OH210118   2.462   0.688   2.929 -0.8090 -0.0154 -0.0886
 3385TIP3    H110119   2.416   0.768   2.904 -0.1092  0.5934  0.4951
 3385TIP3    H210120   2.555   0.713   2.931 -0.0464 -1.8440 -3.8273
 3386TIP3   OH210121   0.716   3.690   0.899  0.7102 -0.6590  0.1543
 3386TIP3    H110122   0.629   3.729   0.911  0.6989 -0.7124  0.2500
 3386TIP3    H210123   0.746   3.674   0.988  1.0684 -0.0854  0.1403
 3387TIP3   OH210124   6.090   0.264   2.582  0.0771  0.1761 -0.4153
 3387TIP3    H110125   6.021   0.284   2.645  0.3876  0.9515 -0.3047
 3387TIP3    H210126   6.045   0.256   2.498  0.0968  3.4827 -0.8805
 3388TIP3   OH210127   1.194   5.149   3.289  0.1373 -0.3167 -0.1075
 3388TIP3    H110128   1.207   5.178   3.199 -0.3990 -0.0874 -0.1185
 3388TIP3    H210129   1.243   5.213   3.342  0.4245 -0.4325 -0.2339
 3389TIP3   OH210130   3.912   1.998   2.905  0.0998 -0.4701  0.1825
 3389TIP3    H110131   4.006   2.009   2.900 -0.0672  0.5157 -2.0635
 3389TIP3    H210132   3.899   1.904   2.917  1.3445 -0.2917  3.9806
 3390TIP3   OH210133   3.858   2.989   3.166  0.1931  0.9542  0.1787
 3390TIP3    H110134   3.804   3.024   3.236 -0.7902 -0.5807  0.2324
 3390TIP3    H210135   3.796   2.950   3.104  1.1912 -1.4420  0.5677
 3391TIP3   OH210136   0.314   4.626   1.783  0.4485 -0.2744 -0.2128
 3391TIP3    H110137   0.360   4.708   1.769  1.7102 -0.9533 -0.2236
 3391TIP3    H210138   0.278   4.633   1.871  0.0626  0.5017 -0.4265
 3392TIP3   OH210139   3.941   5.140   4.234 -0.4835 -0.1477 -0.2868
 3392TIP3    H110140   3.940   5.149   4.139  0.8228 -2.1878 -0.5565
 3392TIP3    H210141   3.986   5.057   4.250  1.8005  1.4071  2.2291
 3393TIP3   OH210142   6.785   3.012   5.342 -0.3690  0.1858  0.3898
 3393TIP3    H110143   6.805   3.081   5.405 -1.5007 -0.4064  1.4456
 3393TIP3    H210144   6.870   2.975   5.317  0.1965  1.5408  0.2750
 3394TIP3   OH210145   6.550   0.405   2.154 -0.0196 -0.0678 -0.3290
 3394TIP3    H110146   6.466   0.452   2.158 -1.2375 -2.1418  0.1173
 3394TIP3    H210147   6.607   0.454   2.213 -0.8131  1.5599 -0.8516
 3395TIP3   OH210148   5.447   6.027   2.113 -0.5085  0.2255  0.4913
 3395TIP3    H110149   5.510   6.069   2.055  0.7335  0.1580  1.7398
 3395TIP3    H210150   5.500   5.992   2.185 -1.9852  0.2915  1.6627
 3396TIP3   OH210151   6.543   4.367   5.405 -0.1191  0.2743 -0.1180
 3396TIP3    H110152   6.610   4.433   5.421  0.1917 -0.2635  0.8972
 3396TIP3    H210153   6.464   4.417   5.386  0.2875  0.9266 -0.1186
 3397TIP3   OH210154   4.049   2.876   4.386  0.5268  0.0473 -0.5022
 3397TIP3    H110155   4.111   2.853   4.455  0.4092 -0.4112 -0.5491
 3397TIP3    H210156   4.105   2.911   4.316  0.6710  0.2461 -0.2916
 3398TIP3   OH210157   2.219   5.583   4.420  0.0915  0.1494  0.3960
 3398TIP3    H110158   2.218   5.553   4.329  0.5983 -0.2827  0.5292
 3398TIP3    H210159   2.157   5.525   4.464  0.1930  0.0557  0.4169
 3399TIP3   OH210160   3.053   2.937   4.921  0.5326  0.3148  0.1611
 3399TIP3    H110161   3.055   2.853   4.875 -0.0345  0.4214 -0.0668
 3399TIP3    H210162   2.983   2.986   4.879 -1.9466 -0.5969  2.8694
 3400TIP3   OH210163   5.465   0.305   0.281 -0.0984 -0.3828 -0.7008
 3400TIP3    H110164   5.518   0.300   0.201 -0.0511 -0.9398 -0.6342
 3400TIP3    H210165   5.429   0.394   0.280  0.0418 -0.3293 -1.2552
 3401TIP3   OH210166   4.049   0.912   1.544  0.6123 -0.3481  0.1217
 3401TIP3    H110167   4.018   0.981   1.485 -1.1884 -1.4264 -0.2707
 3401TIP3    H210168   4.067   0.957   1.626  1.4544  0.9024 -0.7236
 3402TIP3   OH210169   6.318   2.530   1.674  0.1945 -0.1535  0.2003
 3402TIP3    H110170   6.298   2.623   1.660  1.3254 -0.2529 -2.8179
 3402TIP3    H210171   6.401   2.530   1.720  0.2310  0.3423  0.1431
 3403TIP3   OH210172   1.821   5.116   0.069  0.0147  0.7251  0.4999
 3403TIP3    H110173   1.883   5.134  -0.002 -0.9591  0.3149 -0.4888
 3403TIP3    H210174   1.822   5.195   0.123  0.9595  0.9418  0.1729
 3404TIP3   OH210175   4.168   6.655   1.082  0.5041  0.1008  0.1811
 3404TIP3    H110176   4.252   6.628   1.120  0.8418  0.3993 -0.3348
 3404TIP3    H210177   4.119   6.574   1.073  0.7049 -0.0685  0.5649
 3405TIP3   OH210178   5.105   2.503   0.364  0.6725  0.0095  0.2776
 3405TIP3    H110179   5.101   2.595   0.390  0.5660 -0.0626  0.5193
 3405TIP3    H210180   5.141   2.505   0.275 -0.9241  0.4148 -0.4069
 3406TIP3   OH210181   4.205   2.944   3.508  0.1960  0.7176 -0.1620
 3406TIP3    H110182   4.110   2.948   3.499  0.0458  0.5850  1.0978
 3406TIP3    H210183   4.239   2.958   3.420 -1.0159 -0.6636 -0.8917
 3407TIP3   OH210184   5.675   6.067  -0.008 -0.2976 -0.1047 -0.5505
 3407TIP3    H110185   5.726   6.009   0.048  1.3048  0.0773 -1.7789
 3407TIP3    H210186   5.650   6.140   0.049  0.0485 -0.6260  0.2804
 3408TIP3   OH210187   7.157   4.597   3.888 -0.5771 -0.0771 -0.3126
 3408TIP3    H110188   7.216   4.623   3.959 -0.4231 -0.3842 -0.3287
 3408TIP3    H210189   7.199   4.629   3.809  0.7652 -2.3253 -0.5705
 3409TIP3   OH210190   4.782   1.771   4.131 -0.2961 -0.3664 -0.3975
 3409TIP3    H110191   4.741   1.858   4.136 -1.7461 -1.0549  0.2409
 3409TIP3    H210192   4.782   1.740   4.221 -0.9540 -1.5409 -0.7883
 3410TIP3   OH210193   2.609   3.981   5.121 -0.2161  0.5618  0.2445
 3410TIP3    H110194   2.586   3.900   5.168 -0.8355 -0.2921 -1.4396
 3410TIP3    H210195   2.687   4.013   5.166 -0.4276 -0.5269  1.4660
 3411TIP3   OH210196   7.144   4.050   4.682 -0.1678 -0.2842 -0.5590
 3411TIP3    H110197   7.227   4.084   4.715 -1.4073  1.4808  0.9351
 3411TIP3    H210198   7.114   4.115   4.619 -0.0565 -1.3518 -1.7783
 3412TIP3   OH210199   2.627   5.825   5.206 -0.1047 -0.2875  0.4008
 3412TIP3    H110200   2.617   5.847   5.113 -1.2016 -0.6533  0.4233
 3412TIP3    H210201   2.707   5.772   5.209 -0.3894 -0.7977 -0.4436
 3413TIP3   OH210202   6.428   4.578   2.817 -0.1920  0.5092 -0.2107
 3413TIP3    H110203   6.486   4.647   2.785  1.4072 -0.5565  0.2185
 3413TIP3    H210204   6.487   4.518   2.864 -1.6264 -0.7573  0.0456
 3414TIP3   OH210205   4.830   2.669   2.819  0.3523 -0.9138 -0.3419
 3414TIP3    H110206   4.820   2.741   2.756 -0.1001 -0.9258 -0.2921
 3414TIP3    H210207   4.743   2.628   2.821  1.0066 -2.4415 -1.5309
 3415TIP3   OH210208   4.556   1.424   2.746  0.6083 -0.4032  0.0310
 3415TIP3    H110209   4.481   1.384   2.790  1.3006 -0.8669  0.7973
 3415TIP3    H210210   4.630   1.369   2.769  1.2472  0.2312 -0.4674
 3416TIP3   OH210211   1.574   0.834   3.516  0.4326  0.1999  0.0442
 3416TIP3    H110212   1.555   0.843   3.423 -4.0474  0.9223  0.8074
 3416TIP3    H210213   1.618   0.750   3.524  1.4711  0.3831 -2.6999
 3417TIP3   OH210214   2.927   4.500   2.155  0.2307 -0.0415  0.0590
 3417TIP3    H110215   2.906   4.497   2.248  0.9100  0.1967  0.2227
 3417TIP3    H210216   2.871   4.433   2.116 -1.1356  0.8538  0.4134
 3418TIP3   OH210217   5.957   6.078   2.583 -0.3917  0.1009  0.2793
 3418TIP3    H110218   6.024   6.010   2.578 -0.2310  0.2168  0.8202
 3418TIP3    H210219   6.006   6.159   2.599 -0.6448  0.2213  0.4391
 3419TIP3   OH210220   4.496   3.152   5.074 -0.1497  0.0217  0.0423
 3419TIP3    H110221   4.584   3.184   5.056  0.2233 -1.3702 -0.7408
 3419TIP3    H210222   4.506   3.058   5.088 -1.5738 -0.2754 -0.6412
 3420TIP3   OH210223   4.880   1.409   1.578 -0.4838 -0.4243  0.3533
 3420TIP3    H110224   4.901   1.447   1.492  2.0136 -0.5271  0.8357
 3420TIP3    H210225   4.947   1.342   1.591 -0.2482  0.1931  2.7529
 3421TIP3   OH210226   1.338   1.875   3.368 -0.9818 -0.0130  0.3467
 3421TIP3    H110227   1.396   1.891   3.294 -1.4681  0.0367 -0.0271
 3421TIP3    H210228   1.395   1.885   3.445 -0.3150 -0.7457 -0.0344
 3422TIP3   OH210229   3.065   6.013   5.318 -0.3909  0.2312  0.0637
 3422TIP3    H110230   3.143   5.986   5.367  0.3622  0.6953 -0.8624
 3422TIP3    H210231   3.081   6.104   5.296 -0.4180 -0.1439 -1.5955
 3423TIP3   OH210232   4.718   2.101   2.635  0.7853  0.4081 -0.0882
 3423TIP3    H110233   4.796   2.063   2.674  0.1792 -1.2304 -0.3960
 3423TIP3    H210234   4.648   2.081   2.697 -0.0134 -1.3615 -1.4651
 3424TIP3   OH210235   4.724   5.766   3.419 -0.1559 -0.4050  0.4008
 3424TIP3    H110236   4.663   5.809   3.478 -1.1909 -0.7004 -0.4255
 3424TIP3    H210237   4.722   5.819   3.339  2.9981  1.3648  1.3582
 3425TIP3   OH210238   5.773   2.963   5.456 -0.5661  0.2637  0.4828
 3425TIP3    H110239   5.678   2.973   5.463 -0.5868  0.3201  0.1188
 3425TIP3    H210240   5.808   3.042   5.498 -0.7100  1.2082 -1.1083
 3426TIP3   OH210241   1.596   3.095   3.051  0.3109 -0.1842  0.2575
 3426TIP3    H110242   1.577   3.145   3.130  1.7321  0.9857 -0.0881
 3426TIP3    H210243   1.691   3.080   3.054  0.4420  0.0912 -1.3186
 3427TIP3   OH210244   3.261   2.180   3.925  0.1656  0.4131 -0.2268
 3427TIP3    H110245   3.210   2.099   3.917 -0.0971  0.4815  0.6439
 3427TIP3    H210246   3.200   2.249   3.896 -0.2598  0.4984  0.8400
 3428TIP3   OH210247   6.049   6.693   4.953 -0.0737  0.8087 -0.0420
 3428TIP3    H110248   6.003   6.682   5.036  0.1109 -4.3025 -0.2918
 3428TIP3    H210249   6.135   6.654   4.969 -0.1375 -0.5777 -2.6377
 3429TIP3   OH210250   3.506   2.215   0.180  0.6914 -0.3765 -0.8341
 3429TIP3    H110251   3.414   2.240   0.187 -0.2005 -3.0527 -1.6987
 3429TIP3    H210252   3.536   2.209   0.271 -0.0675  0.2600 -0.5327
 3430TIP3   OH210253   5.739   5.122   4.889 -0.2554 -0.0746 -0.1443
 3430TIP3    H110254   5.705   5.164   4.809  0.8342  2.1567  0.4641
 3430TIP3    H210255   5.709   5.032   4.884 -0.1534 -0.0343 -3.1320
 3431TIP3   OH210256   6.330   3.784   5.865  0.5743 -0.6202 -0.6392
 3431TIP3    H110257   6.365   3.841   5.797  0.5030  0.3965  0.1580
 3431TIP3    H210258   6.339   3.834   5.946 -4.0684  0.4335 -0.4822
 3432TIP3   OH210259   1.325   1.796   2.383  0.0813  0.1958 -0.6529
 3432TIP3    H110260   1.272   1.871   2.411 -0.3330  0.7664 -2.7730
 3432TIP3    H210261   1.414   1.817   2.412 -0.1439  1.2122 -0.6577
 3433TIP3   OH210262   4.588   1.148   4.364  0.1299 -0.8076 -0.4259
 3433TIP3    H110263   4.602   1.216   4.298  0.9609 -0.1912  0.3643
 3433TIP3    H210264   4.578   1.195   4.446  0.2169 -1.6137  0.0643
 3434TIP3   OH210265   1.202   2.205   0.165  0.5615  0.1895 -0.1185
 3434TIP3    H110266   1.200   2.236   0.255  0.2302 -1.7437  0.5839
 3434TIP3    H210267   1.294   2.185   0.148  0.5540  0.1032 -0.0543
 3435TIP3   OH210268   1.840   3.792   0.920 -0.1467 -0.0118 -0.2563
 3435TIP3    H110269   1.761   3.754   0.959  0.2871  1.8641  2.7256
 3435TIP3    H210270   1.891   3.717   0.890 -0.8636 -1.6039  2.2527
 3436TIP3   OH210271   2.995   1.393   5.243 -0.7173 -0.1368  0.1492
 3436TIP3    H110272   3.067   1.444   5.281  0.3153 -0.3196 -1.4702
 3436TIP3    H210273   2.955   1.452   5.179 -2.7999  0.3716  1.7788
 3437TIP3   OH210274   2.004   1.191   4.376  0.0415 -0.1547  0.3133
 3437TIP3    H110275   2.079   1.244   4.402  0.9247 -0.7277 -0.9911
 3437TIP3    H210276   1.957   1.244   4.312 -0.0394 -0.2631  0.2814
 3438TIP3   OH210277   1.730   4.582   0.566  0.4440  0.4448  1.1298
 3438TIP3    H110278   1.641   4.604   0.537  1.0149 -0.1618 -1.2943
 3438TIP3    H210279   1.717   4.528   0.644 -1.2706  1.0545  1.3199
 3439TIP3   OH210280   1.942   2.231   5.044  0.2770 -0.1995  0.4928
 3439TIP3    H110281   1.964   2.309   4.993  0.5127 -0.8321 -0.4068
 3439TIP3    H210282   1.892   2.176   4.983  1.5801 -1.5017  0.5527
 3440TIP3   OH210283   6.524   4.112   5.558 -0.4794 -0.5394 -0.2001
 3440TIP3    H110284   6.610   4.119   5.599 -0.5441  0.8822 -0.2788
 3440TIP3    H210285   6.510   4.197   5.517 -1.9658 -0.7256 -0.1146
 3441TIP3   OH210286   7.125   1.422   2.806  0.2033  0.2729 -0.4644
 3441TIP3    H110287   7.187   1.363   2.848 -0.2958  0.7599  1.0516
 3441TIP3    H210288   7.045   1.413   2.858  0.2670  2.6238  0.1967
 3442TIP3   OH210289   4.815   6.186   0.441 -0.1285 -0.1294 -0.1108
 3442TIP3    H110290   4.797   6.280   0.438 -1.8325 -0.4178 -3.4008
 3442TIP3    H210291   4.861   6.167   0.360 -0.4306 -2.2297  0.1409
 3443TIP3   OH210292   1.036   6.669   1.772 -0.1656  0.6198  0.4118
 3443TIP3    H110293   1.002   6.746   1.818  1.9332  0.6445  2.0810
 3443TIP3    H210294   1.050   6.700   1.683 -0.6829  1.7590  0.6953
 3444TIP3   OH210295   6.836   4.391   2.364  0.1062  0.0733 -0.2188
 3444TIP3    H110296   6.766   4.389   2.429  0.2501 -0.2456 -0.0730
 3444TIP3    H210297   6.841   4.300   2.332  2.6283 -0.7181  2.0836
 3445TIP3   OH210298   1.682   0.169   0.689 -0.5036  0.3094 -0.2809
 3445TIP3    H110299   1.742   0.135   0.755  0.0042 -0.2185 -1.0018
 3445TIP3    H210300   1.683   0.263   0.703 -1.0613  0.1538  1.0113
 3446TIP3   OH210301   0.144   3.187   4.694  0.0944 -0.1128 -0.3444
 3446TIP3    H110302   0.206   3.127   4.737 -0.7716 -0.8187 -0.0380
 3446TIP3    H210303   0.121   3.250   4.762 -0.2182 -0.4038 -0.1755
 3447TIP3   OH210304   2.435   3.518   5.175 -0.2336 -0.2319 -0.5103
 3447TIP3    H110305   2.514   3.486   5.130  0.7815 -0.2987  1.2111
 3447TIP3    H210306   2.378   3.441   5.180  0.2113 -0.5701 -0.5195
 3448TIP3   OH210307   6.750   4.895   4.082 -0.0557 -0.5900  0.3478
 3448TIP3    H110308   6.663   4.854   4.083 -0.2305 -0.2882 -0.8226
 3448TIP3    H210309   6.808   4.828   4.049  0.5371 -1.4100  2.8394
 3449TIP3   OH210310   4.787   3.912   3.298 -0.0081  0.3713 -0.6858
 3449TIP3    H110311   4.823   3.959   3.374 -1.3048  0.5807 -0.1838
 3449TIP3    H210312   4.831   3.952   3.223  0.3111  1.0849 -0.1372
 3450TIP3   OH210313   4.005   3.758   2.044  0.3019 -0.8729  0.5739
 3450TIP3    H110314   4.007   3.740   2.138 -0.5682  2.6967  1.4275
 3450TIP3    H210315   4.093   3.791   2.025 -0.0948  0.2084  0.5882
 3451TIP3   OH210316   1.968   4.399   3.096  0.3244  0.0049  0.3681
 3451TIP3    H110317   1.937   4.481   3.133 -0.7114  0.4541 -1.3701
 3451TIP3    H210318   1.907   4.380   3.025  2.4356 -0.5323 -1.4254
 3452TIP3   OH210319   0.356   4.932   3.890 -0.5229  0.0981  0.7164
 3452TIP3    H110320   0.427   4.908   3.949  0.1286 -0.5994 -0.3256
 3452TIP3    H210321   0.367   5.026   3.876  0.0879  0.0309  0.7113
 3453TIP3   OH210322   6.393   1.534   2.972 -0.7487  0.2456  0.0247
 3453TIP3    H110323   6.459   1.603   2.987 -0.7419  0.4726 -0.9572
 3453TIP3    H210324   6.385   1.530   2.877  0.0542 -1.8867 -0.0045
 3454TIP3   OH210325   2.574   0.498   1.874 -0.2695 -0.3373 -0.3570
 3454TIP3    H110326   2.525   0.568   1.831  0.9211 -1.0631 -3.1634
 3454TIP3    H210327   2.523   0.419   1.855 -0.4835 -0.5179  0.9093
 3455TIP3   OH210328   7.111   5.063   3.885 -0.3463  0.6706 -0.1684
 3455TIP3    H110329   7.028   5.098   3.852  0.1338  1.0617 -1.0040
 3455TIP3    H210330   7.177   5.097   3.824  0.1217 -1.9912 -1.2976
 3456TIP3   OH210331   4.303   6.027   2.376  0.5760 -0.2921  0.4204
 3456TIP3    H110332   4.342   6.111   2.351  0.0954 -0.6640 -1.7304
 3456TIP3    H210333   4.378   5.971   2.395  0.9512  0.1182  0.1828
 3457TIP3   OH210334   5.868   4.260   1.311 -0.2284  0.0483  0.2335
 3457TIP3    H110335   5.806   4.187   1.311 -1.6259  1.1820 -0.3847
 3457TIP3    H210336   5.812   4.338   1.311  1.1908  1.1220 -1.5678
 3458TIP3   OH210337   0.661   2.157   2.975  0.5474  0.1132  0.2360
 3458TIP3    H110338   0.683   2.069   3.004  0.3672  0.0334  0.1330
 3458TIP3    H210339   0.718   2.174   2.900  0.8308  0.2199  0.4759
 3459TIP3   OH210340   2.589   5.533   0.108  0.0728 -0.2640  0.2267
 3459TIP3    H110341   2.603   5.449   0.152 -0.0193  0.1430  1.0646
 3459TIP3    H210342   2.533   5.582   0.169 -0.1319  0.2875 -0.3957
 3460TIP3   OH210343   4.902   4.838   4.482  0.0175  0.3847  0.0822
 3460TIP3    H110344   4.924   4.760   4.431 -0.5200  0.2321  0.0742
 3460TIP3    H210345   4.857   4.804   4.559 -1.3383  0.7401 -0.5208
 3461TIP3   OH210346   1.694   6.071   0.945  0.0602  0.0839  0.5146
 3461TIP3    H110347   1.670   6.007   0.878  0.4141 -0.3207  0.7744
 3461TIP3    H210348   1.786   6.053   0.964  0.4279  1.2522 -0.0508
 3462TIP3   OH210349   1.899   4.657   3.192  0.1770  0.2004  0.2262
 3462TIP3    H110350   1.938   4.672   3.278  1.6165  2.5902 -0.7513
 3462TIP3    H210351   1.824   4.716   3.190  0.8900  1.1075 -0.5787
 3463TIP3   OH210352   1.909   3.979   2.234  0.1504  0.6083 -0.2571
 3463TIP3    H110353   1.977   3.990   2.167  0.1472 -0.0547 -0.3727
 3463TIP3    H210354   1.939   4.032   2.308  0.5947  0.6362 -0.4557
 3464TIP3   OH210355   5.552   4.306   4.242  0.5974  0.1992  0.6707
 3464TIP3    H110356   5.461   4.287   4.266  0.4222  0.7231  0.4457
 3464TIP3    H210357   5.604   4.265   4.311  0.1261  1.2274  1.6767
 3465TIP3   OH210358   2.795   4.953   0.474 -0.7302  0.1341 -0.1795
 3465TIP3    H110359   2.861   4.926   0.538  0.5163  0.1997 -1.3948
 3465TIP3    H210360   2.741   5.017   0.520  0.2577  0.3261  0.7328
 3466TIP3   OH210361   2.669   1.129   2.593 -0.1578  0.1848  0.3232
 3466TIP3    H110362   2.719   1.106   2.514 -0.9651 -0.7745  0.0782
 3466TIP3    H210363   2.721   1.095   2.665  0.8785  1.5737  0.2718
 3467TIP3   OH210364   0.205   3.982   1.305 -0.0398 -0.4200 -0.2089
 3467TIP3    H110365   0.109   3.983   1.299  0.0494 -0.2126 -2.3761
 3467TIP3    H210366   0.229   4.074   1.312  0.0191 -0.4884  0.6402
 3468TIP3   OH210367   0.701   6.443   2.681  0.0978  0.1691  0.4270
 3468TIP3    H110368   0.751   6.456   2.601  0.7263 -0.0354  0.7777
 3468TIP3    H210369   0.611   6.466   2.657  0.0484 -1.0446 -0.6539
 3469TIP3   OH210370   7.100   1.760   1.862 -0.2435  0.3634  0.2587
 3469TIP3    H110371   7.019   1.787   1.819  0.4765  0.8284 -0.8465
 3469TIP3    H210372   7.072   1.719   1.943 -1.6942 -1.1552 -0.9493
 3470TIP3   OH210373   3.593   4.930   4.205 -0.1857 -0.2196 -0.2713
 3470TIP3    H110374   3.528   4.953   4.272 -1.7350  1.3542 -2.1801
 3470TIP3    H210375   3.674   4.915   4.254 -0.4767  3.6385  1.7904
 3471TIP3   OH210376   4.822   1.950   4.766  0.2214 -0.4483 -0.0344
 3471TIP3    H110377   4.743   1.898   4.753  0.1070 -0.1564 -0.5658
 3471TIP3    H210378   4.888   1.888   4.797 -0.0172 -0.8293 -0.2844
 3472TIP3   OH210379   3.197   2.428   2.295 -0.2898 -0.0333  0.4780
 3472TIP3    H110380   3.159   2.516   2.289 -2.2902 -0.9257 -2.5028
 3472TIP3    H210381   3.136   2.379   2.350 -0.8286 -0.2359 -0.2770
 3473TIP3   OH210382   2.486   0.345   5.303  0.1391 -0.3827 -0.2264
 3473TIP3    H110383   2.580   0.348   5.283  0.2941 -2.6044 -0.0213
 3473TIP3    H210384   2.447   0.295   5.232 -0.7020 -0.5559  0.3391
 3474TIP3   OH210385   0.777   4.441   5.064  0.0277  0.4844  0.4784
 3474TIP3    H110386   0.773   4.523   5.016 -0.7292  0.7131  0.9114
 3474TIP3    H210387   0.857   4.447   5.115 -0.6391  1.4919  1.4436
 3475TIP3   OH210388   4.922   5.063   2.838 -0.2351  0.4140 -0.0161
 3475TIP3    H110389   4.921   5.131   2.771  0.4591  0.4869  0.0346
 3475TIP3    H210390   4.869   4.992   2.802 -1.3072  1.1358  0.1020
 3476TIP3   OH210391   3.264   6.327   1.188  0.1156 -1.0877  0.2495
 3476TIP3    H110392   3.307   6.407   1.220 -0.6011 -0.6715  0.2085
 3476TIP3    H210393   3.213   6.296   1.263  0.5019 -1.5868  0.3069
 3477TIP3   OH210394   5.925   3.125   3.307  0.4334  0.5000 -0.3869
 3477TIP3    H110395   5.902   3.069   3.233 -2.7502 -0.1907  0.9993
 3477TIP3    H210396   5.917   3.214   3.273 -0.4820  0.1823 -1.0165
 3478TIP3   OH210397   3.377   4.164   5.153 -0.3546  0.0721 -0.3933
 3478TIP3    H110398   3.330   4.084   5.131  0.4864 -0.2556 -1.0475
 3478TIP3    H210399   3.320   4.209   5.216 -0.7452 -1.1345  0.1464
 3479TIP3   OH210400   6.154   2.569   3.646 -0.3890  0.4725  0.1990
 3479TIP3    H110401   6.202   2.528   3.574 -1.7004  0.3128 -0.6171
 3479TIP3    H210402   6.220   2.621   3.692  0.6954 -0.2703 -0.4745
 3480TIP3   OH210403   4.889   2.503   0.178 -0.0958  0.0211 -0.1114
 3480TIP3    H110404   4.908   2.586   0.134 -0.4072  0.4358  0.5066
 3480TIP3    H210405   4.951   2.500   0.251  0.3560 -0.6112 -0.5156
 3481TIP3   OH210406   0.737   1.480   4.109 -0.7975  0.6811 -0.9100
 3481TIP3    H110407   0.827   1.509   4.118 -0.8995  1.0674 -1.1539
 3481TIP3    H210408   0.690   1.554   4.070 -1.0987  0.2768 -1.3335
 3482TIP3   OH210409   2.316   1.517   3.697 -0.2441  0.0989 -0.2488
 3482TIP3    H110410   2.380   1.564   3.750 -0.7266 -1.4930  1.8612
 3482TIP3    H210411   2.368   1.473   3.630  0.5983  0.6376  0.0331
 3483TIP3   OH210412   5.744   2.198   0.134  0.1749  0.1708  0.2788
 3483TIP3    H110413   5.726   2.286   0.166  0.5478 -0.2370  1.6819
 3483TIP3    H210414   5.688   2.141   0.187  1.5775 -0.6128  0.9725
 3484TIP3   OH210415   2.732   5.164   2.567 -0.1820  0.0403 -0.3807
 3484TIP3    H110416   2.683   5.169   2.649  1.4233 -1.4882  0.7324
 3484TIP3    H210417   2.800   5.230   2.575 -0.2858  0.1906 -0.6929
 3485TIP3   OH210418   6.511   1.943   5.768  0.2451 -0.8165 -0.5454
 3485TIP3    H110419   6.511   1.884   5.692 -0.4675  0.5235 -1.6290
 3485TIP3    H210420   6.430   1.993   5.759  1.6855  1.6100 -0.7198
 3486TIP3   OH210421   5.208   0.798   2.934 -0.3954 -0.1357  0.3145
 3486TIP3    H110422   5.246   0.884   2.919 -0.2903 -0.0771  0.8786
 3486TIP3    H210423   5.156   0.780   2.856 -1.1947  0.8639  0.5855
 3487TIP3   OH210424   0.211   6.063   5.750 -0.3126 -0.0882  0.3926
 3487TIP3    H110425   0.271   6.005   5.704  0.9417 -1.6199  3.6155
 3487TIP3    H210426   0.225   6.149   5.709  2.1213 -0.9209 -0.7307
 3488TIP3   OH210427   4.170   4.254   4.416 -0.6806 -0.0936 -0.4904
 3488TIP3    H110428   4.132   4.327   4.466  0.5730  0.2563 -0.0188
 3488TIP3    H210429   4.142   4.176   4.464 -3.4275 -0.1075 -1.9129
 3489TIP3   OH210430   0.398   2.673   5.377 -0.3620 -0.9156 -0.5762
 3489TIP3    H110431   0.428   2.638   5.293  1.9366  0.4388 -0.4049
 3489TIP3    H210432   0.461   2.741   5.398 -0.2190 -1.9109  2.7848
 3490TIP3   OH210433   2.909   6.736   0.569  0.3021  0.1081 -0.3574
 3490TIP3    H110434   2.839   6.801   0.563 -0.5792 -0.6778  0.8401
 3490TIP3    H210435   2.952   6.738   0.483 -0.9386  0.8844 -0.9833
 3491TIP3   OH210436   6.127   4.412   2.455 -0.0368 -0.3440 -0.5722
 3491TIP3    H110437   6.196   4.463   2.497  1.5896 -2.5915 -0.3352
 3491TIP3    H210438   6.089   4.360   2.526 -0.9378 -0.2693 -0.9836
 3492TIP3   OH210439   3.157   6.694   3.744  0.4075 -0.1491  0.3348
 3492TIP3    H110440   3.152   6.718   3.651  2.0936 -0.4812  0.1401
 3492TIP3    H210441   3.188   6.773   3.787  1.5026 -0.5611  0.3297
 3493TIP3   OH210442   5.207   4.931   2.634 -0.3634 -0.6555  0.0780
 3493TIP3    H110443   5.232   5.023   2.643 -0.1389 -0.7968  0.9767
 3493TIP3    H210444   5.164   4.926   2.549  1.2225 -0.0765 -0.8108
 3494TIP3   OH210445   6.243   5.935   2.707 -0.7404 -0.0853 -0.8024
 3494TIP3    H110446   6.337   5.932   2.691 -0.7596  1.7765 -1.4407
 3494TIP3    H210447   6.204   5.912   2.622 -0.8571  0.2447 -0.8384
 3495TIP3   OH210448   2.340   4.390   5.424  0.2140  0.3002  0.7549
 3495TIP3    H110449   2.406   4.321   5.428  0.6564  0.6759  0.0915
 3495TIP3    H210450   2.361   4.448   5.497 -1.3419 -1.2688  2.5722
 3496TIP3   OH210451   3.913   5.844   3.271  0.0089 -0.2213 -0.1294
 3496TIP3    H110452   3.834   5.810   3.313  0.4691 -1.7403 -0.4378
 3496TIP3    H210453   3.973   5.863   3.343 -0.7324  1.2976  0.1332
 3497TIP3   OH210454   5.087   4.604   0.220  0.4882  0.2362 -0.8392
 3497TIP3    H110455   5.110   4.519   0.183  1.5193  0.5959 -1.0723
 3497TIP3    H210456   4.995   4.616   0.197  0.1721 -1.0477 -0.3202
 3498TIP3   OH210457   5.555   6.510   5.280  0.5495  0.2327 -0.5033
 3498TIP3    H110458   5.574   6.502   5.374 -0.4314  1.2497 -0.1924
 3498TIP3    H210459   5.540   6.604   5.267 -0.2402 -0.0128 -1.4835
 3499TIP3   OH210460   2.923   1.485   1.774 -0.4673 -0.4612 -0.4824
 3499TIP3    H110461   2.903   1.556   1.713 -1.7011 -0.1634  0.2371
 3499TIP3    H210462   2.910   1.405   1.723 -2.0088 -0.2323 -0.4981
 3500TIP3   OH210463   7.157   3.628   5.641  0.1211  0.7354 -0.0598
 3500TIP3    H110464   7.147   3.534   5.655 -0.7497  1.0095  1.4307
 3500TIP3    H210465   7.219   3.656   5.709 -0.1928  1.3531 -0.0188
 3501TIP3   OH210466   4.825   4.100   1.918 -0.6054  0.2311  0.2179
 3501TIP3    H110467   4.771   4.033   1.960 -1.0500  0.3631 -0.1298
 3501TIP3    H210468   4.825   4.174   1.979  0.3882 -0.2934  0.8842
 3502TIP3   OH210469   4.958   5.944   4.818  0.0688  0.1112 -0.2063
 3502TIP3    H110470   4.996   5.911   4.900  0.7112 -0.9590 -0.9044
 3502TIP3    H210471   5.031   5.944   4.757 -0.9926 -1.8815 -1.5693
 3503TIP3   OH210472   2.203   6.172   5.488 -0.0972 -0.1158 -0.1849
 3503TIP3    H110473   2.208   6.248   5.430 -1.5042 -0.5738 -0.9862
 3503TIP3    H210474   2.274   6.115   5.460  0.1562  0.3380 -0.4681
 3504TIP3   OH210475   3.754   2.747   2.252 -0.4696  0.7807  0.2944
 3504TIP3    H110476   3.740   2.810   2.323  0.4872  0.0114  1.2041
 3504TIP3    H210477   3.806   2.796   2.188 -0.7077  1.2674  0.4689
 3505TIP3   OH210478   0.889   6.517   5.791  0.8275 -0.4935  0.4567
 3505TIP3    H110479   0.975   6.560   5.794  0.3736  0.5099 -0.2727
 3505TIP3    H210480   0.836   6.566   5.854  0.2266  0.2203 -0.5801
 3506TIP3   OH210481   6.141   0.183   1.829  0.1012 -1.0764 -0.3756
 3506TIP3    H110482   6.203   0.129   1.878  2.6148 -0.1507 -2.2482
 3506TIP3    H210483   6.195   0.255   1.795 -2.8033  1.9719  0.9444
 3507TIP3   OH210484   3.017   2.484   0.530  0.2817  0.3704  0.2706
 3507TIP3    H110485   3.083   2.497   0.598  1.0857  2.3782 -0.8063
 3507TIP3    H210486   2.934   2.512   0.571  0.3746 -0.4021  1.0318
 3508TIP3   OH210487   7.046   0.102   2.769 -0.4556 -0.1214  0.3821
 3508TIP3    H110488   7.055   0.146   2.685  0.1308 -2.2035 -0.7171
 3508TIP3    H210489   6.975   0.038   2.755 -0.0894 -0.7556  1.3258
 3509TIP3   OH210490   4.674   5.492   0.701  0.4176  0.7983  0.3788
 3509TIP3    H110491   4.723   5.511   0.781  0.8376  0.4035  0.2147
 3509TIP3    H210492   4.625   5.412   0.720  1.0620  0.3106  0.0034
 3510TIP3   OH210493   2.472   0.805   3.588 -0.2273  0.2900 -0.0818
 3510TIP3    H110494   2.531   0.800   3.663  0.6141  1.3264 -0.6474
 3510TIP3    H210495   2.486   0.724   3.540  0.2821  0.2593  0.1209
 3511TIP3   OH210496   0.981   4.666   1.583 -0.0512 -0.5717 -0.3208
 3511TIP3    H110497   0.901   4.709   1.613  1.6213  1.6185  1.2367
 3511TIP3    H210498   0.960   4.636   1.495 -1.3658  3.6048 -1.6520
 3512TIP3   OH210499   5.141   5.111   5.185 -0.3555 -0.0725  0.4826
 3512TIP3    H110500   5.151   5.157   5.102 -1.6801 -0.9520 -0.2012
 3512TIP3    H210501   5.169   5.173   5.251  0.5468  0.7126 -0.6095
 3513TIP3   OH210502   3.898   1.959   0.584 -0.1524  0.1100 -0.2338
 3513TIP3    H110503   3.866   2.049   0.592 -0.7445  0.0660 -1.7984
 3513TIP3    H210504   3.819   1.906   0.592 -0.0464 -0.1707 -1.0159
 3514TIP3   OH210505   5.743   1.796   5.155  0.3098  0.0991  0.2328
 3514TIP3    H110506   5.744   1.707   5.190  3.0746  0.3409  1.0207
 3514TIP3    H210507   5.719   1.786   5.063 -2.6415 -1.0536  1.0324
 3515TIP3   OH210508   5.868   5.656   4.849  0.8774  0.4222 -0.4955
 3515TIP3    H110509   5.798   5.676   4.787  0.8855  0.8440 -0.3744
 3515TIP3    H210510   5.935   5.613   4.796  0.1104 -0.9009 -0.4185
 3516TIP3   OH210511   5.119   3.496   0.551  0.6626 -0.1479 -0.5262
 3516TIP3    H110512   5.201   3.472   0.594  0.4431  0.1496  0.0723
 3516TIP3    H210513   5.055   3.434   0.588  0.6553 -0.5117 -1.1422
 3517TIP3   OH210514   4.541   4.607   4.172 -0.3461  0.2086 -0.2120
 3517TIP3    H110515   4.560   4.689   4.126  0.8479 -0.7728 -1.5688
 3517TIP3    H210516   4.554   4.628   4.264  1.3132  1.2350 -0.6242
 3518TIP3   OH210517   6.181   3.356   4.497  0.1067  0.0429  0.5024
 3518TIP3    H110518   6.085   3.360   4.489  0.2035 -0.6178 -2.1317
 3518TIP3    H210519   6.213   3.420   4.434  1.4495  0.6682  1.7616
 3519TIP3   OH210520   2.674   3.225   1.667  0.1550  0.2958  0.1879
 3519TIP3    H110521   2.641   3.276   1.740 -0.7502 -0.8219  0.5940
 3519TIP3    H210522   2.630   3.141   1.674  2.2740 -0.9086  0.0982
 3520TIP3   OH210523   5.870   0.060   5.525 -0.0179  0.4460 -0.0167
 3520TIP3    H110524   5.928   0.088   5.454  0.5045  0.2034  0.3174
 3520TIP3    H210525   5.911   0.092   5.605 -0.2927  0.1902  0.2315
 3521TIP3   OH210526   1.969   3.273   1.823  0.3363 -0.1384 -0.8194
 3521TIP3    H110527   1.951   3.245   1.913 -0.2145 -0.0775 -0.9070
 3521TIP3    H210528   2.065   3.277   1.818  0.3705  0.6631  0.0162
 3522TIP3   OH210529   6.333   3.896   5.321 -0.3382  0.1113  0.6916
 3522TIP3    H110530   6.386   3.937   5.253 -0.5167  1.5881  1.4123
 3522TIP3    H210531   6.242   3.912   5.294 -0.4188  1.3095  1.5864
 3523TIP3   OH210532   3.614   4.124   3.587  0.3797 -0.2235 -0.0534
 3523TIP3    H110533   3.645   4.199   3.637  2.0245 -0.7506 -0.2427
 3523TIP3    H210534   3.533   4.098   3.632  0.7266  0.5646  1.0751
 3524TIP3   OH210535   1.258   3.631   4.378  0.3222 -0.7081  0.6648
 3524TIP3    H110536   1.250   3.576   4.456 -0.7597 -1.6990 -0.1100
 3524TIP3    H210537   1.168   3.643   4.347  0.6562  0.3868  0.0511
 3525TIP3   OH210538   0.170   2.792   1.462 -0.4968  0.1105 -0.6945
 3525TIP3    H110539   0.111   2.781   1.537  0.1640  0.7026 -0.0756
 3525TIP3    H210540   0.198   2.703   1.441 -0.4386 -0.0396 -0.0225
 3526TIP3   OH210541   4.112   6.169   1.728 -0.2557  0.3962 -0.0295
 3526TIP3    H110542   4.086   6.261   1.733 -0.2386  0.4898 -1.2216
 3526TIP3    H210543   4.047   6.129   1.670  0.8959  0.1336 -1.2103
 3527TIP3   OH210544   5.783   3.285   2.899  0.4710  0.3541  0.2313
 3527TIP3    H110545   5.701   3.283   2.850  0.1243 -1.0052  0.8100
 3527TIP3    H210546   5.818   3.373   2.884 -0.5867  0.6215 -0.8378
 3528TIP3   OH210547   6.859   1.617   0.749 -0.7492  0.0105  0.5540
 3528TIP3    H110548   6.797   1.666   0.694 -1.0313 -1.1340 -0.1820
 3528TIP3    H210549   6.811   1.539   0.775 -0.3909  0.2184  1.9271
 3529TIP3   OH210550   3.656   2.905   3.682 -0.5498  0.2525  0.2659
 3529TIP3    H110551   3.638   2.834   3.743  0.3101 -0.8427 -0.6884
 3529TIP3    H210552   3.734   2.948   3.717 -1.4868  1.2188  1.2316
 3530TIP3   OH210553   4.212   6.009   2.653  0.1187  0.0852  0.3007
 3530TIP3    H110554   4.264   5.991   2.575 -0.5762 -1.0001  0.0573
 3530TIP3    H210555   4.238   6.097   2.680  0.9392  0.1664 -0.6963
 3531TIP3   OH210556   1.110   3.243   4.705 -0.1370  0.1435 -0.7157
 3531TIP3    H110557   1.111   3.155   4.741 -1.7678  0.1252 -0.6603
 3531TIP3    H210558   1.131   3.300   4.779  0.9907 -0.1858 -0.7670
 3532TIP3   OH210559   2.720   5.571   2.323  0.6344  0.5557 -0.0437
 3532TIP3    H110560   2.759   5.648   2.365  1.2635 -0.0119  0.4354
 3532TIP3    H210561   2.743   5.581   2.230  1.6513  0.4180  0.1725
 3533TIP3   OH210562   3.280   4.858   1.471 -0.2004 -0.2499  0.7096
 3533TIP3    H110563   3.337   4.807   1.529  1.3350  1.8547  1.2097
 3533TIP3    H210564   3.316   4.947   1.475 -1.7331  0.5505 -1.3595
 3534TIP3   OH210565   6.357   2.043   4.298 -0.1426 -0.2854 -0.5174
 3534TIP3    H110566   6.265   2.062   4.314  0.0599  0.0210  0.3705
 3534TIP3    H210567   6.367   1.951   4.322 -0.3737 -0.5372 -1.3638
 3535TIP3   OH210568   3.191   3.330   2.676 -0.5290  0.0191  0.1562
 3535TIP3    H110569   3.201   3.359   2.766  2.6040 -2.0253  0.6100
 3535TIP3    H210570   3.129   3.258   2.680  0.6594 -1.0028  0.9988
 3536TIP3   OH210571   5.415   5.104   0.194  0.0065 -0.4191 -0.1313
 3536TIP3    H110572   5.419   5.011   0.215 -0.0460  0.0933  2.3863
 3536TIP3    H210573   5.332   5.115   0.148 -0.1607 -1.5513 -0.1236
 3537TIP3   OH210574   5.431   0.158   0.755 -0.0268  0.4094  0.5089
 3537TIP3    H110575   5.422   0.070   0.793  0.4574 -0.3061 -0.9694
 3537TIP3    H210576   5.341   0.191   0.751 -0.1147  0.4867  2.1273
 3538TIP3   OH210577   4.698   3.639   5.728 -0.3979 -0.3225  0.7515
 3538TIP3    H110578   4.749   3.613   5.651 -0.7964 -1.8344  0.9767
 3538TIP3    H210579   4.679   3.732   5.713 -0.1103 -0.4753 -0.7606
 3539TIP3   OH210580   1.119   4.223   3.800 -0.9277 -0.3155  0.1411
 3539TIP3    H110581   1.050   4.247   3.738 -2.3633  2.7714  2.6822
 3539TIP3    H210582   1.196   4.271   3.770 -1.7276  1.4999  0.8401
 3540TIP3   OH210583   2.424   1.678   4.551  0.4422  0.5435  0.0831
 3540TIP3    H110584   2.442   1.715   4.637  1.1138  1.5301 -0.4539
 3540TIP3    H210585   2.365   1.741   4.509  0.2949  0.1873 -0.2615
 3541TIP3   OH210586   3.947   6.802   5.553 -0.1439 -0.0920 -0.4657
 3541TIP3    H110587   3.861   6.772   5.525 -0.1345 -1.4130  0.7837
 3541TIP3    H210588   3.957   6.766   5.641  1.2334  0.9758 -0.1490
 3542TIP3   OH210589   6.969   2.632   2.473 -0.0434 -0.3528 -0.3270
 3542TIP3    H110590   6.883   2.664   2.444 -0.2760 -1.6764 -1.1810
 3542TIP3    H210591   6.965   2.635   2.568 -1.1552 -0.6621 -0.3523
 3543TIP3   OH210592   6.753   5.045   5.238  0.2091  0.8124  0.2656
 3543TIP3    H110593   6.842   5.065   5.209  0.4048 -2.3465 -1.7816
 3543TIP3    H210594   6.762   4.966   5.291 -1.3490  0.5780  0.2326
 3544TIP3   OH210595   5.953   6.400   0.392 -0.2338 -1.3461  0.1986
 3544TIP3    H110596   5.982   6.411   0.482  0.4881  0.6998 -0.2228
 3544TIP3    H210597   5.874   6.454   0.385 -0.9468 -2.3990 -0.1185
 3545TIP3   OH210598   4.907   1.018   5.348  0.1037  0.6173 -0.0260
 3545TIP3    H110599   4.839   1.081   5.323 -0.7009  0.1694  0.9711
 3545TIP3    H210600   4.926   1.038   5.440  0.6910  0.1632 -0.0386
 3546TIP3   OH210601   6.535   0.827   2.825 -0.3189  0.0027  0.4948
 3546TIP3    H110602   6.571   0.812   2.913  0.2300  1.9828  0.6697
 3546TIP3    H210603   6.513   0.920   2.825 -0.2523  0.0432 -1.4999
 3547TIP3   OH210604   0.452   6.321   3.023 -0.4612  0.0786  0.3517
 3547TIP3    H110605   0.402   6.387   3.070 -0.7373  1.7826 -2.1654
 3547TIP3    H210606   0.541   6.329   3.057 -1.3357 -1.5769  3.3901
 3548TIP3   OH210607   0.279   1.438   0.002 -0.1390 -0.0510  0.1058
 3548TIP3    H110608   0.250   1.421   0.092 -2.6450  0.5646 -0.5217
 3548TIP3    H210609   0.351   1.501   0.012  0.9523 -1.4752  1.7413
 3549TIP3   OH210610   3.206   2.976   3.325 -0.2862  0.5196 -0.2386
 3549TIP3    H110611   3.127   2.964   3.378  0.4035 -0.1962  0.6561
 3549TIP3    H210612   3.174   2.982   3.235 -1.3911  0.6341  0.1542
 3550TIP3   OH210613   6.020   3.488   0.193 -0.1263  0.0251  0.1455
 3550TIP3    H110614   5.984   3.507   0.106  0.5586 -0.5511 -0.2814
 3550TIP3    H210615   6.070   3.566   0.216  1.2846 -0.5369 -0.8522
 3551TIP3   OH210616   0.513   1.116   5.434 -0.1132 -0.0001  0.7696
 3551TIP3    H110617   0.519   1.157   5.347  0.1825  1.4966  1.4650
 3551TIP3    H210618   0.419   1.105   5.448 -0.1606 -0.3336  0.2290
 3552TIP3   OH210619   7.175   6.368   3.361  0.1594 -0.6463 -0.2232
 3552TIP3    H110620   7.142   6.280   3.346  0.6472 -0.9526  0.4643
 3552TIP3    H210621   7.235   6.359   3.435  0.0459  0.2984 -0.0054
 3553TIP3   OH210622   7.065   0.107   4.717  0.5143 -0.0335  0.2515
 3553TIP3    H110623   7.039   0.165   4.789  0.1643 -1.1493  1.0541
 3553TIP3    H210624   7.038   0.020   4.746 -1.0423 -0.3430 -1.9181
 3554TIP3   OH210625   5.167   6.709   3.143  0.6355  0.0218 -0.2972
 3554TIP3    H110626   5.104   6.728   3.212  1.3335 -0.8011  0.6035
 3554TIP3    H210627   5.114   6.691   3.066 -0.1953  0.0754  0.2495
 3555TIP3   OH210628   4.826   5.188   5.335  0.5652  0.5027  0.0219
 3555TIP3    H110629   4.856   5.119   5.276  0.1666 -1.8709  2.4199
 3555TIP3    H210630   4.901   5.207   5.391 -0.1115  0.0300  1.1233
 3556TIP3   OH210631   6.353   2.257   3.289 -0.2664  0.5035  0.4459
 3556TIP3    H110632   6.261   2.277   3.277 -0.5481 -0.3981  1.0218
 3556TIP3    H210633   6.386   2.241   3.201 -1.0383 -0.7073  0.3551
 3557TIP3   OH210634   2.853   1.487   2.725 -0.6109  0.0984 -0.1855
 3557TIP3    H110635   2.781   1.476   2.787 -1.1720  2.2332 -0.3596
 3557TIP3    H210636   2.848   1.411   2.667 -0.9332 -1.2303  1.4966
 3558TIP3   OH210637   6.426   6.039   3.106 -0.6215 -0.0264 -0.0101
 3558TIP3    H110638   6.452   6.103   3.172 -0.2403  3.2513 -3.0261
 3558TIP3    H210639   6.332   6.055   3.093 -1.1804 -2.0970  1.0769
 3559TIP3   OH210640   4.289   4.173   0.976  0.0026 -0.0442  0.2957
 3559TIP3    H110641   4.250   4.258   0.953 -0.1833 -0.1761  0.1273
 3559TIP3    H210642   4.268   4.116   0.903 -3.7307 -1.5088  2.2685
 3560TIP3   OH210643   5.934   2.326   5.533  0.2859  0.2897  0.0937
 3560TIP3    H110644   5.887   2.291   5.458  0.2979 -0.2696  0.3409
 3560TIP3    H210645   5.973   2.249   5.575  0.1277  0.5714  0.7697
 3561TIP3   OH210646   5.964   6.236   3.580  0.2425 -0.4546 -0.3983
 3561TIP3    H110647   6.006   6.159   3.540 -2.0238 -1.2385 -1.4645
 3561TIP3    H210648   5.922   6.202   3.659  1.5208  0.3018  0.6313
 3562TIP3   OH210649   2.084   0.465   3.069  0.5476 -0.2971  0.1851
 3562TIP3    H110650   2.072   0.473   2.974  0.8359  3.1720  0.3227
 3562TIP3    H210651   2.163   0.412   3.078  0.6995 -0.4398 -1.5182
 3563TIP3   OH210652   1.865   2.920   0.737  0.2218  0.2860  0.0647
 3563TIP3    H110653   1.892   2.860   0.807  2.1182  2.3410  1.2323
 3563TIP3    H210654   1.885   2.873   0.656  0.2267 -1.2281  0.8997
 3564TIP3   OH210655   3.490   5.858   3.015  0.2068  0.3975  0.3694
 3564TIP3    H110656   3.428   5.870   2.943 -1.3219  0.2787  1.6042
 3564TIP3    H210657   3.573   5.839   2.972 -0.8237 -0.4940 -1.3443
 3565TIP3   OH210658  -0.003   2.046   3.411 -0.4666  0.0023  0.2509
 3565TIP3    H110659  -0.035   1.957   3.429 -0.5055 -0.3212 -1.2312
 3565TIP3    H210660   0.051   2.068   3.487  0.8802 -1.9540 -0.0472
 3566TIP3   OH210661   6.275   0.153   3.365  0.0616  0.5414 -0.1895
 3566TIP3    H110662   6.306   0.063   3.379  1.6515  0.8373 -1.5719
 3566TIP3    H210663   6.211   0.146   3.294 -0.1343  0.4468 -0.0040
 3567TIP3   OH210664   2.266   5.466   2.932 -0.3380  0.2596 -0.2803
 3567TIP3    H110665   2.354   5.503   2.940 -0.0402 -0.7414  1.6786
 3567TIP3    H210666   2.280   5.372   2.925 -1.2344  0.0763  0.2145
 3568TIP3   OH210667   6.976   3.908   2.628  0.0934 -0.9302 -0.0495
 3568TIP3    H110668   7.062   3.873   2.651  0.4084  0.4677  1.0731
 3568TIP3    H210669   6.963   3.981   2.689 -0.0682  1.5423 -2.8154
 3569TIP3   OH210670   5.944   1.865   4.910 -0.1719  0.0966 -0.1031
 3569TIP3    H110671   5.857   1.827   4.909  0.7047 -2.0314 -0.9786
 3569TIP3    H210672   5.936   1.944   4.856 -2.3230  2.0721  2.7827
 3570TIP3   OH210673   3.823   1.904   2.269 -0.3966 -0.4361  0.4408
 3570TIP3    H110674   3.802   1.936   2.181 -1.1078 -1.2855  0.2809
 3570TIP3    H210675   3.739   1.900   2.314 -0.4808 -2.7476  0.2016
 3571TIP3   OH210676   1.305   3.758   4.780 -0.1769 -0.2680 -1.0075
 3571TIP3    H110677   1.398   3.738   4.776  0.5055  1.9015  1.5131
 3571TIP3    H210678   1.291   3.824   4.712  0.6605  1.0497  0.0600
 3572TIP3   OH210679   4.601   2.346   2.227  0.1091 -0.7655 -0.4317
 3572TIP3    H110680   4.580   2.393   2.307 -0.8707 -1.3293 -0.3427
 3572TIP3    H210681   4.644   2.266   2.256  2.3145  0.2991 -0.6068
 3573TIP3   OH210682   4.879   3.097   2.884  0.0293 -0.1184  0.8933
 3573TIP3    H110683   4.961   3.091   2.834 -0.1201  1.8257  0.3317
 3573TIP3    H210684   4.865   3.009   2.918  2.7220 -0.3470  1.6214
 3574TIP3   OH210685   0.745   1.484   0.205  0.1400 -0.0318  0.0848
 3574TIP3    H110686   0.667   1.506   0.255  1.0695  3.1914  0.3150
 3574TIP3    H210687   0.759   1.559   0.147  1.2949 -1.9249 -2.3125
 3575TIP3   OH210688   0.453   1.298   3.890 -0.1325 -0.1930  0.1184
 3575TIP3    H110689   0.418   1.263   3.971 -2.1935  1.3590 -0.0157
 3575TIP3    H210690   0.547   1.307   3.906 -0.5496  0.4870  2.5108
 3576TIP3   OH210691   3.192   5.693   2.644  0.3528 -0.1028 -0.3781
 3576TIP3    H110692   3.235   5.608   2.652 -0.9505 -0.5897  2.5830
 3576TIP3    H210693   3.255   5.755   2.679  0.0005 -0.3646  0.7652
 3577TIP3   OH210694   5.614   1.418   0.784 -0.6083  0.5311  0.0098
 3577TIP3    H110695   5.709   1.426   0.775 -0.3704 -1.9186 -0.3448
 3577TIP3    H210696   5.578   1.473   0.714  0.6004  0.3430 -0.7767
 3578TIP3   OH210697   0.362   1.256   1.652  0.0952 -0.0830 -0.0029
 3578TIP3    H110698   0.446   1.225   1.684  0.5854  2.3180  1.2804
 3578TIP3    H210699   0.303   1.248   1.728 -1.4288 -3.3001 -1.3120
 3579TIP3   OH210700   1.741   0.910   2.851  0.5456  0.1808  0.2524
 3579TIP3    H110701   1.790   0.890   2.931 -0.3492 -2.4533  0.2152
 3579TIP3    H210702   1.699   0.828   2.826 -1.3984  1.5693 -1.4538
 3580TIP3   OH210703   7.147   6.020   0.464  0.8190  0.9109 -0.1162
 3580TIP3    H110704   7.111   6.020   0.553  0.3010 -1.3572 -0.2510
 3580TIP3    H210705   7.215   6.087   0.466  0.1475  1.6161  1.6879
 3581TIP3   OH210706   0.639   5.635   4.610  0.0738 -0.2835 -0.1318
 3581TIP3    H110707   0.701   5.669   4.675 -0.7917  0.2501  0.4428
 3581TIP3    H210708   0.608   5.713   4.563 -0.2414 -0.5315 -0.3378
 3582TIP3   OH210709   1.316   3.060   3.471 -0.8273  0.1976 -0.3192
 3582TIP3    H110710   1.334   3.148   3.503  1.2745  0.1997 -1.3117
 3582TIP3    H210711   1.277   3.015   3.545 -1.1318  1.7167  0.4812
 3583TIP3   OH210712   5.066   3.479   3.020  0.1894  0.3777  0.3159
 3583TIP3    H110713   5.101   3.568   3.020 -1.3161  0.9997 -0.3944
 3583TIP3    H210714   5.098   3.441   2.938 -1.8023  1.4100 -1.0259
 3584TIP3   OH210715   4.353   6.796   4.728  0.0465  0.3030  0.3575
 3584TIP3    H110716   4.399   6.789   4.811  0.1311 -0.3579  0.2631
 3584TIP3    H210717   4.318   6.708   4.712 -2.3195  1.0576  1.0314
 3585TIP3   OH210718   2.092   2.603   5.438  0.5456 -0.3567  0.5918
 3585TIP3    H110719   2.004   2.635   5.420  1.4330  2.1501  0.3295
 3585TIP3    H210720   2.079   2.516   5.477 -2.0568  0.3349  1.4222
 3586TIP3   OH210721   6.014   5.839   2.125 -0.7837 -0.0650  0.3413
 3586TIP3    H110722   5.938   5.821   2.069 -0.1276 -2.0150 -0.0063
 3586TIP3    H210723   5.979   5.893   2.196 -1.9825  1.0398 -1.0367
 3587TIP3   OH210724   4.039   4.759   1.644  0.0790  0.2334 -0.3455
 3587TIP3    H110725   4.014   4.691   1.707  0.0491  1.4861  1.0611
 3587TIP3    H210726   4.135   4.761   1.648  0.0349  1.2363  0.7305
 3588TIP3   OH210727   4.846   6.068   4.603  0.1037  0.5532  0.7608
 3588TIP3    H110728   4.844   6.011   4.680 -0.0191  0.4163  0.6578
 3588TIP3    H210729   4.930   6.049   4.561  1.2345  2.2729  2.0849
 3589TIP3   OH210730   4.471   3.662   2.033  0.0946  0.2043 -0.1419
 3589TIP3    H110731   4.509   3.608   2.102 -2.2727 -0.2074  0.9339
 3589TIP3    H210732   4.468   3.604   1.957  1.1456  0.1164 -0.1347
 3590TIP3   OH210733   6.029   0.126   5.740  0.1029 -1.0327 -0.1649
 3590TIP3    H110734   6.070   0.070   5.805  0.1888 -0.9916 -0.1818
 3590TIP3    H210735   6.077   0.209   5.747 -0.3262 -0.8140  0.1743
 3591TIP3   OH210736   1.726   0.622   2.877  0.3706 -0.1999 -0.0399
 3591TIP3    H110737   1.819   0.599   2.866  0.4614 -0.4645  1.1135
 3591TIP3    H210738   1.720   0.652   2.968 -0.9454 -1.5234  0.3396
 3592TIP3   OH210739   0.994   5.399   0.342  0.0537 -0.0139  0.1800
 3592TIP3    H110740   0.947   5.429   0.420  0.3102  1.5621 -0.2546
 3592TIP3    H210741   0.943   5.431   0.268  0.4071 -0.5582 -0.3143
 3593TIP3   OH210742   2.057   2.786   2.686 -0.2620  0.1738  0.4638
 3593TIP3    H110743   1.966   2.781   2.714 -1.1516 -0.5974 -2.3373
 3593TIP3    H210744   2.094   2.701   2.711 -1.4524 -1.1072 -1.8217
 3594TIP3   OH210745   6.944   2.241   2.215  0.0956  0.5408 -0.3026
 3594TIP3    H110746   6.961   2.334   2.202 -0.7706  0.5609 -1.4416
 3594TIP3    H210747   6.867   2.238   2.271  0.8026  0.4797  0.6993
 3595TIP3   OH210748   4.755   6.504   4.068  0.2874 -0.6637 -0.3159
 3595TIP3    H110749   4.671   6.465   4.046 -0.0850 -0.2988  0.4300
 3595TIP3    H210750   4.777   6.467   4.153  0.2547  0.2305  0.0848
 3596TIP3   OH210751   5.822   3.164   1.458 -0.5642  0.0200  0.2981
 3596TIP3    H110752   5.788   3.247   1.493 -1.5718 -0.0881 -0.3934
 3596TIP3    H210753   5.748   3.103   1.465  0.3814 -1.0447  1.4885
 3597TIP3   OH210754   6.694   4.380   5.863  0.3082 -0.0858 -0.2010
 3597TIP3    H110755   6.758   4.395   5.793  0.8097 -0.7275  0.1078
 3597TIP3    H210756   6.685   4.466   5.906  0.6824  0.0992 -0.4854
 3598TIP3   OH210757   0.874   2.090   5.199  0.1767 -0.5120 -0.8981
 3598TIP3    H110758   0.911   2.178   5.204 -0.3452 -0.1545 -2.6884
 3598TIP3    H210759   0.846   2.081   5.108 -0.7773 -2.1296 -0.4805
 3599TIP3   OH210760   5.484   5.313   5.741  0.3127  0.1602 -0.0924
 3599TIP3    H110761   5.457   5.255   5.670  1.9372  0.9481 -1.4201
 3599TIP3    H210762   5.484   5.257   5.819  0.4413 -1.2383 -1.0638
 3600TIP3   OH210763   1.873   6.236   2.621  0.1424 -0.8833 -0.4863
 3600TIP3    H110764   1.960   6.274   2.634 -0.0074 -0.6010 -0.3021
 3600TIP3    H210765   1.837   6.284   2.547 -0.0855 -0.5928 -0.1912
 3601TIP3   OH210766   2.867   5.238   4.121 -0.6115  0.1665  0.2404
 3601TIP3    H110767   2.878   5.319   4.071 -0.7856 -0.1941 -0.3963
 3601TIP3    H210768   2.957   5.212   4.144 -0.4906  0.0756 -0.3188
 3602TIP3   OH210769   2.636   3.238   4.130 -0.1581 -0.2791  0.0428
 3602TIP3    H110770   2.677   3.243   4.216 -1.2259  1.5782  0.4884
 3602TIP3    H210771   2.659   3.151   4.098  0.6599 -0.8329  1.9854
 3603TIP3   OH210772   4.925   6.180   5.575 -0.4939 -0.0539  0.1145
 3603TIP3    H110773   4.938   6.271   5.603 -0.1754 -0.0566 -0.0163
 3603TIP3    H210774   4.879   6.139   5.648 -1.9072  0.5579 -0.3960
 3604TIP3   OH210775   4.996   6.016   1.957  0.0914  0.3223  0.1765
 3604TIP3    H110776   4.906   6.025   1.990  0.4352 -0.3841  1.3686
 3604TIP3    H210777   5.017   6.102   1.921 -0.5580  0.9254  1.1938
 3605TIP3   OH210778   5.224   0.753   3.229  0.0788 -0.2033 -0.1029
 3605TIP3    H110779   5.165   0.754   3.303 -0.2808  3.4418 -0.2697
 3605TIP3    H210780   5.167   0.752   3.152  0.3663 -0.5147 -0.3190
 3606TIP3   OH210781   0.523   6.547   1.424 -0.2221 -0.1410  0.2295
 3606TIP3    H110782   0.595   6.532   1.485 -1.2775 -0.2439  1.5215
 3606TIP3    H210783   0.447   6.509   1.469 -1.6695  2.7125  0.4005
 3607TIP3   OH210784   5.995   0.432   2.292  0.0633 -0.0896  0.3058
 3607TIP3    H110785   5.919   0.472   2.335  0.7142 -0.1278  1.5392
 3607TIP3    H210786   5.965   0.415   2.202 -1.5571 -0.5938  0.8954
 3608TIP3   OH210787   6.082   4.785   4.177 -0.3502  0.2461  0.0690
 3608TIP3    H110788   6.011   4.721   4.171 -1.5485  1.6289 -2.0388
 3608TIP3    H210789   6.057   4.842   4.250  0.2519 -1.0652  1.3528
 3609TIP3   OH210790   6.591   2.066   2.707 -0.1155  0.2011  0.1231
 3609TIP3    H110791   6.556   2.006   2.642  0.0503  1.1117 -0.8381
 3609TIP3    H210792   6.632   2.010   2.773 -0.4364 -0.7415 -0.4672
 3610TIP3   OH210793   4.006   4.412   0.372 -0.5642 -0.5380  0.1120
 3610TIP3    H110794   3.924   4.406   0.421 -1.2657 -1.1787 -1.0741
 3610TIP3    H210795   4.053   4.485   0.411 -0.7875 -1.4312  2.1460
 3611TIP3   OH210796   6.761   4.662   1.299 -0.4963 -0.4089 -0.1424
 3611TIP3    H110797   6.811   4.612   1.363 -0.3427  0.6370  0.5897
 3611TIP3    H210798   6.827   4.716   1.255 -0.7041 -0.5684 -0.6571
 3612TIP3   OH210799   0.298   2.113   0.795 -0.0707  0.0535 -0.4736
 3612TIP3    H110800   0.214   2.156   0.812  0.0266  0.2957 -0.5878
 3612TIP3    H210801   0.325   2.148   0.710 -0.4001 -0.8962 -0.9814
 3613TIP3   OH210802   4.975   5.335   1.352  0.4964  0.3521  0.4262
 3613TIP3    H110803   4.884   5.357   1.370 -0.3093 -2.2171 -0.1790
 3613TIP3    H210804   4.987   5.247   1.388  1.8097 -0.6345 -2.1537
 3614TIP3   OH210805   4.282   5.078   2.475 -0.2827 -0.7625  0.3618
 3614TIP3    H110806   4.256   4.989   2.497  1.0602 -1.4538 -0.7157
 3614TIP3    H210807   4.199   5.125   2.464 -1.0540 -2.2750 -0.5878
 3615TIP3   OH210808   2.528   6.625   0.893  0.1554  0.1905 -0.5454
 3615TIP3    H110809   2.536   6.643   0.800 -0.6143  0.2530 -0.6027
 3615TIP3    H210810   2.435   6.640   0.913 -0.6435 -3.6307 -0.5923
 3616TIP3   OH210811   5.337   5.468   4.326  0.0187 -0.2157 -0.3394
 3616TIP3    H110812   5.373   5.482   4.239  0.0603  0.6504 -0.1914
 3616TIP3    H210813   5.330   5.556   4.364 -1.4559 -0.4400 -0.0519
 3617TIP3   OH210814   2.213   3.609   1.797  0.1088  0.2007 -0.1822
 3617TIP3    H110815   2.230   3.523   1.759 -2.3836 -0.1114 -0.7485
 3617TIP3    H210816   2.159   3.591   1.874  0.3765  1.2096  0.2571
 3618TIP3   OH210817   5.749   3.811   2.421  0.1224 -0.7161  0.4944
 3618TIP3    H110818   5.753   3.745   2.352 -0.5752  1.1677 -1.4731
 3618TIP3    H210819   5.682   3.779   2.481  1.8239 -3.1617  1.2287
 3619TIP3   OH210820   3.607   1.760   2.681 -0.0739  0.1965 -0.5085
 3619TIP3    H110821   3.611   1.686   2.619  0.8962  0.6915 -1.0603
 3619TIP3    H210822   3.684   1.749   2.735 -0.0477  0.6910 -0.4479
 3620TIP3   OH210823   2.902   4.153   4.667 -0.0168 -0.3192  0.2570
 3620TIP3    H110824   2.917   4.244   4.641 -2.3833 -0.5033 -2.2366
 3620TIP3    H210825   2.847   4.159   4.746 -0.4633  0.4484 -0.0984
 3621TIP3   OH210826   0.747   3.277   3.773 -0.1025  0.6702 -0.1259
 3621TIP3    H110827   0.684   3.206   3.764  0.4373 -0.1490  1.8893
 3621TIP3    H210828   0.700   3.345   3.821 -0.0187  0.8697 -0.3222
 3622TIP3   OH210829   6.303   0.683   4.997  0.0089 -0.0322 -0.3672
 3622TIP3    H110830   6.346   0.693   4.911  3.2964  0.1910  1.1582
 3622TIP3    H210831   6.314   0.591   5.019  0.4737  0.2070  0.4240
 3623TIP3   OH210832   2.191   4.902   1.281  0.0974 -0.0605 -0.5574
 3623TIP3    H110833   2.237   4.980   1.312 -1.6413  0.8103 -0.0596
 3623TIP3    H210834   2.155   4.927   1.196 -0.4552 -0.3309 -0.4025
 3624TIP3   OH210835   5.850   3.836   2.019 -0.0015  0.0238  0.3995
 3624TIP3    H110836   5.935   3.792   2.025 -0.0099 -0.2108 -1.0104
 3624TIP3    H210837   5.827   3.854   2.110  1.6339  0.2562  0.8003
 3625TIP3   OH210838   2.622   2.514   3.074  0.3763  0.3092  0.0499
 3625TIP3    H110839   2.545   2.543   3.024 -0.2726 -1.9475 -0.3662
 3625TIP3    H210840   2.647   2.591   3.125 -1.8322  1.2952 -0.2074
 3626TIP3   OH210841   2.005   0.672   3.832  0.4142 -0.4893  0.2301
 3626TIP3    H110842   1.966   0.755   3.858 -1.1908 -0.2619 -2.4833
 3626TIP3    H210843   2.098   0.691   3.823  0.0644  1.0782 -0.4170
 3627TIP3   OH210844   4.092   1.682   2.250 -0.3219  0.3490 -0.7359
 3627TIP3    H110845   4.185   1.663   2.266 -0.1867  2.3082  1.4443
 3627TIP3    H210846   4.050   1.596   2.243  1.3115 -0.6375  0.6940
 3628TIP3   OH210847   0.702   0.976   0.050  0.0747  0.4398 -0.2863
 3628TIP3    H110848   0.751   1.030   0.112  1.0035 -0.2909 -0.3547
 3628TIP3    H210849   0.754   0.980  -0.031  0.1004 -0.4374 -0.3262
 3629TIP3   OH210850   7.138   3.251   0.471 -0.1805 -0.2548  0.1033
 3629TIP3    H110851   7.207   3.191   0.498 -0.8548 -2.7346 -3.0876
 3629TIP3    H210852   7.066   3.232   0.532  1.1523  0.9627  2.2015
 3630TIP3   OH210853   0.082   5.718   1.644 -0.0800  0.2374  0.0373
 3630TIP3    H110854   0.165   5.715   1.597  0.4126 -0.7590  0.9372
 3630TIP3    H210855   0.016   5.719   1.575  0.6391 -0.4024 -0.6824
 3631TIP3   OH210856   6.558   5.306   3.301  0.7259  0.0562  0.7472
 3631TIP3    H110857   6.490   5.245   3.272  0.3350  1.0457 -0.5140
 3631TIP3    H210858   6.514   5.391   3.304  1.5013  0.4444  1.5627
 3632TIP3   OH210859   6.132   5.234   5.873 -0.1797  0.1786 -0.5701
 3632TIP3    H110860   6.058   5.175   5.886 -1.2176  1.2496 -1.4111
 3632TIP3    H210861   6.093   5.321   5.867  1.2853  0.9377  0.2981
 3633TIP3   OH210862   4.636   2.946   4.255  0.0603  0.4312 -0.2162
 3633TIP3    H110863   4.721   2.965   4.294  1.3846 -1.8683 -1.8003
 3633TIP3    H210864   4.605   3.031   4.224  0.3229  1.8527  2.9357
 3634TIP3   OH210865   4.766   4.158   2.848 -0.2810 -0.0395 -0.0494
 3634TIP3    H110866   4.739   4.084   2.794 -1.5474 -0.1800  0.7267
 3634TIP3    H210867   4.804   4.220   2.786  0.0996 -0.9987 -0.8191
 3635TIP3   OH210868   4.018   0.706   3.799  0.0695 -0.3180 -0.4021
 3635TIP3    H110869   3.968   0.646   3.854  1.6037 -1.2345  0.0644
 3635TIP3    H210870   4.063   0.763   3.861  0.5643 -0.3240 -0.7452
 3636TIP3   OH210871   4.544   2.073   4.124 -0.5217 -0.2684 -0.0484
 3636TIP3    H110872   4.621   2.131   4.123 -0.2817 -0.5909 -0.6096
 3636TIP3    H210873   4.533   2.046   4.033 -0.3544 -1.4749  0.2790
 3637TIP3   OH210874   5.826   0.604   3.645  0.2843 -0.0035  0.3313
 3637TIP3    H110875   5.801   0.520   3.683 -1.3579 -0.4315 -1.5576
 3637TIP3    H210876   5.866   0.582   3.561  0.1134  1.0909 -0.0504
 3638TIP3   OH210877   1.242   6.746   4.908 -0.0717 -0.1758 -0.3499
 3638TIP3    H110878   1.223   6.701   4.990 -1.8455 -0.3306 -0.8053
 3638TIP3    H210879   1.226   6.839   4.928 -1.7083 -0.3323 -0.8027
 3639TIP3   OH210880   4.770   2.735   2.321  0.1641  0.0238  0.4201
 3639TIP3    H110881   4.828   2.688   2.380 -1.1220 -1.7189  0.3576
 3639TIP3    H210882   4.682   2.722   2.358 -0.8242 -1.9981 -2.3546
 3640TIP3   OH210883   2.182   4.930   3.677 -0.5589 -0.2229 -0.0188
 3640TIP3    H110884   2.157   5.018   3.706  1.5652  0.9107 -1.3563
 3640TIP3    H210885   2.148   4.924   3.588 -0.2997 -0.5681 -0.0953
 3641TIP3   OH210886   4.862   4.109   3.523 -0.0641  0.2298 -0.0276
 3641TIP3    H110887   4.941   4.072   3.561 -0.7288 -2.3750 -0.9718
 3641TIP3    H210888   4.794   4.092   3.588 -0.5721 -1.2621 -0.8984
 3642TIP3   OH210889   3.166   2.327   5.486  0.1906 -0.3684 -0.1345
 3642TIP3    H110890   3.139   2.317   5.395 -0.8716 -1.6052  0.2916
 3642TIP3    H210891   3.169   2.422   5.500  0.0070 -0.1728 -1.3363
 3643TIP3   OH210892   0.706   4.751   4.380  0.1878 -0.1244  0.5888
 3643TIP3    H110893   0.704   4.697   4.459  0.4406 -1.0490 -0.0281
 3643TIP3    H210894   0.616   4.749   4.347  0.1280  0.0942  0.7348
 3644TIP3   OH210895   0.120   0.572   0.436 -0.2691 -0.6675 -0.0634
 3644TIP3    H110896   0.112   0.506   0.367  1.8304  0.8879 -1.9255
 3644TIP3    H210897   0.177   0.532   0.502 -0.1287 -1.2189 -0.5157
 3645TIP3   OH210898   3.691   4.040   2.409 -0.3511 -0.1692 -0.2111
 3645TIP3    H110899   3.709   3.964   2.465  1.3435 -0.6412 -1.3197
 3645TIP3    H210900   3.651   4.104   2.467  1.6467 -0.5006  1.6578
 3646TIP3   OH210901   1.324   3.055   4.463 -0.5131 -0.2183  0.1789
 3646TIP3    H110902   1.391   2.993   4.436  0.0150 -0.3677  1.6945
 3646TIP3    H210903   1.336   3.062   4.558 -0.8959  1.7963  0.1253
 3647TIP3   OH210904   1.718   0.729   1.914 -0.1271 -0.0623  0.2233
 3647TIP3    H110905   1.646   0.667   1.909  0.5165 -0.8326  0.4283
 3647TIP3    H210906   1.796   0.679   1.890  0.7200  0.0960  2.3466
 3648TIP3   OH210907   3.661   4.142   0.514 -0.2210 -0.1569  0.4297
 3648TIP3    H110908   3.603   4.116   0.442 -1.2875 -0.3562  1.3330
 3648TIP3    H210909   3.741   4.092   0.499  0.1283  0.8301 -1.3762
 3649TIP3   OH210910   1.713   2.501   5.570 -0.1424 -1.2587  0.4707
 3649TIP3    H110911   1.685   2.559   5.640 -0.2604 -1.5321  0.6508
 3649TIP3    H210912   1.720   2.558   5.493  1.2372 -0.6854  0.9801
 3650TIP3   OH210913   3.640   2.012   1.339 -0.1188 -0.3945 -0.2360
 3650TIP3    H110914   3.578   1.976   1.275 -0.4515  1.3489 -0.9749
 3650TIP3    H210915   3.621   2.106   1.339  0.7777 -0.1809  1.4790
 3651TIP3   OH210916   0.363   0.594   0.990  0.8038  0.6267 -0.1239
 3651TIP3    H110917   0.425   0.523   0.972  0.9127  0.4188  0.9609
 3651TIP3    H210918   0.311   0.562   1.064 -1.2562  0.3981 -1.5672
 3652TIP3   OH210919   2.496   2.460   2.085 -0.4417 -0.4577  0.3787
 3652TIP3    H110920   2.562   2.395   2.063 -1.5736 -1.4231 -0.2920
 3652TIP3    H210921   2.505   2.472   2.180  0.5605 -0.6979  0.3208
 3653TIP3   OH210922   3.096   3.459   0.859 -0.1363  0.1857  0.0163
 3653TIP3    H110923   3.013   3.473   0.815 -0.6144 -1.5862  0.2598
 3653TIP3    H210924   3.072   3.421   0.944  0.8690  1.1411  0.7666
 3654TIP3   OH210925   5.877   3.391   5.713  0.6771  0.3422  0.1869
 3654TIP3    H110926   5.815   3.399   5.641  0.7888  0.0317  0.0542
 3654TIP3    H210927   5.941   3.326   5.682 -0.2282 -1.0980  1.2456
 3655TIP3   OH210928   6.397   1.406   2.170  0.0305 -0.9859 -0.2766
 3655TIP3    H110929   6.425   1.378   2.083  0.8457  1.3362 -0.8308
 3655TIP3    H210930   6.312   1.449   2.155  0.8944  0.8053 -0.2256
 3656TIP3   OH210931   6.941   1.038   3.809 -0.0776 -0.0826 -0.3427
 3656TIP3    H110932   6.938   0.946   3.782  2.1991 -0.7445  1.3217
 3656TIP3    H210933   6.981   1.084   3.735  0.2438 -0.7214 -0.5727
 3657TIP3   OH210934   4.933   3.677   1.297 -0.0186 -0.3763  0.1835
 3657TIP3    H110935   4.901   3.759   1.259 -0.1412 -0.5490 -0.0830
 3657TIP3    H210936   4.854   3.634   1.330  0.1214 -0.0754  0.9344
 3658TIP3   OH210937   2.420   2.426   2.396  0.0237 -0.5620 -0.6988
 3658TIP3    H110938   2.329   2.457   2.394  0.1306 -0.2638 -1.0838
 3658TIP3    H210939   2.412   2.330   2.392 -0.2862 -0.5605 -0.2066
 3659TIP3   OH210940   4.840   6.390   2.420 -0.6786  0.5969 -0.0528
 3659TIP3    H110941   4.936   6.389   2.419 -0.6553 -0.4413  1.1045
 3659TIP3    H210942   4.815   6.356   2.334 -0.0269  1.4326 -0.5941
 3660TIP3   OH210943   4.997   5.622   1.414 -0.0798  0.0371 -0.0845
 3660TIP3    H110944   4.995   5.526   1.414  1.1466  0.0037  0.1396
 3660TIP3    H210945   5.025   5.645   1.326  0.0441  0.1755 -0.0089
 3661TIP3   OH210946   3.887   1.145   0.499 -0.1084  0.2562  0.5219
 3661TIP3    H110947   3.832   1.095   0.559  0.6334 -0.5341  0.5635
 3661TIP3    H210948   3.854   1.124   0.412 -0.3224  0.3516  0.5786
 3662TIP3   OH210949   0.623   2.104   0.487  0.4044  0.5855 -0.2177
 3662TIP3    H110950   0.606   2.074   0.577  2.0493  2.3095  0.7404
 3662TIP3    H210951   0.598   2.030   0.432 -1.4882 -0.1935  1.5883
 3663TIP3   OH210952   7.013   1.221   3.609  0.1265  0.1497  0.0385
 3663TIP3    H110953   6.975   1.280   3.545  0.5824 -0.2674 -0.6316
 3663TIP3    H210954   7.078   1.170   3.560  0.5920 -0.0778  0.8579
 3664TIP3   OH210955   5.172   5.949   3.052  0.3103 -0.3203  0.2002
 3664TIP3    H110956   5.266   5.936   3.046  0.2745 -0.7302  0.4983
 3664TIP3    H210957   5.158   6.039   3.022  0.7357 -0.4359 -0.3635
 3665TIP3   OH210958   7.018   2.965   1.710 -0.5364 -0.2899  0.1081
 3665TIP3    H110959   7.045   2.942   1.621  2.0073 -0.2219  0.7814
 3665TIP3    H210960   6.927   2.992   1.701 -0.3308 -0.1820 -2.4984
 3666TIP3   OH210961   4.769   1.257   3.948  0.1335  0.8249 -0.3651
 3666TIP3    H110962   4.674   1.243   3.949 -0.0599  1.9681 -0.8704
 3666TIP3    H210963   4.780   1.346   3.982  1.0719  0.5071  0.2073
 3667TIP3   OH210964   6.295   1.549   3.679 -0.3042  0.7910  0.1700
 3667TIP3    H110965   6.205   1.514   3.680 -0.1908 -0.0040 -3.3779
 3667TIP3    H210966   6.289   1.629   3.627  0.9235  1.2682  0.7259
 3668TIP3   OH210967   1.696   6.107   1.388  0.6741  0.4900  0.2241
 3668TIP3    H110968   1.734   6.182   1.434  0.7149  1.1846 -0.8761
 3668TIP3    H210969   1.608   6.100   1.423  0.6566  1.0900  0.3214
 3669TIP3   OH210970   1.299   3.476   5.638  0.0224 -0.2367  0.5860
 3669TIP3    H110971   1.283   3.519   5.723  2.7442  1.7506  0.2668
 3669TIP3    H210972   1.353   3.540   5.590  0.3541 -2.1964 -1.8124
 3670TIP3   OH210973   4.679   6.332   5.443 -0.6421 -0.3623  0.1778
 3670TIP3    H110974   4.695   6.382   5.523 -1.1169 -1.0885  0.7350
 3670TIP3    H210975   4.735   6.255   5.451  0.5946  0.3562 -0.9789
 3671TIP3   OH210976   5.515   0.360   2.421  0.0946 -0.0143  0.0254
 3671TIP3    H110977   5.472   0.446   2.424 -0.3453 -0.2555  0.8480
 3671TIP3    H210978   5.458   0.303   2.473  0.4797 -0.7656 -0.3585
 3672TIP3   OH210979   1.840   2.507   5.218  0.3276  0.1641 -0.4109
 3672TIP3    H110980   1.924   2.553   5.205  0.6938 -0.5126 -0.4890
 3672TIP3    H210981   1.855   2.420   5.181 -0.4548  0.0760 -0.5232
 3673TIP3   OH210982   4.017   0.910   3.342  0.1075  0.1224  0.8456
 3673TIP3    H110983   3.941   0.893   3.397 -0.7155  0.2066 -0.2351
 3673TIP3    H210984   4.033   1.004   3.351 -1.1028  0.4761 -0.3603
 3674TIP3   OH210985   6.100   6.474   4.727  1.0284  0.2735 -0.0701
 3674TIP3    H110986   6.126   6.550   4.781 -0.1490  1.4679 -1.1079
 3674TIP3    H210987   6.135   6.493   4.640  0.5980 -0.3125 -0.3786
 3675TIP3   OH210988   0.068   3.033   1.928  0.4021  0.2551  0.5806
 3675TIP3    H110989   0.093   3.083   1.850 -0.8040  0.9812  0.6279
 3675TIP3    H210990   0.012   3.093   1.978  1.0016 -0.2717  1.9201
 3676TIP3   OH210991   5.673   1.574   3.895 -0.1188  0.3204  0.5905
 3676TIP3    H110992   5.594   1.549   3.944 -1.1994 -1.0548 -1.7146
 3676TIP3    H210993   5.743   1.524   3.936 -0.8358 -0.1544  1.2622
 3677TIP3   OH210994   1.039   5.900   0.227 -0.4346 -0.1698 -0.6193
 3677TIP3    H110995   1.072   5.822   0.182  0.4816  0.4402 -1.0208
 3677TIP3    H210996   1.021   5.870   0.316  0.5153 -0.7066 -0.5944
 3678TIP3   OH210997   1.169   4.971   2.950 -0.3430 -0.1024  1.1562
 3678TIP3    H110998   1.219   4.935   3.022  1.2635 -0.1775  0.0620
 3678TIP3    H210999   1.113   5.038   2.990 -0.3320 -0.9207  2.5972
 3679TIP3   OH211000   3.752   1.216   5.260 -0.3398 -0.1234  0.0825
 3679TIP3    H111001   3.669   1.263   5.256 -0.4701 -0.3454  0.1742
 3679TIP3    H211002   3.774   1.200   5.168  0.0606  0.7335  0.0190
 3680TIP3   OH211003   0.541   1.623   3.631  0.1529 -0.1881 -0.9290
 3680TIP3    H111004   0.526   1.684   3.559 -0.0482  0.8162 -0.0528
 3680TIP3    H211005   0.460   1.623   3.680  0.0013 -1.4967 -1.1363
 3681TIP3   OH211006   0.026   4.150   2.963 -0.2969 -0.2254  0.3770
 3681TIP3    H111007   0.057   4.159   2.873  0.0677  0.6235  0.5803
 3681TIP3    H211008   0.022   4.055   2.977  1.4613 -0.3696  0.0835
 3682TIP3   OH211009   0.531   0.528   1.866  0.2607 -0.3819 -0.4895
 3682TIP3    H111010   0.466   0.458   1.875 -0.0212  0.0268  0.7401
 3682TIP3    H211011   0.615   0.483   1.871  0.1206 -0.4961  2.1102
 3683TIP3   OH211012   3.322   4.108   3.941  0.3441  0.2803  0.3773
 3683TIP3    H111013   3.247   4.068   3.986  0.3318 -0.8273 -0.5755
 3683TIP3    H211014   3.310   4.202   3.953 -1.2137  0.1291  0.2474
 3684TIP3   OH211015   2.750   2.868   5.485 -0.0929 -0.4908 -0.4846
 3684TIP3    H111016   2.657   2.845   5.475 -0.1793  0.0063 -0.8519
 3684TIP3    H211017   2.750   2.961   5.509  0.3352 -0.2989 -1.2027
 3685TIP3   OH211018   0.083   4.009   0.607 -0.5639  0.2904  0.0734
 3685TIP3    H111019   0.110   3.927   0.650  0.5281  0.2168 -0.7067
 3685TIP3    H211020   0.029   3.980   0.533 -0.4639  0.2791  0.0032
 3686TIP3   OH211021   6.591   1.985   3.419 -0.4053  0.5425 -0.4006
 3686TIP3    H111022   6.597   2.073   3.380 -1.0854  0.8718  0.2213
 3686TIP3    H211023   6.514   1.946   3.377 -0.4118  0.4383 -0.2900
 3687TIP3   OH211024   0.059   0.150   0.488 -0.7280 -0.7261 -0.1622
 3687TIP3    H111025   0.021   0.069   0.521  0.9625 -1.9652 -1.0713
 3687TIP3    H211026   0.024   0.219   0.544 -0.9659 -2.2732  1.6700
 3688TIP3   OH211027   6.046   4.745   2.219 -0.2975 -0.5378 -0.1855
 3688TIP3    H111028   6.017   4.657   2.195  0.1583 -0.7217 -0.0792
 3688TIP3    H211029   6.093   4.733   2.301  0.0912 -0.2509 -0.3628
 3689TIP3   OH211030   0.372   5.219   4.182 -0.1685  0.0969 -0.3073
 3689TIP3    H111031   0.461   5.185   4.192 -0.2175  0.5279  2.3621
 3689TIP3    H211032   0.316   5.149   4.214 -0.6174  0.5875  0.0060
 3690TIP3   OH211033   5.347   4.448   2.088  0.2898 -0.3176 -0.5214
 3690TIP3    H111034   5.366   4.364   2.130 -1.1228 -0.4085  0.0066
 3690TIP3    H211035   5.360   4.433   1.995 -0.1853 -1.1957 -0.4488
 3691TIP3   OH211036   0.670   5.311   4.763  0.2721  0.1987 -0.0989
 3691TIP3    H111037   0.654   5.297   4.669  0.1618  1.5296 -0.2980
 3691TIP3    H211038   0.755   5.268   4.779  0.8357  0.9158 -1.0686
 3692TIP3   OH211039   3.354   0.631   2.677  0.7159  0.3283  0.8067
 3692TIP3    H111040   3.322   0.692   2.609 -1.4930 -0.4220  1.1029
 3692TIP3    H211041   3.339   0.678   2.759 -2.6746 -1.1384  1.1841
 3693TIP3   OH211042   4.869   2.966   0.768 -0.1338 -0.4517  0.1291
 3693TIP3    H111043   4.842   3.025   0.697  0.0323  0.2918  0.6782
 3693TIP3    H211044   4.803   2.978   0.836  0.8389  0.4290  0.9615
 3694TIP3   OH211045   0.016   0.596   1.946  0.1647 -0.1036 -0.6416
 3694TIP3    H111046   0.033   0.531   2.013  0.3273 -0.5392 -1.1005
 3694TIP3    H211047   0.086   0.584   1.882  0.1714  0.4903 -0.7557
 3695TIP3   OH211048   4.257   4.148   5.884  0.1130 -0.5321 -0.3044
 3695TIP3    H111049   4.278   4.076   5.944  0.4884  1.0148  1.5107
 3695TIP3    H211050   4.170   4.126   5.850 -0.2196 -1.3579  0.9897
 3696TIP3   OH211051   1.615   2.155   3.901  0.3719  0.2539  0.2926
 3696TIP3    H111052   1.580   2.244   3.897  1.9642  0.9665  0.9904
 3696TIP3    H211053   1.690   2.162   3.961  1.4289 -1.2483 -0.7711
 3697TIP3   OH211054   7.036   3.428   0.908  0.0580  0.5067 -0.3382
 3697TIP3    H111055   7.115   3.481   0.922  0.5962  0.1051 -1.7221
 3697TIP3    H211056   7.025   3.381   0.991  0.2458  1.8740  0.4989
 3698TIP3   OH211057   2.180   2.829   3.668 -0.1910  0.2364 -0.3011
 3698TIP3    H111058   2.122   2.826   3.591 -1.8541  2.3019  0.7683
 3698TIP3    H211059   2.248   2.765   3.649 -1.8538 -1.0404 -2.4419
 3699TIP3   OH211060   6.958   2.136   4.711 -0.0255 -0.0124 -0.0501
 3699TIP3    H111061   7.039   2.184   4.725 -0.1647  0.3438 -0.4193
 3699TIP3    H211062   6.921   2.174   4.631 -1.0395  0.5078  0.6357
 3700TIP3   OH211063   5.839   2.822   2.883  0.1980 -0.0738  0.0999
 3700TIP3    H111064   5.836   2.819   2.788 -2.0915 -0.5064  0.1184
 3700TIP3    H211065   5.872   2.737   2.909  2.2876  0.5751 -0.2893
 3701TIP3   OH211066   5.616   4.834   3.722 -0.1472 -0.2283  0.4654
 3701TIP3    H111067   5.650   4.809   3.636 -0.7203  1.3119 -0.2341
 3701TIP3    H211068   5.626   4.755   3.775  0.6859 -1.0554 -0.8645
 3702TIP3   OH211069   2.211   1.771   3.282  0.3408 -0.1111 -0.5546
 3702TIP3    H111070   2.303   1.775   3.311  0.0073 -0.0009  0.5524
 3702TIP3    H211071   2.189   1.678   3.286  0.5649 -0.2111 -1.3997
 3703TIP3   OH211072   1.276   3.490   4.606 -0.6289 -0.0297  0.3638
 3703TIP3    H111073   1.294   3.491   4.700  1.4215  2.7168  0.0575
 3703TIP3    H211074   1.346   3.436   4.569 -0.1228  0.6877  0.2521
 3704TIP3   OH211075   5.660   6.256   4.383 -0.3716  0.2537 -0.0727
 3704TIP3    H111076   5.574   6.236   4.346  0.3510  0.0003 -1.7128
 3704TIP3    H211077   5.667   6.351   4.379 -1.5766  0.5621  2.5544
 3705TIP3   OH211078   4.296   5.975   1.761 -0.4933  0.2117  0.0406
 3705TIP3    H111079   4.220   6.031   1.745 -0.3475  0.0915 -1.1971
 3705TIP3    H211080   4.370   6.036   1.766 -0.6354  0.3107  1.0232
 3706TIP3   OH211081   1.826   4.894   4.479 -0.3583 -0.0978  0.2788
 3706TIP3    H111082   1.761   4.849   4.424  0.1879  0.1252 -0.5768
 3706TIP3    H211083   1.807   4.864   4.568 -0.7247 -1.1374 -0.1292
 3707TIP3   OH211084   0.347   6.528   5.361  0.2288 -0.0028  0.1196
 3707TIP3    H111085   0.303   6.559   5.282  1.5696  1.3789 -0.1214
 3707TIP3    H211086   0.312   6.583   5.431  0.7432  0.3331  0.1114
 3708TIP3   OH211087   1.676   2.004   2.156 -0.2322  0.0613  0.4061
 3708TIP3    H111088   1.608   1.937   2.158  0.8062 -0.9996  2.3432
 3708TIP3    H211089   1.719   1.992   2.071  0.0394 -1.8625  0.7694
 3709TIP3   OH211090   4.218   3.723   4.995  0.3625 -0.0789  0.4625
 3709TIP3    H111091   4.141   3.679   4.960  0.4713 -0.5599  0.8207
 3709TIP3    H211092   4.192   3.751   5.083 -0.0829  1.5787 -0.1567
 3710TIP3   OH211093   5.891   1.165   4.844  0.2755 -0.9108 -0.0197
 3710TIP3    H111094   5.844   1.218   4.908 -0.4008 -2.4071  0.7783
 3710TIP3    H211095   5.877   1.209   4.760 -2.5301 -1.2419  0.1878
 3711TIP3   OH211096   1.187   1.649   3.088 -0.1867  0.9930 -0.6365
 3711TIP3    H111097   1.179   1.648   2.993 -0.4724  0.3113 -0.6097
 3711TIP3    H211098   1.162   1.738   3.113 -0.6905  1.0010 -1.1527
 3712TIP3   OH211099   3.489   1.292   1.120 -0.6758 -0.3374 -0.6420
 3712TIP3    H111100   3.411   1.347   1.118  0.2387  0.9606 -1.7176
 3712TIP3    H211101   3.502   1.266   1.029  0.5097 -0.0143 -0.5720
 3713TIP3   OH211102   4.192   5.623   5.284 -0.0270 -0.7763 -0.1973
 3713TIP3    H111103   4.170   5.603   5.193 -1.8325  0.7201 -0.1621
 3713TIP3    H211104   4.285   5.603   5.292 -0.0025 -1.6225 -2.1624
 3714TIP3   OH211105   4.210   2.201   5.194 -0.0421 -0.4004 -0.1322
 3714TIP3    H111106   4.213   2.142   5.119  1.0109 -1.4677  0.6879
 3714TIP3    H211107   4.240   2.147   5.267 -1.4334  0.4754  1.1527
 3715TIP3   OH211108   1.681   3.686   5.723  0.5876  0.6298 -0.5611
 3715TIP3    H111109   1.708   3.594   5.723 -1.9451 -0.2064  0.5716
 3715TIP3    H211110   1.737   3.727   5.788 -0.2217 -0.8357  1.1392
 3716TIP3   OH211111   6.443   6.658   2.099 -0.1923 -0.5362 -0.2348
 3716TIP3    H111112   6.488   6.603   2.035 -0.1676  0.7791 -1.3929
 3716TIP3    H211113   6.373   6.700   2.049 -1.0795 -0.5463  0.9414
 3717TIP3   OH211114   1.087   6.075   0.525 -0.0958  0.1959 -0.4165
 3717TIP3    H111115   1.085   5.985   0.493  0.4340 -0.3953  1.1282
 3717TIP3    H211116   1.064   6.068   0.618  2.0134  1.3777  0.2553
 3718TIP3   OH211117   6.499   4.861   4.173  0.5684  0.4488 -0.3703
 3718TIP3    H111118   6.434   4.931   4.181  1.0742  1.0551 -1.4598
 3718TIP3    H211119   6.451   4.788   4.133  0.1725  0.3415  0.2869
 3719TIP3   OH211120   6.310   5.586   4.168 -0.1598 -0.3001 -0.0142
 3719TIP3    H111121   6.392   5.585   4.217 -1.7160  1.6283  2.9475
 3719TIP3    H211122   6.250   5.533   4.221 -1.5069  0.4852 -0.6932
 3720TIP3   OH211123   3.047   6.048   1.575 -0.0626 -0.4521  0.1206
 3720TIP3    H111124   3.093   6.125   1.540 -2.2613  1.2131  0.6412
 3720TIP3    H211125   3.001   6.012   1.499 -0.8148  0.1361  0.2805
 3721TIP3   OH211126   6.202   5.855   1.943  0.0485  0.6711 -0.3839
 3721TIP3    H111127   6.134   5.834   2.007  1.4818 -0.1108  0.9562
 3721TIP3    H211128   6.156   5.854   1.858 -1.0761 -3.0407  0.0495
 3722TIP3   OH211129   5.537   5.729   1.705 -0.4624  0.9467 -0.2333
 3722TIP3    H111130   5.496   5.800   1.754 -0.9278 -0.0075  0.7941
 3722TIP3    H211131   5.614   5.705   1.757 -1.6052 -0.8658  0.7062
 3723TIP3   OH211132   1.264   3.344   1.416 -0.0821 -0.2643  0.7891
 3723TIP3    H111133   1.173   3.327   1.393  0.2959 -0.6037 -0.5428
 3723TIP3    H211134   1.265   3.436   1.442 -0.6929 -0.0579  0.1406
 3724TIP3   OH211135   2.316   5.926   5.501 -0.8322 -0.2230 -0.0029
 3724TIP3    H111136   2.245   5.903   5.561 -1.9133  0.2957 -1.0319
 3724TIP3    H211137   2.372   5.848   5.499 -1.3045 -0.6027  0.9171
 3725TIP3   OH211138   4.674   4.766   3.916 -0.1438  0.1455 -0.6404
 3725TIP3    H111139   4.757   4.799   3.881 -0.1164  1.6003  0.6620
 3725TIP3    H211140   4.624   4.739   3.839  1.7064 -1.2681 -1.4272
 3726TIP3   OH211141   2.450   1.780   5.174  0.3655  0.1101  0.1794
 3726TIP3    H111142   2.370   1.785   5.121  0.3945  0.5350  0.1673
 3726TIP3    H211143   2.459   1.868   5.210  1.6369  0.4808 -0.9829
 3727TIP3   OH211144   6.835   6.108   2.715  0.4343  0.1648 -0.4687
 3727TIP3    H111145   6.854   6.061   2.796 -1.9736 -1.4330 -0.7237
 3727TIP3    H211146   6.810   6.040   2.653  0.8946  1.4702 -2.1838
 3728TIP3   OH211147   4.904   5.533   2.686 -0.5923  0.4859 -0.2791
 3728TIP3    H111148   4.935   5.478   2.757 -2.3591  0.6667  0.6968
 3728TIP3    H211149   4.947   5.499   2.608  0.5200 -0.4432  0.7116
 3729TIP3   OH211150   6.541   4.811   4.688  0.4270 -0.3133  0.7650
 3729TIP3    H111151   6.488   4.879   4.730 -0.0364  0.9560 -1.6476
 3729TIP3    H211152   6.622   4.856   4.664 -0.0406 -0.4315 -1.2123
 3730TIP3   OH211153   3.653   3.968   1.539  0.2579 -0.0142  0.6092
 3730TIP3    H111154   3.639   3.909   1.465  0.9964 -0.8759  1.1262
 3730TIP3    H211155   3.622   4.053   1.509 -1.8980 -0.8726  0.2293
 3731TIP3   OH211156   1.504   5.865   1.545 -0.2821  0.0483 -0.0770
 3731TIP3    H111157   1.498   5.950   1.502 -0.5985  0.3086  0.4749
 3731TIP3    H211158   1.597   5.853   1.561  0.1167 -0.9529 -2.6023
 3732TIP3   OH211159   4.707   2.782   3.142  0.0021  0.0660 -0.0167
 3732TIP3    H111160   4.679   2.709   3.198 -0.3490  1.2385  1.3898
 3732TIP3    H211161   4.646   2.781   3.069 -0.2825 -0.7588  0.2203
 3733TIP3   OH211162   6.701   5.727   3.348 -0.0311 -0.2867  0.0951
 3733TIP3    H111163   6.641   5.667   3.303  2.7046 -3.1065 -0.0924
 3733TIP3    H211164   6.765   5.750   3.281  1.8213 -1.3030  1.4417
 3734TIP3   OH211165   3.736   6.746   2.810 -0.0014  0.4463 -0.1268
 3734TIP3    H111166   3.641   6.750   2.794 -0.0944  1.2672  0.5322
 3734TIP3    H211167   3.745   6.682   2.881 -0.0498  0.3214 -0.2315
 3735TIP3   OH211168   6.775   0.668   4.702  0.5744  0.1798 -0.0160
 3735TIP3    H111169   6.847   0.686   4.762 -0.6478  0.6376  1.3593
 3735TIP3    H211170   6.746   0.755   4.673  1.6566 -0.0505 -1.9396
 3736TIP3   OH211171   3.409   0.731   4.086 -0.3058  0.3785 -0.0161
 3736TIP3    H111172   3.341   0.771   4.141 -0.4069 -0.3133  0.3744
 3736TIP3    H211173   3.399   0.637   4.101  0.2177  0.2304 -0.5787
 3737TIP3   OH211174   5.704   3.548   0.716 -0.0427  0.2967 -1.0270
 3737TIP3    H111175   5.698   3.463   0.672 -1.5393 -0.9467  1.3623
 3737TIP3    H211176   5.796   3.555   0.741  0.1398 -0.5362 -1.4144
 3738TIP3   OH211177   6.617   1.767   1.643  0.0147  0.1923 -0.1584
 3738TIP3    H111178   6.548   1.807   1.590 -0.7795 -0.3474  0.4438
 3738TIP3    H211179   6.615   1.816   1.725 -0.4685 -0.6031  0.3080
 3739TIP3   OH211180   0.605   0.154   4.660  0.5264  0.2964  0.5029
 3739TIP3    H111181   0.642   0.066   4.654  1.3404  0.5800  1.1968
 3739TIP3    H211182   0.667   0.203   4.715  0.7884  1.6708 -0.9368
 3740TIP3   OH211183   6.817   5.277   2.610  0.0895  0.0538  0.0033
 3740TIP3    H111184   6.796   5.189   2.579  1.0460 -0.1224 -0.1854
 3740TIP3    H211185   6.904   5.268   2.650  0.8911  1.1945 -1.3870
 3741TIP3   OH211186   3.655   2.024   1.619  0.5670  0.6606 -0.2299
 3741TIP3    H111187   3.608   2.017   1.536 -1.5552  0.5026  0.9157
 3741TIP3    H211188   3.661   1.934   1.651 -0.0702  0.8803  0.5305
 3742TIP3   OH211189   3.967   6.702   5.825 -0.6263 -0.1386 -0.0474
 3742TIP3    H111190   3.997   6.772   5.883 -1.0521  1.3191 -1.5039
 3742TIP3    H211191   3.878   6.682   5.856 -0.9855  0.8776 -0.3579
 3743TIP3   OH211192   2.624   5.601   1.361 -0.9071 -0.1634 -0.1224
 3743TIP3    H111193   2.579   5.529   1.405  0.6256 -1.1279 -0.0407
 3743TIP3    H211194   2.640   5.665   1.430 -2.9392  0.6398 -0.3459
 3744TIP3   OH211195   1.007   4.112   3.321  0.1130 -0.5287 -0.3536
 3744TIP3    H111196   1.007   4.207   3.327  0.2592 -0.4225 -1.6649
 3744TIP3    H211197   0.993   4.094   3.228  0.1741 -1.7866 -0.1395
 3745TIP3   OH211198   2.838   3.868   1.784  0.3050 -0.1898  0.2899
 3745TIP3    H111199   2.895   3.945   1.791 -1.3797  1.0705  0.8617
 3745TIP3    H211200   2.784   3.884   1.706 -1.0100 -0.0944  1.1887
 3746TIP3   OH211201   4.913   6.431   2.795  0.0274  0.0117 -0.0028
 3746TIP3    H111202   4.886   6.493   2.727 -0.4060 -1.6729 -1.4457
 3746TIP3    H211203   5.009   6.441   2.799 -0.0052  0.5390 -0.4379
 3747TIP3   OH211204   6.497   1.970   0.221  0.2097  0.0209 -0.2579
 3747TIP3    H111205   6.534   2.034   0.281  0.1435  1.7629 -1.9962
 3747TIP3    H211206   6.408   1.957   0.252 -0.4992  2.4450 -1.0757
 3748TIP3   OH211207   6.760   2.850   0.177 -0.1914 -0.8299 -0.3888
 3748TIP3    H111208   6.827   2.855   0.110 -1.1196  0.6512 -1.2527
 3748TIP3    H211209   6.808   2.850   0.260  0.8787 -0.2340 -0.9955
 3749TIP3   OH211210   1.704   6.316   5.305  0.3576 -0.7350 -0.0011
 3749TIP3    H111211   1.712   6.262   5.227  1.5539 -1.6172  0.7087
 3749TIP3    H211212   1.787   6.363   5.310 -0.8976  1.7536 -0.9760
 3750TIP3   OH211213   0.581   4.195   5.501 -0.3206 -0.3979  0.1738
 3750TIP3    H111214   0.621   4.268   5.453 -1.1757  0.6739  1.0382
 3750TIP3    H211215   0.487   4.205   5.487 -0.4442 -1.3972  0.2322
 3751TIP3   OH211216   3.814   0.839   5.282  0.0036 -0.0296  0.3169
 3751TIP3    H111217   3.797   0.907   5.347 -0.3014 -0.4520  0.6884
 3751TIP3    H211218   3.840   0.886   5.203  0.3278  0.4929  0.7329
 3752TIP3   OH211219   6.733   3.059   1.717  0.3805  0.1675  0.0270
 3752TIP3    H111220   6.650   3.014   1.703  1.3594 -1.8326  0.1722
 3752TIP3    H211221   6.768   3.074   1.629  0.0797  0.5801 -0.0217
 3753TIP3   OH211222   3.009   0.757   2.764  0.0999 -0.2170  0.4311
 3753TIP3    H111223   2.981   0.667   2.750 -0.0440 -0.2360  0.8202
 3753TIP3    H211224   2.931   0.809   2.743  0.8181 -0.0051 -2.0254
 3754TIP3   OH211225   2.117   6.282   2.697 -0.0929  0.1359 -0.0505
 3754TIP3    H111226   2.150   6.216   2.636  0.9711  1.6114 -1.1492
 3754TIP3    H211227   2.131   6.244   2.783 -0.0356 -1.2928 -0.6602
 3755TIP3   OH211228   5.233   1.049   0.954 -0.0431 -0.3110  0.0194
 3755TIP3    H111229   5.156   1.104   0.944 -0.4367 -0.9257 -0.4276
 3755TIP3    H211230   5.298   1.105   0.996 -1.8551 -0.7636  3.8833
 3756TIP3   OH211231   6.458   2.504   4.437  0.5331 -0.5750  0.3964
 3756TIP3    H111232   6.499   2.590   4.429  1.2495 -1.0048 -0.7781
 3756TIP3    H211233   6.435   2.480   4.347  0.0025 -1.4483  0.7591
 3757TIP3   OH211234   2.040   2.832   0.200 -0.2051  0.3317 -0.5380
 3757TIP3    H111235   2.110   2.839   0.264 -0.7344  0.9389 -0.0024
 3757TIP3    H211236   2.026   2.922   0.169 -1.7744  0.5018  0.5225
 3758TIP3   OH211237   6.474   5.379   1.360  0.2499  0.0018  0.1332
 3758TIP3    H111238   6.556   5.409   1.321  0.5401 -0.5434  0.3163
 3758TIP3    H211239   6.477   5.409   1.450 -0.5930  1.5980 -0.3321
 3759TIP3   OH211240   2.247   6.443   3.238  0.1956 -0.3395  0.0780
 3759TIP3    H111241   2.293   6.482   3.312  2.2933  0.5998 -1.6158
 3759TIP3    H211242   2.309   6.379   3.202 -1.1161 -1.4064 -0.3566
 3760TIP3   OH211243   6.678   5.424   1.955  0.0206 -0.3063 -0.4239
 3760TIP3    H111244   6.647   5.339   1.925  0.9086 -0.7141 -0.2236
 3760TIP3    H211245   6.771   5.410   1.973 -0.4899 -0.2833  3.0080
 3761TIP3   OH211246   7.203   0.126   3.928  0.7694 -0.5748  0.7264
 3761TIP3    H111247   7.229   0.140   3.837 -1.9206 -0.8634 -0.1662
 3761TIP3    H211248   7.202   0.213   3.967 -0.3636 -0.1428 -0.2266
 3762TIP3   OH211249   4.210   1.232   0.859  0.1116 -0.4121  0.1981
 3762TIP3    H111250   4.301   1.210   0.880  0.1983 -1.4240 -1.1457
 3762TIP3    H211251   4.206   1.327   0.870  0.1679 -0.6752  4.4621
 3763TIP3   OH211252   4.352   3.824   3.058 -0.0068  0.0355 -0.4515
 3763TIP3    H111253   4.385   3.821   2.968 -0.1729  0.4124 -0.5286
 3763TIP3    H211254   4.430   3.816   3.113  0.1182  0.0236 -0.6306
 3764TIP3   OH211255   3.194   5.959   3.011  0.0839  0.1247 -0.4768
 3764TIP3    H111256   3.255   6.029   2.987  1.1483 -1.2065 -1.8759
 3764TIP3    H211257   3.172   5.977   3.102  3.3112  0.2022  0.4354
 3765TIP3   OH211258   6.281   2.134   3.987  0.2125 -0.2224  0.2087
 3765TIP3    H111259   6.285   2.039   3.993 -1.0297 -0.3465 -0.5492
 3765TIP3    H211260   6.368   2.164   4.015  0.4477 -1.5365  0.9613
 3766TIP3   OH211261   3.749   0.409   2.407 -0.3061 -0.4714  0.5915
 3766TIP3    H111262   3.666   0.390   2.452 -1.6393 -0.9947 -1.8801
 3766TIP3    H211263   3.740   0.365   2.323  3.1599 -1.7599  0.7589
 3767TIP3   OH211264   2.754   3.390   1.167 -0.1997 -0.3770 -0.1877
 3767TIP3    H111265   2.838   3.363   1.130  0.4247 -0.9044  1.5087
 3767TIP3    H211266   2.717   3.310   1.205 -0.4593  0.2472  0.9253
 3768TIP3   OH211267   4.471   3.993   4.510  0.1250  0.3526 -0.9744
 3768TIP3    H111268   4.505   4.024   4.594 -0.9805  0.5474 -0.5840
 3768TIP3    H211269   4.447   3.902   4.526  0.1789  0.3039 -1.1659
 3769TIP3   OH211270   2.008   4.115   5.700  0.5986 -0.0069 -0.2578
 3769TIP3    H111271   2.025   4.186   5.762  1.8428  0.3126 -0.9419
 3769TIP3    H211272   2.031   4.036   5.748  0.4710  0.1412  0.0561
 3770TIP3   OH211273   5.019   5.446   3.161 -0.5169 -0.4248  0.0293
 3770TIP3    H111274   4.990   5.360   3.129  1.5959 -0.5357 -1.7549
 3770TIP3    H211275   5.071   5.482   3.090 -3.3293  3.5189 -0.3790
 3771TIP3   OH211276   2.788   5.619   3.348  0.4752 -0.4155  0.3321
 3771TIP3    H111277   2.769   5.662   3.431  0.8841  0.9059 -0.2448
 3771TIP3    H211278   2.759   5.528   3.362 -0.5574  0.0568  1.5135
 3772TIP3   OH211279   6.772   4.105   5.691 -0.0024  0.3272 -0.1440
 3772TIP3    H111280   6.839   4.167   5.663  0.6410 -0.0712  0.4618
 3772TIP3    H211281   6.821   4.038   5.740 -0.8570  0.0995  0.4223
 3773TIP3   OH211282   0.526   5.193   2.381  0.2155  0.0171  0.0155
 3773TIP3    H111283   0.591   5.255   2.416  1.0301 -0.3621 -0.8005
 3773TIP3    H211284   0.487   5.239   2.307  0.8113 -0.4284 -0.5831
 3774TIP3   OH211285   4.010   5.198   1.854 -0.5107  0.3157  0.5682
 3774TIP3    H111286   4.043   5.246   1.779  0.4222  0.1515  0.8645
 3774TIP3    H211287   3.916   5.188   1.837 -0.2171 -0.1745 -0.8088
 3775TIP3   OH211288   3.542   2.837   5.093  0.2451  0.1798  0.2027
 3775TIP3    H111289   3.625   2.884   5.103  0.8660 -0.4060 -1.7955
 3775TIP3    H211290   3.476   2.898   5.126  1.4544  0.4774  2.3136
 3776TIP3   OH211291   3.987   5.507   4.612  0.1600 -0.1858 -0.2617
 3776TIP3    H111292   4.067   5.487   4.565  0.2672  1.6835 -0.9425
 3776TIP3    H211293   3.921   5.517   4.543 -1.2335 -3.6636  0.3494
 3777TIP3   OH211294   6.661   3.188   3.984  0.1658  1.0039  0.3225
 3777TIP3    H111295   6.702   3.273   3.973 -0.0193  1.1089  0.4341
 3777TIP3    H211296   6.577   3.195   3.937 -0.1073  1.0764  0.8131
 3778TIP3   OH211297   5.536   6.703   4.632 -0.3992 -0.1045 -0.3882
 3778TIP3    H111298   5.590   6.726   4.707  0.8514 -0.6916 -1.0749
 3778TIP3    H211299   5.475   6.637   4.665  0.7515 -1.0460 -0.0705
 3779TIP3   OH211300   1.326   3.902   4.419 -0.4179 -0.1954  0.2417
 3779TIP3    H111301   1.413   3.899   4.458 -1.0561 -1.3274  1.6585
 3779TIP3    H211302   1.317   3.819   4.373  0.8576  1.6142 -3.7720
 3780TIP3   OH211303   0.725   1.330   1.533  0.1388 -0.4328  0.0381
 3780TIP3    H111304   0.744   1.300   1.444 -1.5222  0.0474 -0.5153
 3780TIP3    H211305   0.762   1.418   1.538  2.1603 -1.2697  0.5853
 3781TIP3   OH211306   5.064   3.045   1.047  0.7959  0.2995 -0.2905
 3781TIP3    H111307   5.123   3.095   1.103  0.9873  1.7370 -1.6888
 3781TIP3    H211308   5.054   3.099   0.969  1.9241 -2.3721 -2.4444
 3782TIP3   OH211309   0.586   0.326   2.131 -0.5027 -0.5431 -0.3238
 3782TIP3    H111310   0.669   0.304   2.173 -0.9122 -0.5789  0.5025
 3782TIP3    H211311   0.607   0.334   2.038  0.8516  1.5290  0.0913
 3783TIP3   OH211312   5.066   3.867   4.015  0.2946  0.7929 -0.1884
 3783TIP3    H111313   5.069   3.908   4.101 -0.2618 -1.7011  1.1410
 3783TIP3    H211314   5.155   3.834   4.001 -0.0959 -0.6301  0.4697
 3784TIP3   OH211315   1.238   3.247   0.475 -0.2685 -0.4135  0.6219
 3784TIP3    H111316   1.299   3.283   0.539 -0.4772 -0.7685  1.0324
 3784TIP3    H211317   1.188   3.323   0.444  0.4711 -0.1043  0.1748
 3785TIP3   OH211318   3.220   3.726   5.806  0.3667 -0.1246 -0.0161
 3785TIP3    H111319   3.184   3.669   5.875  1.2823  0.2968  0.8342
 3785TIP3    H211320   3.222   3.813   5.845  3.1954 -0.2645  0.3970
 3786TIP3   OH211321   1.523   6.506   0.773 -0.1985 -0.0678  0.1321
 3786TIP3    H111322   1.520   6.426   0.721  0.0981  0.3222 -0.5004
 3786TIP3    H211323   1.528   6.476   0.864 -1.4115 -0.7635  0.0006
 3787TIP3   OH211324   5.998   5.944   3.726 -0.4674  0.0697 -0.5058
 3787TIP3    H111325   5.990   5.855   3.693 -1.3334 -0.5100  1.1366
 3787TIP3    H211326   5.908   5.975   3.733 -0.1359  1.5529 -2.2028
 3788TIP3   OH211327   5.597   3.243   0.135  0.1890  0.2840 -0.7103
 3788TIP3    H111328   5.657   3.300   0.183  0.9413 -0.9087 -0.1757
 3788TIP3    H211329   5.518   3.295   0.122 -0.3164  0.4540  2.3928
 3789TIP3   OH211330   4.636   4.737   4.422 -0.0361  0.0734 -0.9744
 3789TIP3    H111331   4.686   4.783   4.355  0.2736 -1.4109 -1.8286
 3789TIP3    H211332   4.609   4.804   4.484  3.7207  0.8726 -0.0058
 3790TIP3   OH211333   1.709   3.572   1.564  0.0369  0.4087  0.4005
 3790TIP3    H111334   1.666   3.493   1.533  0.8478 -0.9580  2.5551
 3790TIP3    H211335   1.642   3.619   1.613 -0.0676  0.3261  0.3367
 3791TIP3   OH211336   4.131   4.366   0.835 -0.0122  0.4185 -0.2386
 3791TIP3    H111337   4.043   4.353   0.799 -0.1756 -1.5444  0.7243
 3791TIP3    H211338   4.136   4.460   0.854 -2.4877  0.3587  1.0977
 3792TIP3   OH211339   2.071   4.749   2.836 -0.2161 -0.1013 -0.5271
 3792TIP3    H111340   1.983   4.711   2.838 -0.3477  0.2177  1.2636
 3792TIP3    H211341   2.127   4.681   2.873 -0.0333  0.3962  0.1351
 3793TIP3   OH211342   1.491   4.481   0.987 -0.1405 -0.6707 -0.3605
 3793TIP3    H111343   1.463   4.572   0.992 -0.9581 -0.9624  0.7167
 3793TIP3    H211344   1.571   4.483   0.934 -1.0375  0.4503 -1.7266
 3794TIP3   OH211345   4.009   3.313   3.887 -0.1329 -0.4854  0.0242
 3794TIP3    H111346   4.066   3.330   3.962  0.4898 -1.5587 -0.1679
 3794TIP3    H211347   4.068   3.317   3.812 -0.6328 -0.0372 -0.3490
 3795TIP3   OH211348   3.671   3.082   3.354 -0.0486 -0.3379  0.5740
 3795TIP3    H111349   3.602   3.016   3.355 -1.1159  0.7483  0.9538
 3795TIP3    H211350   3.641   3.149   3.416  1.8063 -0.2980  1.5081
 3796TIP3   OH211351   4.600   2.388   2.529 -0.0222 -0.1998  0.5950
 3796TIP3    H111352   4.695   2.381   2.514 -0.2562  0.1674 -1.3767
 3796TIP3    H211353   4.572   2.298   2.543  0.3154 -0.6219 -1.1948
 3797TIP3   OH211354   2.984   3.044   3.507 -0.1336 -0.4608  0.0047
 3797TIP3    H111355   2.978   3.130   3.464  2.5091 -0.0355  0.2807
 3797TIP3    H211356   2.975   3.063   3.600  1.6855 -0.2284  0.1749
 3798TIP3   OH211357   7.165   6.361   5.168 -0.3169  0.2574  0.0528
 3798TIP3    H111358   7.113   6.401   5.098 -0.6467  0.5408  0.4500
 3798TIP3    H211359   7.216   6.434   5.204  2.0825 -0.4057 -1.7850
 3799TIP3   OH211360   0.697   0.939   5.683 -0.2431 -0.1718 -0.0168
 3799TIP3    H111361   0.607   0.967   5.701 -0.5031 -1.2217  0.4197
 3799TIP3    H211362   0.747   1.020   5.675 -0.8636  0.4131  1.6286
 3800TIP3   OH211363   2.649   3.952   0.316 -0.8066 -0.0364 -0.0933
 3800TIP3    H111364   2.658   3.918   0.227  0.9665 -0.5517  0.2370
 3800TIP3    H211365   2.581   3.898   0.356 -1.3544 -0.0421 -1.0208
 3801TIP3   OH211366   0.672   5.276   2.963 -0.2800 -0.6364 -0.6002
 3801TIP3    H111367   0.767   5.276   2.961 -0.2603 -0.0885  0.0941
 3801TIP3    H211368   0.649   5.225   3.041 -0.6176 -2.7316 -1.9689
 3802TIP3   OH211369   1.480   2.437   3.124 -0.1007  0.1288 -0.3167
 3802TIP3    H111370   1.387   2.434   3.145  0.1944 -1.4911  0.9243
 3802TIP3    H211371   1.485   2.402   3.035 -0.5758 -0.8403  0.0312
 3803TIP3   OH211372   0.251   3.856   2.238  0.0275  0.1461  0.4731
 3803TIP3    H111373   0.226   3.944   2.268  0.1958 -0.0078  1.0813
 3803TIP3    H211374   0.293   3.816   2.314  1.6898  0.2142 -0.3553
 3804TIP3   OH211375   1.889   3.479   3.373 -0.3179  0.1390  0.2658
 3804TIP3    H111376   1.949   3.531   3.321  0.5035  0.2704  1.3031
 3804TIP3    H211377   1.807   3.480   3.324  0.1005  1.1990 -0.4448
 3805TIP3   OH211378   0.333   0.125   0.057 -0.2653  0.6410 -0.1153
 3805TIP3    H111379   0.372   0.181   0.124 -0.3184 -0.8546  1.2175
 3805TIP3    H211380   0.268   0.180   0.014  0.0156  1.7384  0.8368
 3806TIP3   OH211381   0.810   3.307   2.550  0.2056 -0.2513  0.3482
 3806TIP3    H111382   0.747   3.315   2.479  0.6327  0.6606  0.0567
 3806TIP3    H211383   0.851   3.222   2.536 -0.1907 -0.3782 -0.0910
 3807TIP3   OH211384   2.004   5.882   2.573  1.0928 -0.3987 -0.2065
 3807TIP3    H111385   1.910   5.867   2.576  0.7726  1.1521 -1.4872
 3807TIP3    H211386   2.041   5.795   2.558 -0.0186 -1.1989  1.3644
 3808TIP3   OH211387   1.981   6.101   0.589  0.3067 -0.9999  0.3266
 3808TIP3    H111388   1.939   6.086   0.674 -0.3041 -2.4871 -0.1980
 3808TIP3    H211389   2.034   6.179   0.602 -1.5727  0.1833  1.4093
 3809TIP3   OH211390   4.429   6.646   3.088  0.3306  0.6114  0.0831
 3809TIP3    H111391   4.450   6.657   2.996 -0.1310  1.2715  0.0566
 3809TIP3    H211392   4.452   6.554   3.107 -1.0684 -0.0158 -1.0843
 3810TIP3   OH211393   5.710   3.071   5.767 -0.3572  0.3666 -0.1684
 3810TIP3    H111394   5.804   3.059   5.783 -0.3686  0.4438 -0.0429
 3810TIP3    H211395   5.670   2.990   5.801 -0.5305  1.1308  1.5808
 3811TIP3   OH211396   3.257   4.330   2.511 -0.5143  0.2741  0.2292
 3811TIP3    H111397   3.326   4.368   2.456 -0.9176  0.7659  0.0477
 3811TIP3    H211398   3.283   4.352   2.600 -0.2436  0.1372  0.1840
 3812TIP3   OH211399   4.056   4.297   0.114 -0.4085  0.4592 -0.2008
 3812TIP3    H111400   4.051   4.333   0.202  1.8116  1.9921 -0.6512
 3812TIP3    H211401   4.027   4.206   0.125 -0.9211  0.8120  1.9324
 3813TIP3   OH211402   5.598   6.505   4.462 -0.4294  0.6960  0.2561
 3813TIP3    H111403   5.508   6.478   4.476 -0.2857  0.7582  1.3761
 3813TIP3    H211404   5.605   6.589   4.508  0.0265  1.0181 -0.3779
 3814TIP3   OH211405   1.081   5.524   3.816  0.3892  0.3903  0.1016
 3814TIP3    H111406   1.176   5.522   3.803  0.2645  0.1913 -0.8148
 3814TIP3    H211407   1.047   5.580   3.746 -0.3451 -1.1632 -0.8517
 3815TIP3   OH211408   0.764   1.366   3.284 -0.3922  0.4930 -0.0730
 3815TIP3    H111409   0.706   1.320   3.224 -0.0895  1.5796 -1.2198
 3815TIP3    H211410   0.711   1.378   3.364 -0.3786 -2.0713  0.4041
 3816TIP3   OH211411   2.400   4.154   0.995  0.2456 -0.0688  0.2295
 3816TIP3    H111412   2.338   4.087   1.021 -0.0743 -0.2844 -1.0438
 3816TIP3    H211413   2.348   4.234   0.988  0.6134  0.3325  1.6813
 3817TIP3   OH211414   4.786   3.753   2.163 -0.6430 -0.2433  0.1249
 3817TIP3    H111415   4.784   3.664   2.199 -0.5913 -0.4904 -0.4853
 3817TIP3    H211416   4.787   3.741   2.068 -3.0607  0.4134 -0.0480
 3818TIP3   OH211417   7.084   2.871   1.446  0.2654  0.2605  0.1550
 3818TIP3    H111418   7.161   2.918   1.413 -0.8539  1.1080 -1.3539
 3818TIP3    H211419   7.103   2.779   1.429  1.2574  0.3822  0.5222
 3819TIP3   OH211420   3.060   4.932   3.319  0.1576  0.6731  0.1211
 3819TIP3    H111421   3.091   4.990   3.250 -0.7682 -0.4972 -1.3468
 3819TIP3    H211422   2.990   4.881   3.278  0.6036 -1.1349  1.4678
 3820TIP3   OH211423   4.356   4.135   2.853  0.0951 -0.5589  0.2572
 3820TIP3    H111424   4.332   4.142   2.946  0.7746 -1.5299  0.5220
 3820TIP3    H211425   4.446   4.167   2.850  0.3878 -1.3710  0.1000
 3821TIP3   OH211426   2.524   3.032   0.518  0.0202 -0.1462 -0.4285
 3821TIP3    H111427   2.532   3.128   0.517 -1.2467 -0.0115 -2.1225
 3821TIP3    H211428   2.543   3.008   0.609  1.7979  1.5468 -0.2771
 3822TIP3   OH211429   5.238   0.862   2.482 -0.0207  0.0401 -0.1339
 3822TIP3    H111430   5.157   0.904   2.455  0.2235 -0.1702 -1.2552
 3822TIP3    H211431   5.297   0.871   2.407  0.8984 -0.0731  0.5442
 3823TIP3   OH211432   4.199   6.539   3.312  0.0559  0.0355 -0.1221
 3823TIP3    H111433   4.169   6.468   3.368  0.7573 -1.7747 -1.9253
 3823TIP3    H211434   4.280   6.570   3.353 -1.5542  1.6692  2.0906
 3824TIP3   OH211435   4.925   3.780   2.515  0.1627 -0.1840  0.3601
 3824TIP3    H111436   5.015   3.766   2.543  0.2685  0.8007  0.5781
 3824TIP3    H211437   4.885   3.693   2.515  1.4177 -0.8034 -0.8427
 3825TIP3   OH211438   2.306   3.388   1.365  0.3425 -0.4958  0.0084
 3825TIP3    H111439   2.358   3.330   1.420  2.1262 -0.0916 -1.1686
 3825TIP3    H211440   2.366   3.416   1.296 -1.1129  0.9746 -0.7292
 3826TIP3   OH211441   3.612   0.620   0.617  0.2923 -0.3149 -0.3642
 3826TIP3    H111442   3.703   0.649   0.619 -0.4398  2.1168  1.5257
 3826TIP3    H211443   3.560   0.700   0.620 -1.9119 -1.6634  1.7890
 3827TIP3   OH211444   0.991   1.630   2.592  0.5330  0.4631  0.5590
 3827TIP3    H111445   0.958   1.607   2.679  2.6262  0.6410  1.4482
 3827TIP3    H211446   0.975   1.552   2.539 -0.3818  0.1971  1.1940
 3828TIP3   OH211447   0.387   3.016   5.191  0.3694  0.3172  0.2504
 3828TIP3    H111448   0.451   2.958   5.149  0.8607  0.7995  0.3207
 3828TIP3    H211449   0.408   3.103   5.157  0.2276  0.5861  0.8439
 3829TIP3   OH211450   1.938   0.394   3.516 -0.6308 -0.2402 -0.3969
 3829TIP3    H111451   1.932   0.325   3.450  2.6534 -1.1434  0.0538
 3829TIP3    H211452   1.954   0.347   3.598 -1.5598  0.9834  0.5146
 3830TIP3   OH211453   4.296   3.512   5.677  0.5465  0.0858  0.4778
 3830TIP3    H111454   4.334   3.515   5.765 -0.4253  0.9237  0.8790
 3830TIP3    H211455   4.355   3.455   5.628  0.8502 -0.7800  1.7962
 3831TIP3   OH211456   3.379   4.535   4.336  0.9030  0.0648  0.4214
 3831TIP3    H111457   3.440   4.479   4.288 -0.6592 -0.4261 -1.1224
 3831TIP3    H211458   3.340   4.477   4.402 -0.2251 -0.5730 -0.7420
 3832TIP3   OH211459   0.704   6.702   5.628  0.1420  0.1294 -0.2563
 3832TIP3    H111460   0.722   6.610   5.647 -0.7134 -0.1873 -0.9319
 3832TIP3    H211461   0.746   6.717   5.542  1.1010  0.6413  0.2819
 3833TIP3   OH211462   4.850   3.573   0.260  0.3411 -0.0384 -0.0954
 3833TIP3    H111463   4.873   3.483   0.240  1.0201  0.1742 -0.2903
 3833TIP3    H211464   4.934   3.618   0.272  0.1308  1.0863 -2.2602
 3834TIP3   OH211465   2.078   5.916   0.890  0.5686  0.1921 -0.0302
 3834TIP3    H111466   2.033   5.881   0.967 -1.2463  0.4762 -0.9206
 3834TIP3    H211467   2.065   6.010   0.895 -0.1661  0.1639 -1.0169
 3835TIP3   OH211468   1.800   2.194   0.847 -0.0163 -0.2513 -0.5805
 3835TIP3    H111469   1.776   2.161   0.934  0.5146 -0.5541 -0.5482
 3835TIP3    H211470   1.813   2.116   0.794 -2.7880 -0.1037 -1.6519
 3836TIP3   OH211471   0.356   0.294   1.876 -0.0972 -0.3453 -0.2715
 3836TIP3    H111472   0.288   0.319   1.938 -0.1444 -3.4753  1.1800
 3836TIP3    H211473   0.313   0.294   1.791 -1.4012 -0.4692  0.3581
 3837TIP3   OH211474   6.366   4.583   0.621  0.3581 -0.3624  0.2329
 3837TIP3    H111475   6.271   4.589   0.607  0.1726 -0.5458  1.2509
 3837TIP3    H211476   6.379   4.492   0.648  0.7398 -0.1960  0.6217
 3838TIP3   OH211477   7.134   5.179   3.153 -0.3574 -0.0545  0.1586
 3838TIP3    H111478   7.164   5.111   3.092 -1.8044  0.9248 -1.7825
 3838TIP3    H211479   7.120   5.133   3.235 -1.7218 -2.2595 -1.2003
 3839TIP3   OH211480   4.698   4.787   4.880 -0.0403 -0.1124 -0.7799
 3839TIP3    H111481   4.623   4.735   4.908  0.5806 -0.9606 -0.6816
 3839TIP3    H211482   4.744   4.808   4.961 -0.4687  0.9055 -0.7772
 3840TIP3   OH211483   7.036   4.321   5.247  0.3443  0.1683  0.0966
 3840TIP3    H111484   7.076   4.246   5.290  0.0572  0.7563  1.4327
 3840TIP3    H211485   6.943   4.314   5.266  0.4014  1.2339  0.8706
 3841TIP3   OH211486   4.093   0.070   2.588  0.1317 -0.0957 -0.3178
 3841TIP3    H111487   4.066  -0.012   2.629  2.0443 -0.9050 -0.5983
 3841TIP3    H211488   4.033   0.081   2.515 -0.3358 -1.0841 -0.0985
 3842TIP3   OH211489   4.080   1.114   1.328  0.4327 -0.2520 -0.2070
 3842TIP3    H111490   4.117   1.064   1.255  1.2269  0.1770 -0.1212
 3842TIP3    H211491   4.140   1.189   1.338  0.1711 -0.1439  0.6884
 3843TIP3   OH211492   5.063   0.284   0.146  0.0376 -0.2585  0.5939
 3843TIP3    H111493   5.130   0.349   0.127 -1.0300  1.0149  1.0253
 3843TIP3    H211494   5.076   0.263   0.238  0.7663 -1.1323  0.3007
 3844TIP3   OH211495   1.578   3.022   4.632 -0.2709 -0.2175  0.7122
 3844TIP3    H111496   1.621   3.038   4.548 -0.3200 -0.2066  0.6889
 3844TIP3    H211497   1.602   2.932   4.655  0.5029  0.0904  1.1336
 3845TIP3   OH211498   2.816   3.284   4.351 -0.2689  0.4417  0.2999
 3845TIP3    H111499   2.849   3.352   4.291 -0.7125  1.1081  0.8020
 3845TIP3    H211500   2.890   3.223   4.361  0.6892  1.6826  1.0696
 3846TIP3   OH211501   3.069   5.984   3.252  0.1554  0.8860 -0.1123
 3846TIP3    H111502   3.010   6.033   3.309 -0.4646 -1.7490  1.7428
 3846TIP3    H211503   3.013   5.948   3.184  0.2721  1.2236 -0.3886
 3847TIP3   OH211504   5.777   3.053   3.064 -0.2735 -0.0442  0.1519
 3847TIP3    H111505   5.814   3.126   3.015  0.5598 -0.0817  0.7114
 3847TIP3    H211506   5.812   2.975   3.020 -0.3655 -0.0919  0.1631
 3848TIP3   OH211507   6.083   5.956   4.875 -0.2139 -0.8192  0.2764
 3848TIP3    H111508   6.007   5.981   4.928  0.7097  0.8051  0.9105
 3848TIP3    H211509   6.087   6.021   4.806 -0.2866 -1.8286 -0.7169
 3849TIP3   OH211510   2.195   6.098   3.989 -0.2239  0.3035  0.0530
 3849TIP3    H111511   2.285   6.113   4.017 -0.0142  1.9868 -1.3585
 3849TIP3    H211512   2.163   6.184   3.964 -1.6632 -0.5120 -1.0810
 3850TIP3   OH211513   2.021   3.431   5.184 -0.3591 -0.2279  0.0981
 3850TIP3    H111514   2.045   3.392   5.268 -1.4840  0.0020  0.5394
 3850TIP3    H211515   2.033   3.525   5.197 -0.3898 -0.2021 -0.0575
 3851TIP3   OH211516   1.216   4.396   2.670 -0.0256 -0.2216  0.0863
 3851TIP3    H111517   1.217   4.302   2.688 -0.4804 -0.4646 -1.0546
 3851TIP3    H211518   1.197   4.402   2.576  1.5160  0.9667 -0.1996
 3852TIP3   OH211519   2.468   2.735   3.401  0.4615  0.2439  0.4269
 3852TIP3    H111520   2.491   2.800   3.468  2.6884  0.0300 -0.0377
 3852TIP3    H211521   2.447   2.656   3.450  0.2220  0.6150  0.9306
 3853TIP3   OH211522   3.723   4.603   0.867 -0.2537 -0.3011 -0.0994
 3853TIP3    H111523   3.711   4.631   0.777  0.7228  1.8296  0.3737
 3853TIP3    H211524   3.704   4.681   0.919 -0.7220 -1.4588  1.5563
 3854TIP3   OH211525   1.189   5.268   2.513 -0.3170 -0.2863 -0.4417
 3854TIP3    H111526   1.179   5.362   2.525 -1.6902 -0.0783 -2.6321
 3854TIP3    H211527   1.110   5.229   2.551 -0.9614 -0.2934 -1.7392
 3855TIP3   OH211528   5.180   6.147   2.608  0.3208  0.2910 -0.8993
 3855TIP3    H111529   5.161   6.065   2.652 -2.3050  1.0984 -0.3649
 3855TIP3    H211530   5.266   6.134   2.568  0.0180 -2.6492 -0.7525
 3856TIP3   OH211531   2.246   1.054   4.919  1.0202  0.1799  0.8166
 3856TIP3    H111532   2.250   0.981   4.857  1.6855  0.1403  0.9028
 3856TIP3    H211533   2.160   1.093   4.904  0.8802 -0.2817  0.3834
 3857TIP3   OH211534   3.894   2.149   1.529  0.3768  0.1480 -0.7093
 3857TIP3    H111535   3.948   2.094   1.585 -0.3180 -0.6059 -0.7485
 3857TIP3    H211536   3.806   2.112   1.537  0.2841 -0.1150 -2.4260
 3858TIP3   OH211537   3.284   5.172   4.556  0.5517 -0.0335  0.8046
 3858TIP3    H111538   3.379   5.180   4.554  0.6302 -0.8927  0.3807
 3858TIP3    H211539   3.263   5.124   4.475 -0.4373  2.0004 -0.2069
 3859TIP3   OH211540   6.484   6.620   2.629 -0.4444  0.6485  0.3684
 3859TIP3    H111541   6.464   6.589   2.541  0.5549  1.4315 -0.1642
 3859TIP3    H211542   6.532   6.549   2.670 -0.2645  0.5668  0.0162
 3860TIP3   OH211543   5.124   0.040   0.980  0.5873  0.1310 -0.0531
 3860TIP3    H111544   5.061  -0.021   0.944  1.2252  0.7202 -2.3216
 3860TIP3    H211545   5.209   0.006   0.953  1.0243  1.3011 -0.2386
 3861TIP3   OH211546   0.328   1.543   3.759  0.1478  0.1723 -0.2915
 3861TIP3    H111547   0.238   1.518   3.735  0.3731  0.2973 -1.2903
 3861TIP3    H211548   0.371   1.460   3.778  0.2211 -0.0122 -1.2382
 3862TIP3   OH211549   6.643   4.382   0.933 -0.2018  0.3419 -0.3095
 3862TIP3    H111550   6.639   4.345   0.845  3.1012 -0.2483 -0.3177
 3862TIP3    H211551   6.629   4.308   0.992  0.9721  0.0757 -0.3507
 3863TIP3   OH211552   6.825   3.205   1.923  0.0894 -0.1354 -0.0149
 3863TIP3    H111553   6.832   3.288   1.876 -0.5809 -0.0713 -0.0150
 3863TIP3    H211554   6.793   3.143   1.857 -1.0215 -0.0089  0.3717
 3864TIP3   OH211555   2.709   2.677   3.260 -0.2738 -0.0244  0.1145
 3864TIP3    H111556   2.740   2.761   3.227  0.1954 -0.2596 -0.0559
 3864TIP3    H211557   2.635   2.699   3.316  0.4115  0.5792  0.7978
 3865TIP3   OH211558   5.266   3.302   4.101  0.0865 -0.4423  0.0147
 3865TIP3    H111559   5.317   3.258   4.033  0.0705  1.4908 -1.3263
 3865TIP3    H211560   5.330   3.355   4.148 -0.5084  1.6577 -1.3981
 3866TIP3   OH211561   2.539   1.367   0.504  0.0966  0.0911 -0.2031
 3866TIP3    H111562   2.605   1.343   0.569 -0.7454 -2.1023 -0.0531
 3866TIP3    H211563   2.588   1.410   0.435  1.5832 -0.7585  0.2660
 3867TIP3   OH211564   7.129   4.732   3.593 -0.5297  0.4285 -0.6419
 3867TIP3    H111565   7.073   4.801   3.628 -0.6712  0.0096 -0.0307
 3867TIP3    H211566   7.079   4.652   3.606  0.5209 -0.0610  0.6388
 3868TIP3   OH211567   4.606   1.413   1.559  0.1081 -0.2827 -0.5356
 3868TIP3    H111568   4.559   1.346   1.609  0.5864  0.2615  0.7003
 3868TIP3    H211569   4.696   1.380   1.554  0.2329  0.0274 -0.3605
 3869TIP3   OH211570   7.008   3.700   4.300  0.2354 -0.4636 -0.0830
 3869TIP3    H111571   6.941   3.767   4.315  1.0559  0.2908  0.2835
 3869TIP3    H211572   6.973   3.622   4.343 -1.7352 -0.9269 -2.3081
 3870TIP3   OH211573   2.960   1.306   0.815 -0.5252 -0.1927  0.1886
 3870TIP3    H111574   3.039   1.297   0.761 -0.9840 -0.5668 -0.4402
 3870TIP3    H211575   2.975   1.247   0.889 -0.7302 -1.2418 -0.5706
 3871TIP3   OH211576   6.546   0.002   4.082 -0.0381 -0.1881 -0.6825
 3871TIP3    H111577   6.459  -0.027   4.109 -0.0417  0.7091  0.3579
 3871TIP3    H211578   6.544   0.097   4.095  1.7894 -0.3674  1.5551
 3872TIP3   OH211579   1.006   0.779   4.057 -0.0209 -0.1566 -0.6687
 3872TIP3    H111580   0.970   0.848   4.002  0.2401  2.0296  1.7234
 3872TIP3    H211581   1.101   0.792   4.053 -0.0585  1.3707  1.7812
 3873TIP3   OH211582   2.018   4.810   2.569  0.4139 -0.3593  0.3195
 3873TIP3    H111583   2.023   4.788   2.662 -0.8397  1.7112  0.9569
 3873TIP3    H211584   1.942   4.761   2.537 -0.3663  0.4071  0.9175
 3874TIP3   OH211585   1.813   4.967   3.332  0.4061 -0.3730 -0.5341
 3874TIP3    H111586   1.868   5.037   3.298 -1.0007  1.0257 -0.0319
 3874TIP3    H211587   1.841   4.956   3.423 -1.2669  1.6278  0.3074
 3875TIP3   OH211588   6.140   1.004   4.712  0.3411  0.3095  0.2788
 3875TIP3    H111589   6.135   1.001   4.807  0.9765 -0.8862  0.3006
 3875TIP3    H211590   6.048   1.003   4.683  0.0753  2.4487  0.8637
 3876TIP3   OH211591   6.952   4.782   4.802 -0.1183 -0.4150 -0.1805
 3876TIP3    H111592   6.988   4.849   4.860 -0.2303  1.5377 -2.2180
 3876TIP3    H211593   6.870   4.755   4.843  1.2754 -1.4599  2.1056
 3877TIP3   OH211594   0.401   2.131   2.841 -0.6934  0.0951 -0.0212
 3877TIP3    H111595   0.382   2.066   2.908  1.6401 -0.5233  0.1222
 3877TIP3    H211596   0.450   2.199   2.887  1.8331 -0.8115 -1.1554
 3878TIP3   OH211597   5.967   4.545   1.463  0.0849 -0.0411  0.2061
 3878TIP3    H111598   6.054   4.509   1.446  0.2516  0.8924 -1.0157
 3878TIP3    H211599   5.974   4.638   1.439 -1.3781 -0.0563 -0.3940
 3879TIP3   OH211600   6.397   6.114   5.652 -0.4078  0.1229  0.0704
 3879TIP3    H111601   6.464   6.045   5.652  0.3821  0.8694  0.2300
 3879TIP3    H211602   6.324   6.076   5.603  1.2022  0.3024 -2.6942
 3880TIP3   OH211603   7.091   1.301   3.139  0.0928 -0.3608  0.0430
 3880TIP3    H111604   7.016   1.272   3.192 -1.0958  2.2426 -0.0854
 3880TIP3    H211605   7.064   1.283   3.048 -0.0921 -0.0385  0.0341
 3881TIP3   OH211606   5.927   6.292   5.301  0.5437 -0.0261 -0.2618
 3881TIP3    H111607   5.928   6.357   5.370 -0.3441 -0.7963  0.4989
 3881TIP3    H211608   5.902   6.341   5.222 -1.9528  0.2874  0.6349
 3882TIP3   OH211609   3.158   2.664   2.580 -0.0265 -0.1703 -0.2241
 3882TIP3    H111610   3.216   2.591   2.558 -0.8287 -0.6170 -0.8935
 3882TIP3    H211611   3.206   2.742   2.551  1.3133 -0.3050  1.4836
 3883TIP3   OH211612   2.334   1.197   1.023  0.3323  0.0907  0.7491
 3883TIP3    H111613   2.361   1.158   1.106  1.0736 -0.7601  0.1252
 3883TIP3    H211614   2.355   1.131   0.957  1.4882  1.4579 -0.3353
 3884TIP3   OH211615   2.434   3.762   2.468 -0.8006  0.2551 -0.3995
 3884TIP3    H111616   2.415   3.710   2.391 -0.2823  0.8228 -0.9230
 3884TIP3    H211617   2.472   3.843   2.434 -1.8101  1.0848  0.3850
 3885TIP3   OH211618   3.334   5.043   3.590  0.0186  0.1114 -0.2769
 3885TIP3    H111619   3.345   4.981   3.662  0.3883  0.9303  0.3951
 3885TIP3    H211620   3.385   5.120   3.617 -1.5735  1.2597 -0.4095
 3886TIP3   OH211621   5.298   2.882   3.631  0.2505  0.6587 -0.0360
 3886TIP3    H111622   5.344   2.839   3.560  1.6518  1.3645  0.4165
 3886TIP3    H211623   5.232   2.818   3.660  1.6084 -0.7770 -0.0252
 3887TIP3   OH211624   3.505   5.368   0.433  0.3553  0.2235  0.1172
 3887TIP3    H111625   3.468   5.424   0.502  1.8138 -0.4115  1.4851
 3887TIP3    H211626   3.441   5.297   0.424 -0.3077  0.8071  0.1387
 3888TIP3   OH211627   6.297   6.619   1.664  0.0056 -0.2643 -0.7673
 3888TIP3    H111628   6.209   6.658   1.658 -0.4953 -1.5658 -2.2937
 3888TIP3    H211629   6.286   6.547   1.727 -0.2004 -0.8586 -1.4744
 3889TIP3   OH211630   4.022   4.351   3.820  0.1237 -0.1785  0.1162
 3889TIP3    H111631   4.108   4.309   3.817  0.6299  0.8147  0.1391
 3889TIP3    H211632   4.040   4.443   3.804 -1.0571 -0.0941 -0.8360
 3890TIP3   OH211633   5.471   1.656   2.781  0.4012  0.2425 -0.4477
 3890TIP3    H111634   5.565   1.671   2.768  0.7673 -0.0394  1.5029
 3890TIP3    H211635   5.461   1.651   2.876 -1.4437 -0.6812 -0.6481
 3891TIP3   OH211636   2.755   2.758   2.820  0.2803  0.0484 -0.0418
 3891TIP3    H111637   2.789   2.722   2.902  0.4930 -0.2889 -0.2761
 3891TIP3    H211638   2.830   2.803   2.780 -0.0769  1.0885  0.4290
 3892TIP3   OH211639   1.603   4.694   5.434  0.3783 -0.1458  0.2434
 3892TIP3    H111640   1.615   4.728   5.522 -0.2525  1.2314 -0.1777
 3892TIP3    H211641   1.565   4.767   5.385  1.5173 -0.5952 -1.3919
 3893TIP3   OH211642   3.124   6.234   3.841  0.0473  0.3920 -0.3567
 3893TIP3    H111643   3.193   6.280   3.793  0.7830 -0.4134 -0.0864
 3893TIP3    H211644   3.042   6.268   3.804  0.5436 -1.2926 -3.2901
 3894TIP3   OH211645   6.545   6.054   5.050  0.2718 -0.6206 -0.0114
 3894TIP3    H111646   6.517   5.963   5.041  0.2396 -0.6421  0.3199
 3894TIP3    H211647   6.630   6.049   5.093 -0.4830 -0.4222  1.5803
 3895TIP3   OH211648   4.063   1.132   3.093  0.4957  0.6828  0.3997
 3895TIP3    H111649   4.062   1.218   3.134  1.2510  0.3491  1.1735
 3895TIP3    H211650   3.973   1.100   3.103  0.8868  0.1346  2.9622
 3896TIP3   OH211651   3.009   6.678   4.417 -0.1698 -0.5696  0.3231
 3896TIP3    H111652   3.083   6.727   4.451 -0.6679  0.3271  0.1458
 3896TIP3    H211653   3.001   6.707   4.325 -0.9932 -0.3244  0.4587
 3897TIP3   OH211654   3.635   2.518   2.577  0.8158  0.1781 -0.0970
 3897TIP3    H111655   3.716   2.501   2.530  0.3831 -2.9284  0.0714
 3897TIP3    H211656   3.575   2.552   2.511  1.6507  0.6014 -0.6473
 3898TIP3   OH211657   2.352   6.575   4.724 -0.6878 -0.3667  0.1713
 3898TIP3    H111658   2.267   6.553   4.763 -0.2206  0.0845  1.5223
 3898TIP3    H211659   2.363   6.669   4.743 -0.1371 -0.2882 -0.4915
 3899TIP3   OH211660   5.060   1.222   4.038 -0.2386 -0.4355  0.2412
 3899TIP3    H111661   5.027   1.234   4.127  0.3612 -2.3877  0.7814
 3899TIP3    H211662   4.985   1.188   3.989 -0.6138  0.7904 -0.0795
 3900TIP3   OH211663   4.929   2.168   1.106 -0.2113 -0.1641 -0.2247
 3900TIP3    H111664   4.852   2.123   1.140  0.2600 -0.7430  0.0778
 3900TIP3    H211665   4.940   2.243   1.164 -0.1725 -0.4306  0.1096
 3901TIP3   OH211666   6.337   4.815   3.282  0.5232  0.5308  0.4098
 3901TIP3    H111667   6.250   4.778   3.294  1.1220 -1.1649 -0.1086
 3901TIP3    H211668   6.346   4.881   3.351 -1.0765  0.5971  0.5856
 3902TIP3   OH211669   0.151   3.386   0.334 -0.4022 -0.3182  0.0011
 3902TIP3    H111670   0.091   3.423   0.399 -1.0814 -0.3411 -0.5968
 3902TIP3    H211671   0.101   3.314   0.294 -0.8864  1.1026 -2.1278
 3903TIP3   OH211672   6.331   3.334   2.355 -0.0771 -0.6164 -0.1448
 3903TIP3    H111673   6.410   3.362   2.402 -0.0202 -1.4886  0.3041
 3903TIP3    H211674   6.272   3.409   2.360  0.3078 -0.3419  0.4600
 3904TIP3   OH211675   3.591   2.539   1.811 -0.9304  0.5263 -0.1307
 3904TIP3    H111676   3.627   2.501   1.891  0.2933  3.0101  0.6006
 3904TIP3    H211677   3.662   2.532   1.747 -1.2713  0.1561 -0.4748
 3905TIP3   OH211678   2.599   2.253   1.923  0.5692 -0.2654  0.5867
 3905TIP3    H111679   2.631   2.163   1.938  0.6602 -0.8340 -2.4531
 3905TIP3    H211680   2.612   2.268   1.830  1.4488  3.3302  1.1426
 3906TIP3   OH211681   0.949   3.005   4.579  0.0141 -0.1661  0.4310
 3906TIP3    H111682   0.913   3.090   4.553  1.1894  1.5511  3.8022
 3906TIP3    H211683   0.888   2.972   4.645 -0.3968 -2.0110 -0.7926
 3907TIP3   OH211684   4.461   6.242   4.825 -0.2609 -0.0219 -0.0256
 3907TIP3    H111685   4.479   6.163   4.775  1.4330 -0.8992  1.8406
 3907TIP3    H211686   4.371   6.231   4.856 -0.1108 -1.1535  0.0552
 3908TIP3   OH211687   0.631   2.635   4.419 -0.0386 -0.1380  0.1579
 3908TIP3    H111688   0.568   2.614   4.351 -1.1737 -1.6668  1.6220
 3908TIP3    H211689   0.693   2.562   4.418 -0.7135 -0.7525  1.4820
 3909TIP3   OH211690   1.113   4.346   2.408  0.2753  0.5877  0.4881
 3909TIP3    H111691   1.166   4.307   2.339  0.1938  1.3127 -0.0023
 3909TIP3    H211692   1.031   4.297   2.406 -0.3838  1.6534 -1.0897
 3910TIP3   OH211693   4.929   0.888   4.184 -0.9484  0.1746 -0.2544
 3910TIP3    H111694   5.004   0.872   4.127  0.1207 -2.0661  1.6492
 3910TIP3    H211695   4.853   0.864   4.130 -0.2435  1.0704 -1.7124
 3911TIP3   OH211696   5.963   1.279   2.622  0.1962  0.4084  0.1263
 3911TIP3    H111697   5.941   1.344   2.556 -1.2004  0.2590  0.4137
 3911TIP3    H211698   5.903   1.297   2.694 -1.3090 -2.1253 -0.3833
 3912TIP3   OH211699   1.348   2.285   1.663 -0.2295 -0.2860 -0.3257
 3912TIP3    H111700   1.384   2.237   1.737  1.0694 -0.0132 -0.7324
 3912TIP3    H211701   1.254   2.270   1.667  0.0923 -2.6378 -0.2983
 3913TIP3   OH211702   6.735   6.676   5.108 -0.4494  0.1404 -0.3362
 3913TIP3    H111703   6.811   6.700   5.162 -0.2814 -0.1473 -0.4443
 3913TIP3    H211704   6.717   6.585   5.131 -1.2455  0.4293  0.2665
 3914TIP3   OH211705   0.231   0.001   5.441  0.1975 -0.1579 -0.0581
 3914TIP3    H111706   0.256   0.035   5.526 -1.1392  0.5881  0.0786
 3914TIP3    H211707   0.312  -0.002   5.391  0.7544  0.9180  0.7347
 3915TIP3   OH211708   1.598   2.613   5.154  0.2436  0.1873  0.5061
 3915TIP3    H111709   1.600   2.567   5.070 -0.7613 -0.2063  0.6812
 3915TIP3    H211710   1.677   2.585   5.200  0.3812 -0.2225  0.0236
 3916TIP3   OH211711   1.093   6.653   2.492 -0.3371  0.0350 -0.2204
 3916TIP3    H111712   1.045   6.616   2.417 -0.6553 -1.3880  0.6440
 3916TIP3    H211713   1.165   6.702   2.453  0.6239 -2.2273 -1.4509
 3917TIP3   OH211714   5.391   0.989   2.894  0.3317 -0.8571  0.3059
 3917TIP3    H111715   5.456   1.016   2.959  0.0293 -0.1718  0.3310
 3917TIP3    H211716   5.437   0.991   2.811 -0.0670  1.2520  0.0893
 3918TIP3   OH211717   1.270   1.598   1.536 -0.2140 -0.4097  0.3357
 3918TIP3    H111718   1.224   1.515   1.524 -0.7200 -0.1449  0.4329
 3918TIP3    H211719   1.363   1.573   1.542 -0.2531 -0.8727 -0.7088
 3919TIP3   OH211720   6.738   1.470   0.381 -0.4515 -0.0261 -0.7155
 3919TIP3    H111721   6.815   1.430   0.422 -0.7402  1.8505  1.9720
 3919TIP3    H211722   6.774   1.535   0.322  0.0552  0.1303 -0.2495
 3920TIP3   OH211723   5.298   3.452   1.671  0.1965 -0.1132  0.1308
 3920TIP3    H111724   5.376   3.424   1.624 -0.5686  0.4686 -1.5711
 3920TIP3    H211725   5.330   3.514   1.737  1.0872  1.0767 -1.3424
 3921TIP3   OH211726   4.477   2.569   0.757 -0.3525  0.4353 -0.7377
 3921TIP3    H111727   4.390   2.531   0.769  0.3336 -0.5025  1.9430
 3921TIP3    H211728   4.515   2.519   0.685 -0.7928 -1.6255  0.3647
 3922TIP3   OH211729   4.783   1.373   4.464  0.4104 -0.6344 -0.1724
 3922TIP3    H111730   4.846   1.336   4.526  0.0672 -2.6286 -0.9639
 3922TIP3    H211731   4.697   1.354   4.502  0.2001  1.9906  0.8576
 3923TIP3   OH211732   1.428   4.272   0.748 -0.1285  0.0427 -0.5214
 3923TIP3    H111733   1.336   4.279   0.774 -0.2532 -2.5317  0.0464
 3923TIP3    H211734   1.475   4.328   0.810 -1.3407  2.3224 -1.5284
 3924TIP3   OH211735   3.158   3.385   4.721 -0.2921  0.3166 -0.1107
 3924TIP3    H111736   3.212   3.334   4.781 -2.5091  0.1797  1.8971
 3924TIP3    H211737   3.183   3.353   4.634  1.2090 -1.3214  0.8490
 3925TIP3   OH211738   4.315   1.832   4.582 -0.1125 -0.3562  0.0232
 3925TIP3    H111739   4.229   1.819   4.623  0.0878 -1.6084  0.1036
 3925TIP3    H211740   4.342   1.919   4.609 -1.8753  0.5472 -0.9533
 3926TIP3   OH211741   5.778   0.968   4.534  0.3772 -0.1914  0.4455
 3926TIP3    H111742   5.744   0.976   4.445  2.6633 -0.1398 -0.4888
 3926TIP3    H211743   5.702   0.984   4.590 -1.0296  0.2297 -1.4797
 3927TIP3   OH211744   3.586   2.128   5.150  0.0015 -0.6597  0.3183
 3927TIP3    H111745   3.627   2.210   5.176  0.4954 -1.1658  1.1859
 3927TIP3    H211746   3.652   2.061   5.170  0.9722 -1.0511 -3.3181
 3928TIP3   OH211747   3.220   0.776   4.569  0.3028  0.0208  0.3588
 3928TIP3    H111748   3.174   0.845   4.616  0.3265  0.1988  0.1252
 3928TIP3    H211749   3.295   0.754   4.624 -0.6000 -0.9691  1.2316
 3929TIP3   OH211750   1.374   3.023   5.623 -0.0419  0.1473 -0.1856
 3929TIP3    H111751   1.282   2.998   5.622 -0.1836  0.6719 -0.5012
 3929TIP3    H211752   1.390   3.056   5.711  0.0071 -0.5236  0.0619
 3930TIP3   OH211753   6.709   1.336   4.229  0.3199 -0.6977  0.5087
 3930TIP3    H111754   6.753   1.376   4.304  1.2314 -1.1090  0.2100
 3930TIP3    H211755   6.774   1.276   4.192 -0.0349 -0.3561 -0.7252
 3931TIP3   OH211756   0.731   2.442   1.041  0.8243 -0.5192  0.6268
 3931TIP3    H111757   0.758   2.446   1.133  2.0955 -0.2061  0.2730
 3931TIP3    H211758   0.743   2.532   1.009  0.1502 -0.5731  0.2209
 3932TIP3   OH211759   0.925   5.282   3.639  0.0856  0.5345 -0.3926
 3932TIP3    H111760   1.005   5.298   3.688  0.1215 -0.7528  0.0089
 3932TIP3    H211761   0.949   5.215   3.575 -0.5434  0.4782 -0.5814
 3933TIP3   OH211762   6.746   2.466   0.946  0.0564 -0.4564 -0.1607
 3933TIP3    H111763   6.716   2.376   0.932  1.2299 -0.8696 -0.1375
 3933TIP3    H211764   6.828   2.472   0.896 -0.3065  0.7869 -0.6477
 3934TIP3   OH211765   2.767   4.476   3.872 -0.3727  0.8375  0.0260
 3934TIP3    H111766   2.723   4.518   3.799 -0.7022  0.6849  0.1326
 3934TIP3    H211767   2.700   4.421   3.912 -0.2566  1.0806  0.5703
 3935TIP3   OH211768   3.866   4.709   2.292  0.3034 -0.0109  0.1984
 3935TIP3    H111769   3.825   4.625   2.309 -0.5907  0.9275  3.4274
 3935TIP3    H211770   3.810   4.751   2.226 -1.1852 -0.6610  1.0106
 3936TIP3   OH211771   5.329   0.311   1.749 -0.0621  0.0423  0.7753
 3936TIP3    H111772   5.418   0.279   1.735 -0.1561 -0.1255  0.5527
 3936TIP3    H211773   5.306   0.280   1.836 -0.0173 -0.1861  0.7068
 3937TIP3   OH211774   0.744   3.492   4.814 -0.2676 -0.4382  0.0822
 3937TIP3    H111775   0.819   3.505   4.872  0.4080  2.0541 -1.2135
 3937TIP3    H211776   0.766   3.412   4.765  0.4591 -0.9904  1.2572
 3938TIP3   OH211777   3.984   1.846   2.474 -0.3701  0.2414 -0.3203
 3938TIP3    H111778   3.898   1.851   2.432 -1.0734 -0.6006  0.9349
 3938TIP3    H211779   4.041   1.804   2.409 -0.6923  1.4984 -1.4528
 3939TIP3   OH211780   3.472   3.593   5.794  0.1403  0.2702  0.7834
 3939TIP3    H111781   3.559   3.557   5.774  0.1168  0.6752 -0.1019
 3939TIP3    H211782   3.471   3.601   5.889  0.8075 -0.4019  0.8600
 3940TIP3   OH211783   5.119   4.651   1.778  0.7980  0.3719 -0.1162
 3940TIP3    H111784   5.105   4.745   1.764  2.1839  0.5879 -0.1921
 3940TIP3    H211785   5.186   4.628   1.714  0.9885 -0.5126  0.3965
 3941TIP3   OH211786   4.486   4.556   1.851 -0.2339 -0.1271  0.2565
 3941TIP3    H111787   4.405   4.591   1.815 -0.2357 -1.5960 -1.2551
 3941TIP3    H211788   4.554   4.613   1.817 -0.4754  0.1668  0.2551
 3942TIP3   OH211789   2.084   1.154   2.114 -0.6094 -0.6880  0.1762
 3942TIP3    H111790   2.080   1.244   2.084 -0.4509 -1.2721 -1.7086
 3942TIP3    H211791   2.018   1.108   2.062 -2.3428 -1.2837  2.6827
 3943TIP3   OH211792   3.506   5.126   0.006 -0.4121  0.3109  0.7694
 3943TIP3    H111793   3.548   5.040   0.011 -0.4654  0.2648  0.4205
 3943TIP3    H211794   3.413   5.108   0.012 -0.3953  0.4038  1.4097
 3944TIP3   OH211795   1.234   5.087   0.436 -0.0605 -0.3691  0.2582
 3944TIP3    H111796   1.192   5.023   0.380 -0.6650  0.3655 -0.1410
 3944TIP3    H211797   1.256   5.039   0.516  1.4660 -1.6152 -0.8542
 3945TIP3   OH211798   5.110   2.239   2.213  0.1121  0.3414  0.3649
 3945TIP3    H111799   5.054   2.312   2.187 -0.3645 -0.0778  0.1910
 3945TIP3    H211800   5.050   2.176   2.254 -0.0444 -1.2994 -2.1772
 3946TIP3   OH211801   3.117   6.159   2.104  0.2390  0.2831 -0.3875
 3946TIP3    H111802   3.114   6.177   2.010  0.9986  1.4959 -0.2039
 3946TIP3    H211803   3.208   6.137   2.121 -0.3825 -2.6704 -0.3572
 3947TIP3   OH211804   1.771   0.429   1.894 -0.1356  0.3693  0.2050
 3947TIP3    H111805   1.750   0.378   1.816 -1.2737  0.1811  0.6143
 3947TIP3    H211806   1.864   0.413   1.908 -0.2351 -0.7594 -0.2770
 3948TIP3   OH211807   3.151   1.138   0.954 -0.2462  0.0332  0.2016
 3948TIP3    H111808   3.136   1.051   0.916  0.3906 -0.5566  1.2746
 3948TIP3    H211809   3.183   1.121   1.042  0.8328  1.3432  0.0908
 3949TIP3   OH211810   0.358   2.158   0.533 -0.1789 -0.5372  0.3177
 3949TIP3    H111811   0.374   2.082   0.477  2.4695 -0.0288  0.2958
 3949TIP3    H211812   0.334   2.228   0.473  1.7999 -0.2244 -0.1637
 3950TIP3   OH211813   6.038   5.379   4.082  0.4531 -0.0950  0.0446
 3950TIP3    H111814   5.961   5.322   4.073  0.7911 -1.0864  2.4928
 3950TIP3    H211815   6.036   5.407   4.174  3.1096 -0.3424  0.2549
 3951TIP3   OH211816   6.195   3.325   5.850  0.2409  0.1150  0.7703
 3951TIP3    H111817   6.177   3.313   5.943 -0.8871 -0.6042  0.4767
 3951TIP3    H211818   6.179   3.239   5.811 -0.5294  0.7075 -0.2703
 3952TIP3   OH211819   2.767   2.259   0.372  0.5156 -0.1766  0.2766
 3952TIP3    H111820   2.731   2.346   0.390  1.8684  0.0922  1.8611
 3952TIP3    H211821   2.716   2.199   0.427  0.7979 -0.1319  0.5901
 3953TIP3   OH211822   2.118   4.194   5.096 -0.1142 -0.0871 -0.0310
 3953TIP3    H111823   2.099   4.288   5.096 -0.4117 -0.1222 -1.2573
 3953TIP3    H211824   2.200   4.186   5.048 -0.4382 -0.4993 -0.5375
 3954TIP3   OH211825   2.600   2.563   1.169  0.4260 -0.5180 -0.3905
 3954TIP3    H111826   2.507   2.548   1.186 -0.2110  0.1088 -2.9774
 3954TIP3    H211827   2.641   2.555   1.255 -2.1443  0.3343  1.0227
 3955TIP3   OH211828   5.944   1.929   2.973 -0.6437  0.1264  0.4083
 3955TIP3    H111829   5.871   1.970   3.019  0.1691  1.0670  0.9174
 3955TIP3    H211830   5.913   1.918   2.884 -1.5304  0.1823  0.6981
 3956TIP3   OH211831   5.262   2.985   2.462  0.0115  0.0843  0.5825
 3956TIP3    H111832   5.217   2.932   2.397  0.9315 -0.2697  0.2214
 3956TIP3    H211833   5.355   2.980   2.438  0.2011  1.2156  1.0045
 3957TIP3   OH211834   4.376   2.858   5.581  0.0352 -0.0422  0.2126
 3957TIP3    H111835   4.439   2.821   5.519  0.7716  0.4473  0.6500
 3957TIP3    H211836   4.381   2.801   5.657  0.6415  0.5239  0.6067
 3958TIP3   OH211837   3.733   5.271   4.353  0.1213  0.1286  0.3880
 3958TIP3    H111838   3.800   5.227   4.301  1.3269  0.8475  1.2825
 3958TIP3    H211839   3.761   5.362   4.356 -1.7184  0.7699 -0.4655
 3959TIP3   OH211840   0.610   6.397   3.953  0.1828  0.1643 -0.7578
 3959TIP3    H111841   0.647   6.309   3.962  0.2428  0.1727 -0.9218
 3959TIP3    H211842   0.645   6.446   4.027 -0.9737 -0.3399  0.1568
 3960TIP3   OH211843   1.100   5.518   1.021  0.1468 -0.0743  0.1179
 3960TIP3    H111844   1.113   5.593   0.963 -1.5690  1.4104  1.5676
 3960TIP3    H211845   1.188   5.498   1.054  0.8465  0.3114 -1.4112
 3961TIP3   OH211846   7.121   0.239   2.562 -0.7276 -0.0932 -0.0875
 3961TIP3    H111847   7.069   0.314   2.531  0.5525  0.6636 -0.4617
 3961TIP3    H211848   7.208   0.254   2.526 -0.0205 -0.8878  1.2462
 3962TIP3   OH211849   6.745   3.832   1.550 -0.1896 -0.3790 -0.1706
 3962TIP3    H111850   6.686   3.797   1.616  0.0132 -0.5109 -0.0596
 3962TIP3    H211851   6.733   3.927   1.555 -2.3200 -0.4709 -1.9199
 3963TIP3   OH211852   5.773   3.752   3.840  0.5042 -0.1290  0.2705
 3963TIP3    H111853   5.859   3.711   3.854  0.1422 -0.6490  1.0086
 3963TIP3    H211854   5.782   3.839   3.879 -0.1080 -1.1211  2.8548
 3964TIP3   OH211855   2.797   5.935   0.931  0.3005  0.2522  0.1636
 3964TIP3    H111856   2.778   5.990   1.008 -0.6807 -1.2867  1.0729
 3964TIP3    H211857   2.720   5.879   0.923  0.7546 -0.1792 -1.4767
 3965TIP3   OH211858   2.203   5.907   3.789  0.0372 -0.1249 -0.1104
 3965TIP3    H111859   2.185   5.954   3.870 -1.6872 -1.1244  0.1205
 3965TIP3    H211860   2.174   5.968   3.720 -0.6846 -0.1971  0.1225
 3966TIP3   OH211861   2.453   1.736   3.414  0.2319  1.0690  0.3541
 3966TIP3    H111862   2.511   1.722   3.489  0.1277  0.2724  0.2970
 3966TIP3    H211863   2.491   1.682   3.345 -2.0964 -1.7707  1.1038
 3967TIP3   OH211864   1.914   5.632   5.148  0.0729  1.0471  0.1717
 3967TIP3    H111865   1.858   5.650   5.073  0.1579  2.2087  0.3700
 3967TIP3    H211866   1.894   5.702   5.210  0.1452  0.2136  1.1588
 3968TIP3   OH211867   3.003   2.773   1.378  0.6823 -0.2510 -0.4950
 3968TIP3    H111868   3.090   2.784   1.415  1.4131  0.5527 -2.3411
 3968TIP3    H211869   2.944   2.808   1.445  1.6360 -1.7608  1.2231
 3969TIP3   OH211870   0.315   3.422   4.367  0.2123  0.4408  0.1642
 3969TIP3    H111871   0.231   3.386   4.338  0.2020 -1.8785  2.6713
 3969TIP3    H211872   0.290   3.498   4.421 -0.3016 -0.3017  0.9918
 3970TIP3   OH211873   2.460   0.851   2.546  0.1168  0.0204  0.4839
 3970TIP3    H111874   2.533   0.865   2.606 -0.0828  0.8811  0.5485
 3970TIP3    H211875   2.495   0.876   2.460  0.4153 -1.2497  0.2137
 3971TIP3   OH211876   5.184   0.864   1.916  0.1879 -0.0930  0.4652
 3971TIP3    H111877   5.186   0.817   1.999  2.5847 -0.8299  0.0664
 3971TIP3    H211878   5.178   0.956   1.940  0.8795 -0.3019  1.4959
 3972TIP3   OH211879   5.720   4.572   1.762  0.0155 -0.5180  0.3912
 3972TIP3    H111880   5.802   4.527   1.743 -0.6400 -1.3640 -0.5766
 3972TIP3    H211881   5.731   4.607   1.850  1.2409 -1.0080  0.4496
 3973TIP3   OH211882   7.176   2.873   2.940  0.0319  0.5482 -0.6470
 3973TIP3    H111883   7.156   2.967   2.941  0.5652  0.7150  2.1638
 3973TIP3    H211884   7.091   2.831   2.929 -0.9074  1.3843  2.4306
 3974TIP3   OH211885   6.382   2.684   2.612 -0.4298 -0.1150 -0.2928
 3974TIP3    H111886   6.434   2.645   2.542  0.2082  0.7961 -0.3363
 3974TIP3    H211887   6.335   2.610   2.651  0.5178 -0.8780 -0.5729
 3975TIP3   OH211888   2.839   2.495   4.807 -0.9124  0.0413  0.1738
 3975TIP3    H111889   2.789   2.451   4.738  0.3245  2.9327 -2.8426
 3975TIP3    H211890   2.924   2.451   4.806 -0.8321  0.2013 -0.3227
 3976TIP3   OH211891   6.236   5.241   4.423  0.5666 -0.4639  0.1140
 3976TIP3    H111892   6.267   5.331   4.430 -0.8260  0.0681 -0.1397
 3976TIP3    H211893   6.151   5.242   4.467  0.4850 -1.6328  0.0080
 3977TIP3   OH211894   6.729   2.634   4.081 -0.0785 -0.8311  0.0725
 3977TIP3    H111895   6.780   2.715   4.081 -1.9754  0.5079  2.5852
 3977TIP3    H211896   6.666   2.646   4.009  0.2734 -0.5239 -0.1888
 3978TIP3   OH211897   3.724   3.386   0.759  0.5112  0.2237  0.1237
 3978TIP3    H111898   3.685   3.456   0.810 -0.0862 -0.4738  0.6509
 3978TIP3    H211899   3.656   3.318   0.756  1.2034 -0.4758 -0.0566
 3979TIP3   OH211900   5.636   4.594   3.845 -0.1846  0.0464  0.6575
 3979TIP3    H111901   5.627   4.562   3.935 -3.1196  0.9384  0.7901
 3979TIP3    H211902   5.570   4.546   3.795  0.6859  0.3151 -0.8076
 3980TIP3   OH211903   5.527   4.266   0.414  0.4298 -0.3336 -0.0197
 3980TIP3    H111904   5.455   4.249   0.475  0.9291  0.4991  0.8259
 3980TIP3    H211905   5.494   4.335   0.356  0.6387  0.2525  0.5507
 3981TIP3   OH211906   5.931   1.321   3.276 -0.1630 -0.0871  0.3379
 3981TIP3    H111907   5.864   1.389   3.285 -0.6995 -0.8729  3.1799
 3981TIP3    H211908   5.932   1.301   3.182 -1.8031  2.0150 -0.2057
 3982TIP3   OH211909   1.228   6.449   0.235  0.2935  0.3536  0.3551
 3982TIP3    H111910   1.213   6.438   0.141 -0.1070 -0.1150  0.4717
 3982TIP3    H211911   1.169   6.386   0.276 -0.9442  1.8629  0.9915
 3983TIP3   OH211912   5.627   1.660   4.234 -0.1406 -0.6692 -0.2855
 3983TIP3    H111913   5.536   1.648   4.210 -0.2132 -0.1185 -0.2858
 3983TIP3    H211914   5.669   1.692   4.154  0.0095 -0.7038 -0.2211
 3984TIP3   OH211915   3.332   1.222   3.081  0.9092 -0.5217  0.2911
 3984TIP3    H111916   3.295   1.208   2.994  1.0629 -0.4250  0.2097
 3984TIP3    H211917   3.416   1.178   3.080  0.2451 -1.8595  0.9036
 3985TIP3   OH211918   1.210   3.606   1.510 -0.3219 -0.3184  0.7527
 3985TIP3    H111919   1.121   3.598   1.474 -0.8622  4.4273  0.4191
 3985TIP3    H211920   1.202   3.576   1.600 -2.8068  1.3824  1.2090
 3986TIP3   OH211921   6.698   3.000   4.578 -0.1461  0.1695  0.2097
 3986TIP3    H111922   6.662   3.060   4.512 -1.3184  0.5916  1.2110
 3986TIP3    H211923   6.733   2.927   4.526 -2.0793 -0.0683 -0.8607
 3987TIP3   OH211924   5.731   4.958   4.559 -0.3163  0.2517 -0.3828
 3987TIP3    H111925   5.672   4.928   4.629  1.5516 -1.9376  0.3856
 3987TIP3    H211926   5.685   4.937   4.478 -0.4554 -1.9019  0.1860
 3988TIP3   OH211927   0.853   2.659   0.449  0.0113  0.4038 -0.0106
 3988TIP3    H111928   0.875   2.693   0.536  0.7091  1.0515 -0.4342
 3988TIP3    H211929   0.812   2.732   0.404  1.4760  0.7065 -0.9086
 3989TIP3   OH211930   4.061   0.491   0.732  0.1613  0.3293 -0.1839
 3989TIP3    H111931   4.070   0.402   0.765  0.7842 -0.3849 -2.1501
 3989TIP3    H211932   3.980   0.490   0.681  0.3282  0.8051 -0.4650
 3990TIP3   OH211933   0.399   1.247   2.117  0.6537  0.1616 -0.3126
 3990TIP3    H111934   0.358   1.300   2.185 -0.4292 -0.0683 -0.7677
 3990TIP3    H211935   0.330   1.234   2.052  1.2005 -0.9594 -0.6877
 3991TIP3   OH211936   0.508  -0.002   3.405 -0.6532 -0.1138 -0.0031
 3991TIP3    H111937   0.443   0.031   3.343  0.2746  0.8011 -0.5139
 3991TIP3    H211938   0.491   0.046   3.486 -0.8583 -0.1601 -0.0176
 3992TIP3   OH211939   2.472   3.432   4.065  0.0122 -0.2491  0.3897
 3992TIP3    H111940   2.447   3.437   4.158  3.1677  0.3758  1.3447
 3992TIP3    H211941   2.551   3.378   4.065  0.0889 -0.2178 -1.9604
 3993TIP3   OH211942   1.575   3.466   1.883 -0.7650 -0.2002  0.5261
 3993TIP3    H111943   1.614   3.378   1.881  0.0837  0.1789 -2.0470
 3993TIP3    H211944   1.482   3.452   1.863 -0.1804 -0.3715 -2.3933
 3994TIP3   OH211945   2.890   2.961   4.669 -0.7401  0.0019  0.1159
 3994TIP3    H111946   2.873   3.035   4.727 -1.6328  0.9732 -1.3234
 3994TIP3    H211947   2.856   2.885   4.716 -1.6915  0.8034  0.7569
 3995TIP3   OH211948   1.451   3.206   4.764  0.4865 -0.2922 -0.3913
 3995TIP3    H111949   1.388   3.228   4.695  0.8836  0.4590 -0.5307
 3995TIP3    H211950   1.484   3.120   4.740 -0.8610 -0.9276 -0.0327
 3996TIP3   OH211951   4.063   0.579   1.031  0.2064  0.1847  0.3183
 3996TIP3    H111952   4.015   0.575   0.948  0.4766  1.3034  0.0922
 3996TIP3    H211953   4.035   0.501   1.078  1.1681 -1.3154 -1.4374
 3997TIP3   OH211954   0.101   6.529   3.844 -0.3408 -0.2473  0.8720
 3997TIP3    H111955   0.104   6.444   3.888  1.0760  1.0993  3.6561
 3997TIP3    H211956   0.193   6.553   3.832 -0.7216  0.4321 -0.8864
 3998TIP3   OH211957   4.500   3.189   2.742 -0.0666  0.2546  0.5444
 3998TIP3    H111958   4.468   3.192   2.652  0.6542  0.9996  0.2943
 3998TIP3    H211959   4.568   3.122   2.742  0.3888  0.7078  0.3646
 3999TIP3   OH211960   3.130   2.688   3.666 -0.6369 -0.4407  0.0524
 3999TIP3    H111961   3.166   2.666   3.752  0.6801 -0.3482 -0.4576
 3999TIP3    H211962   3.161   2.777   3.649  0.0756 -0.8652 -0.9869
 4000TIP3   OH211963   6.234   4.472   1.478  0.7138 -0.3101  0.3925
 4000TIP3    H111964   6.275   4.411   1.539  0.8263 -1.4777 -0.8018
 4000TIP3    H211965   6.233   4.425   1.395  0.0241  1.0091 -0.3717
 4001TIP3   OH211966   0.793   3.558   5.740 -0.2137 -0.0672 -0.5869
 4001TIP3    H111967   0.829   3.470   5.730  0.7120  0.4195 -1.8259
 4001TIP3    H211968   0.699   3.544   5.753  0.3204 -1.3909  3.0755
 4002TIP3   OH211969   6.416   0.452   0.502  0.4723 -0.0646 -0.1826
 4002TIP3    H111970   6.442   0.479   0.590  2.5786  0.1408 -0.8048
 4002TIP3    H211971   6.469   0.374   0.484 -0.1619 -0.2898 -1.1320
 4003TIP3   OH211972   2.739   6.650   5.364  0.3018  0.5716 -0.2780
 4003TIP3    H111973   2.824   6.696   5.360  0.2393  0.8742  1.2552
 4003TIP3    H211974   2.739   6.594   5.287  2.1205  0.1995 -0.0630
 4004TIP3   OH211975   5.898   3.036   2.656  0.5085 -0.4896 -0.0241
 4004TIP3    H111976   5.806   3.009   2.649  0.7490 -1.4317  0.3461
 4004TIP3    H211977   5.938   3.004   2.575  0.2204  1.2140 -0.8934
 4005TIP3   OH211978   0.830   3.161   1.658 -0.0574 -0.4702  0.1564
 4005TIP3    H111979   0.802   3.081   1.613 -0.8373  0.5644 -1.2853
 4005TIP3    H211980   0.923   3.147   1.676  0.1969 -1.1238 -1.4539
 4006TIP3   OH211981   6.259   6.210   1.935 -0.2805 -0.4251 -0.1755
 4006TIP3    H111982   6.227   6.185   1.848 -0.0338 -1.1170 -0.0787
 4006TIP3    H211983   6.349   6.178   1.938 -0.2241 -0.2411  0.2668
 4007TIP3   OH211984   2.510   3.689   3.410 -0.5919  0.7110  0.4395
 4007TIP3    H111985   2.442   3.632   3.444 -0.8010  1.0535  0.5969
 4007TIP3    H211986   2.467   3.738   3.340 -0.4250  0.7103  0.3356
 4008TIP3   OH211987   3.881   5.339   5.834  0.0893  0.3278 -0.3188
 4008TIP3    H111988   3.891   5.304   5.746  1.7517 -0.6243  0.2066
 4008TIP3    H211989   3.848   5.265   5.886 -0.1134  0.6598  0.0343
 4009TIP3   OH211990   6.489   6.776   3.483 -0.4078 -0.1132 -0.0687
 4009TIP3    H111991   6.559   6.721   3.518 -0.7269  0.5936  1.8092
 4009TIP3    H211992   6.409   6.729   3.504 -0.5894  0.0482 -0.3901
 4010TIP3   OH211993   5.434   5.831   5.482  0.2283 -0.5199  0.8757
 4010TIP3    H111994   5.414   5.800   5.394  1.4060  1.1585 -0.0389
 4010TIP3    H211995   5.349   5.834   5.527 -0.7346  0.6630 -0.9185
 4011TIP3   OH211996   4.378   1.943   5.706 -0.1963  0.4897  0.1792
 4011TIP3    H111997   4.466   1.904   5.700 -1.3308 -2.1972 -0.7434
 4011TIP3    H211998   4.332   1.888   5.769 -1.0172  2.4305  1.3604
 4012TIP3   OH211999   3.167   4.149   2.332  0.4486 -0.2163  0.4090
 4012TIP3    H112000   3.248   4.099   2.339  0.4618 -0.0337  2.1144
 4012TIP3    H212001   3.183   4.228   2.384 -1.0485 -0.5288  1.4070
 4013TIP3   OH212002   6.524   3.249   0.262  0.2416 -0.2408  0.2712
 4013TIP3    H112003   6.563   3.169   0.295 -0.1086 -1.1914 -1.5010
 4013TIP3    H212004   6.581   3.275   0.189 -0.5088  0.2464 -0.1584
 4014TIP3   OH212005   4.581   3.707   3.589 -0.1635 -0.2528 -0.2106
 4014TIP3    H112006   4.518   3.778   3.574 -0.3521 -0.6514 -1.3770
 4014TIP3    H212007   4.597   3.671   3.502 -0.2541 -1.8005  0.3945
 4015TIP3   OH212008   5.524   4.507   4.078 -0.4709 -0.1172 -0.8760
 4015TIP3    H112009   5.442   4.483   4.035 -2.3545  1.8439  1.2779
 4015TIP3    H212010   5.537   4.440   4.145  0.1286 -0.8409 -1.7032
 4016TIP3   OH212011   3.026   6.792   2.811 -0.2031 -0.7509 -0.0357
 4016TIP3    H112012   2.980   6.804   2.894  0.8156  2.3114  0.2183
 4016TIP3    H212013   2.959   6.808   2.744 -0.3754 -0.1573  0.2680
 4017TIP3   OH212014   3.807   2.790   1.908 -0.7203  0.0086  0.3721
 4017TIP3    H112015   3.862   2.820   1.836  1.5080 -1.1143  1.4836
 4017TIP3    H212016   3.742   2.859   1.919  1.4184  2.2430 -0.0447
 4018TIP3   OH212017   3.080   1.132   0.352 -0.9271  0.1851 -0.0142
 4018TIP3    H112018   2.997   1.152   0.394 -0.4127  0.7077  0.7596
 4018TIP3    H212019   3.077   1.037   0.340 -1.9548  0.2811 -0.7004
 4019TIP3   OH212020   7.185   4.873   2.235 -0.5066  0.0742 -0.1137
 4019TIP3    H112021   7.114   4.862   2.298  0.8320 -1.7761  1.2175
 4019TIP3    H212022   7.255   4.914   2.286  0.6541 -1.5741 -0.2786
 4020TIP3   OH212023   1.139   4.187   1.647 -0.3913  0.4660  0.5255
 4020TIP3    H112024   1.116   4.277   1.670 -1.2513  0.3653  0.0871
 4020TIP3    H212025   1.157   4.190   1.553  1.3963  0.5326  0.8434
 4021TIP3   OH212026   5.997   1.786   0.406 -0.7015 -0.3919  0.0815
 4021TIP3    H112027   5.906   1.762   0.419 -0.8690  0.0539 -0.2341
 4021TIP3    H212028   6.030   1.807   0.493 -1.4923  1.4869 -0.0229
 4022TIP3   OH212029   1.918   3.115   0.455  0.1509 -0.1280  0.0146
 4022TIP3    H112030   1.831   3.143   0.485  0.9888  0.5590  1.9295
 4022TIP3    H212031   1.932   3.162   0.374 -0.9661  0.3277  0.0713
 4023TIP3   OH212032   1.224   0.444   2.912 -0.3719 -0.1094 -0.0444
 4023TIP3    H112033   1.292   0.498   2.951 -0.5307  0.3247 -0.3542
 4023TIP3    H212034   1.260   0.356   2.911 -0.5907 -0.2449  1.6113
 4024TIP3   OH212035   1.715   1.244   2.321 -0.2905  0.2480  0.6201
 4024TIP3    H112036   1.693   1.329   2.359  0.8608 -0.4752  3.0932
 4024TIP3    H212037   1.734   1.263   2.229 -2.2389  2.2663  0.5771
 4025TIP3   OH212038   1.847   3.520   1.823 -0.4295  0.2682  0.0275
 4025TIP3    H112039   1.753   3.506   1.837 -0.0306 -0.6813  2.1148
 4025TIP3    H212040   1.885   3.433   1.828  0.7327  0.7945  0.7987
 4026TIP3   OH212041   2.284   4.403   1.564 -0.1871 -0.4190  0.4334
 4026TIP3    H112042   2.215   4.470   1.567  0.3913  0.2202 -0.1262
 4026TIP3    H212043   2.313   4.402   1.473 -0.2993 -1.5699  0.3929
 4027TIP3   OH212044   4.142   1.522   4.117  0.6633  0.0143  0.3163
 4027TIP3    H112045   4.219   1.563   4.158  0.3492  1.0448 -0.0936
 4027TIP3    H212046   4.154   1.537   4.023 -0.9174  1.8581  0.3359
 4028TIP3   OH212047   0.274   3.574   1.789 -0.3647  0.5647 -0.1692
 4028TIP3    H112048   0.223   3.499   1.758 -1.2662  1.7324 -1.6410
 4028TIP3    H212049   0.353   3.574   1.734 -0.5552  0.9158 -0.4458
 4029TIP3   OH212050   7.108   4.558   3.081  0.0648 -0.2549 -0.0583
 4029TIP3    H112051   7.131   4.623   3.148 -1.8791  1.2161 -0.6980
 4029TIP3    H212052   7.180   4.496   3.081  1.1002  0.8597  1.9450
 4030TIP3   OH212053   6.169   1.025   4.971 -0.2115  0.1842  0.4739
 4030TIP3    H112054   6.111   1.080   5.024 -2.9618 -1.3084 -0.7607
 4030TIP3    H212055   6.211   0.967   5.035 -0.2163  1.1461  1.3853
 4031TIP3   OH212056   0.415   0.029   2.647 -0.2402  0.1076  0.4488
 4031TIP3    H112057   0.391  -0.041   2.586 -0.1716  0.7082 -0.2754
 4031TIP3    H212058   0.442   0.102   2.591 -0.2667  0.7024  1.1956
 4032TIP3   OH212059   6.580   5.881   3.789  0.5316 -0.3762 -0.3792
 4032TIP3    H112060   6.523   5.824   3.841 -1.4238  1.2317 -0.6461
 4032TIP3    H212061   6.526   5.907   3.714  2.2905 -0.2814 -1.6942
 4033TIP3   OH212062   1.090   1.989   5.818 -0.6935 -0.4745  0.4932
 4033TIP3    H112063   0.997   2.004   5.800 -0.9153 -1.2047  0.9798
 4033TIP3    H212064   1.093   1.902   5.858  0.3013 -0.8335 -0.3151
 4034TIP3   OH212065   3.376   1.012   4.209  0.1714 -0.5392  0.1147
 4034TIP3    H112066   3.356   0.943   4.272 -1.2516 -0.5072 -0.2861
 4034TIP3    H212067   3.430   1.074   4.258  0.5670 -1.3931  0.7843
 4035TIP3   OH212068   1.921   2.278   2.342 -0.1522 -0.2490  0.1404
 4035TIP3    H112069   1.841   2.230   2.323  0.5832 -1.7969  0.7196
 4035TIP3    H212070   1.970   2.277   2.259 -0.9613  1.2134 -0.3748
 4036TIP3   OH212071   2.232   0.584   2.398  1.0046 -0.1091  0.6595
 4036TIP3    H112072   2.310   0.622   2.438  0.4567  0.8185  0.8862
 4036TIP3    H212073   2.168   0.582   2.469  0.2536  0.8690  0.0426
 4037TIP3   OH212074   3.419   6.608   4.594  0.6344 -0.2660  0.3927
 4037TIP3    H112075   3.507   6.584   4.623  0.0024 -3.4288  0.0621
 4037TIP3    H212076   3.431   6.639   4.504  1.5756  1.1262  0.9710
 4038TIP3   OH212077   4.408   5.261   1.575 -0.0799 -0.3686  0.3929
 4038TIP3    H112078   4.485   5.264   1.632 -0.8461 -0.3158  1.4542
 4038TIP3    H212079   4.344   5.316   1.620 -0.9832 -0.9937 -0.1170
 4039TIP3   OH212080   5.951   3.858   3.142  0.1942 -0.0865  0.3587
 4039TIP3    H112081   6.005   3.931   3.114 -2.3524  1.4102 -1.0313
 4039TIP3    H212082   5.981   3.837   3.231  1.4341  2.1945  0.5280
 4040TIP3   OH212083   5.892   6.348   2.406 -0.0170  0.5027  0.4838
 4040TIP3    H112084   5.956   6.385   2.466  0.2063 -0.3838  0.8025
 4040TIP3    H212085   5.885   6.413   2.335  2.3795 -0.0687 -0.3633
 4041TIP3   OH212086   0.566   3.769   1.222  0.1988 -0.4709 -0.2206
 4041TIP3    H112087   0.568   3.848   1.167  0.2300 -0.0987  0.3133
 4041TIP3    H212088   0.499   3.787   1.287  0.9157 -0.4589  0.5294
 4042TIP3   OH212089   4.503   6.057   2.740  0.0062  0.5722  0.2215
 4042TIP3    H112090   4.586   6.105   2.740  0.1605  0.3071  0.1120
 4042TIP3    H212091   4.437   6.124   2.759  0.1806  0.8972 -0.3004
 4043TIP3   OH212092   4.991   2.808   0.090  0.1696  0.5953 -0.1556
 4043TIP3    H112093   5.083   2.818   0.064 -0.1953 -1.1715 -2.3806
 4043TIP3    H212094   4.949   2.767   0.015 -1.5872 -2.4245  2.2436
 4044TIP3   OH212095   5.743   6.077   4.608  0.4300  0.0636 -0.2347
 4044TIP3    H112096   5.738   6.142   4.538 -0.9040 -0.9178 -1.0966
 4044TIP3    H212097   5.833   6.043   4.602  0.5780  0.5539 -0.9426
 4045TIP3   OH212098   0.200   6.475   1.251 -0.3686 -0.1948  0.3426
 4045TIP3    H112099   0.226   6.529   1.326 -0.1845  1.4061 -0.8131
 4045TIP3    H212100   0.112   6.446   1.273 -0.7091  1.0713  0.7876
 4046TIP3   OH212101   6.095   1.913   1.199  0.3712  0.1043  0.1241
 4046TIP3    H112102   6.006   1.916   1.162  0.5444 -1.0988 -0.4725
 4046TIP3    H212103   6.152   1.941   1.127  0.7693 -2.8835 -0.8574
 4047TIP3   OH212104   5.888   4.303   1.600  0.5984  0.1671  0.0154
 4047TIP3    H112105   5.847   4.223   1.633 -1.4108  0.9028 -0.5698
 4047TIP3    H212106   5.902   4.286   1.507 -0.4664  0.7068 -0.2605
 4048TIP3   OH212107   2.671   5.081   1.178 -0.1537 -0.1088 -0.3807
 4048TIP3    H112108   2.612   5.007   1.196 -2.1771  1.1873 -1.3361
 4048TIP3    H212109   2.628   5.156   1.219  1.8171  0.6120  0.4891
 4049TIP3   OH212110   6.380   6.171   0.549  0.1755  0.1505  0.3348
 4049TIP3    H112111   6.407   6.173   0.457  1.4616  2.8251  0.6765
 4049TIP3    H212112   6.427   6.096   0.585  0.7661 -0.0986 -0.8800
 4050TIP3   OH212113   4.627   5.515   1.892  0.1156 -0.0688  0.6004
 4050TIP3    H112114   4.686   5.585   1.922  1.1658 -1.1171  1.0608
 4050TIP3    H212115   4.640   5.444   1.955  0.7198 -1.5113 -1.0510
 4051TIP3   OH212116   4.881   2.352   2.544  0.0040  0.1867  0.6053
 4051TIP3    H112117   4.941   2.345   2.617 -0.0932  1.2584  0.7993
 4051TIP3    H212118   4.920   2.417   2.485 -0.0465 -0.4633 -0.1753
 4052TIP3   OH212119   4.365   6.531   1.982  0.4393 -0.2416  0.1538
 4052TIP3    H112120   4.289   6.473   1.972 -0.9938  1.7430 -1.1908
 4052TIP3    H212121   4.332   6.618   1.960  3.0771  0.7469 -0.2512
 4053TIP3   OH212122   3.988   1.811   1.538 -0.4320  0.7214 -0.1982
 4053TIP3    H112123   4.066   1.799   1.592  0.5686 -1.6769 -1.9647
 4053TIP3    H212124   4.009   1.884   1.481  1.1669 -0.6875 -1.5264
 4054TIP3   OH212125   1.868   5.510   0.939 -0.5282  0.1494  0.7325
 4054TIP3    H112126   1.926   5.454   0.990 -0.4785 -0.7309 -0.2669
 4054TIP3    H212127   1.853   5.462   0.858 -0.3594  1.6618 -0.2296
 4055TIP3   OH212128   0.209   0.274   0.849 -0.7785 -0.5311 -0.0164
 4055TIP3    H112129   0.184   0.183   0.831  0.8101 -0.9565 -0.2234
 4055TIP3    H212130   0.302   0.278   0.827 -1.0083  1.3791 -0.8507
 4056TIP3   OH212131   0.496   5.543   3.900  0.2287 -0.4403  0.0411
 4056TIP3    H112132   0.518   5.621   3.848 -0.9910 -0.4812 -0.5651
 4056TIP3    H212133   0.425   5.571   3.958  1.6430 -0.3676  1.8222
 4057TIP3   OH212134   1.772   3.735   0.561  0.1463 -0.1573  0.2424
 4057TIP3    H112135   1.819   3.782   0.630  1.1326 -2.6594  1.3929
 4057TIP3    H212136   1.777   3.793   0.486  0.2036  2.1048  1.8761
 4058TIP3   OH212137   4.152   4.016   2.680 -0.4400  0.6337 -0.5248
 4058TIP3    H112138   4.219   4.033   2.746 -1.7908 -1.0528  1.4172
 4058TIP3    H212139   4.078   4.072   2.705 -1.3054 -0.6989  0.0391
 4059TIP3   OH212140   6.028   2.035   5.859 -0.3833  0.1798  0.0693
 4059TIP3    H112141   6.037   1.948   5.819 -0.8144  0.2666 -0.2208
 4059TIP3    H212142   6.112   2.078   5.841  0.0455 -0.3674  0.6901
 4060TIP3   OH212143   0.987   5.996   2.989  0.1003 -0.4085  0.8494
 4060TIP3    H112144   0.895   6.015   2.971 -0.2915 -2.0593  0.9267
 4060TIP3    H212145   1.011   6.057   3.058  0.1218  2.4482 -1.4896
 4061TIP3   OH212146   2.507   4.127   5.386  0.4485  0.8895  0.4961
 4061TIP3    H112147   2.527   4.172   5.304  2.5496  1.5464  1.2987
 4061TIP3    H212148   2.573   4.058   5.392 -0.6207 -0.1246  0.9300
 4062TIP3   OH212149   1.338   5.173   4.355  0.5102 -0.5871  0.0368
 4062TIP3    H112150   1.258   5.148   4.401  0.5812  0.2922  0.6570
 4062TIP3    H212151   1.393   5.213   4.422  0.8088  0.2864 -0.7058
 4063TIP3   OH212152   5.734   1.634   2.711 -0.6223  0.3103 -0.1716
 4063TIP3    H112153   5.819   1.636   2.755  0.2253  0.4068 -1.7191
 4063TIP3    H212154   5.737   1.554   2.658 -1.5206  0.2863 -0.2036
 4064TIP3   OH212155   4.173   2.776   5.385  0.0036 -0.2007 -0.0581
 4064TIP3    H112156   4.165   2.755   5.292 -0.5985 -0.4125  0.0336
 4064TIP3    H212157   4.166   2.691   5.429 -0.9537  0.0201  0.2416
 4065TIP3   OH212158   1.963   2.618   3.997  0.2601  0.0570 -0.4427
 4065TIP3    H112159   1.987   2.535   4.039 -0.6878 -1.4031 -2.6093
 4065TIP3    H212160   1.868   2.615   3.991  0.1877  1.4528 -0.3406
 4066TIP3   OH212161   3.924   5.253   3.266  0.9122 -0.0136  0.1687
 4066TIP3    H112162   3.966   5.199   3.198  0.8064 -1.5719  1.2818
 4066TIP3    H212163   3.865   5.192   3.311  0.3577  1.1974  1.1223
 4067TIP3   OH212164   5.523   6.424   0.622  0.2697  0.5380  0.4121
 4067TIP3    H112165   5.558   6.442   0.534 -1.1648 -1.9014 -0.7463
 4067TIP3    H212166   5.521   6.329   0.628 -1.4781  0.6360  2.3700
 4068TIP3   OH212167   5.478   2.234   2.221 -0.7567 -0.8519  0.1662
 4068TIP3    H112168   5.553   2.224   2.163  2.2233 -0.5132  3.6076
 4068TIP3    H212169   5.415   2.170   2.190  0.9319 -1.2402 -2.8646
 4069TIP3   OH212170   5.261   2.905   0.393  0.3881  0.0463  0.1979
 4069TIP3    H112171   5.305   2.964   0.332 -0.5202  1.4185  0.8168
 4069TIP3    H212172   5.323   2.893   0.465 -0.3156  2.3046  1.2732
 4070TIP3   OH212173   2.974   5.145   0.278  0.3894 -0.3646  0.2593
 4070TIP3    H112174   2.907   5.105   0.333  0.4832 -1.6357 -0.5097
 4070TIP3    H212175   3.011   5.072   0.228  0.2272  0.7469 -1.5839
 4071TIP3   OH212176   6.427   3.237   0.762 -1.1340  0.0645 -0.2197
 4071TIP3    H112177   6.462   3.239   0.673 -0.4957 -2.1324 -0.0666
 4071TIP3    H212178   6.505   3.239   0.818 -1.3099 -2.0262  0.1760
 4072TIP3   OH212179   5.662   0.182   2.540 -0.0845  0.1099 -0.9139
 4072TIP3    H112180   5.619   0.246   2.482 -0.7980  0.0042 -0.5168
 4072TIP3    H212181   5.589   0.137   2.583  0.3980 -1.4382 -1.6826
 4073TIP3   OH212182   0.001   2.196   4.736 -0.2242 -0.2933 -0.3895
 4073TIP3    H112183   0.094   2.214   4.718  0.2208 -1.8159  0.2599
 4073TIP3    H212184  -0.021   2.255   4.808  0.1672  0.2631 -0.7194
 4074TIP3   OH212185   6.124   3.169   5.574 -0.5145 -0.0493  0.0845
 4074TIP3    H112186   6.059   3.145   5.640 -0.5392 -0.7467 -0.1819
 4074TIP3    H212187   6.160   3.085   5.544 -0.8752  0.2190 -1.1567
 4075TIP3   OH212188   4.997   5.658   5.735  0.3160 -0.3934  0.0260
 4075TIP3    H112189   5.076   5.642   5.787  0.0329 -0.2121  0.5170
 4075TIP3    H212190   4.925   5.633   5.792 -0.0850  1.3916  0.3547
 4076TIP3   OH212191   4.022   5.405   5.420 -0.6825  0.0958  0.1064
 4076TIP3    H112192   4.071   5.485   5.404 -0.2665 -0.0562  0.5936
 4076TIP3    H212193   4.087   5.335   5.412 -1.1488 -0.2516 -0.8695
 4077TIP3   OH212194   0.998   2.547   4.163  0.1235  0.2508  0.7116
 4077TIP3    H112195   0.991   2.486   4.236  1.4173 -0.9399 -0.1041
 4077TIP3    H212196   0.954   2.503   4.090  0.1409  0.7554  0.3905
 4078TIP3   OH212197   6.362   3.608   2.147 -0.0188 -0.0299 -0.6016
 4078TIP3    H112198   6.304   3.619   2.222  1.1445 -0.8849  0.4774
 4078TIP3    H212199   6.372   3.513   2.138  0.5891  0.0817 -1.2460
 4079TIP3   OH212200   4.053   5.764   4.315 -0.6191  0.7252 -0.1334
 4079TIP3    H112201   4.055   5.854   4.282 -0.5710  0.6837 -0.2424
 4079TIP3    H212202   4.081   5.772   4.406 -0.9364  0.8630 -0.0436
 4080TIP3   OH212203   1.613   1.852   2.416 -0.0761 -0.1131 -0.1340
 4080TIP3    H112204   1.620   1.922   2.351  1.8380  0.6611  0.8208
 4080TIP3    H212205   1.580   1.896   2.494 -0.5109 -0.6450 -0.0173
 4081TIP3   OH212206   6.734   0.428   5.444 -0.1087 -0.3462 -0.2819
 4081TIP3    H112207   6.706   0.464   5.528  0.6137  1.3146 -0.7073
 4081TIP3    H212208   6.784   0.350   5.466 -1.8555 -1.2656  0.6782
 4082TIP3   OH212209   6.742   6.680   3.548 -0.3674 -0.1684  0.1909
 4082TIP3    H112210   6.746   6.595   3.591 -1.2645  0.5580  1.8003
 4082TIP3    H212211   6.829   6.717   3.560  0.1871 -1.0352 -0.9665
 4083TIP3   OH212212   5.015   6.101   2.250  0.6464  0.3545  0.3864
 4083TIP3    H112213   5.040   6.015   2.284  2.4444  1.1849  1.3052
 4083TIP3    H212214   5.097   6.151   2.250 -0.2094  1.8178 -0.8900
 4084TIP3   OH212215   7.050   6.135   2.924 -0.3953 -0.0097  0.2406
 4084TIP3    H112216   7.080   6.201   2.861  1.0137 -1.9039 -1.2159
 4084TIP3    H212217   7.114   6.139   2.995 -0.8970  0.8416  0.6611
 4085TIP3   OH212218   5.932   0.495   5.598  0.0729 -0.2430 -0.5082
 4085TIP3    H112219   5.912   0.469   5.688 -0.3176  1.2530 -0.1317
 4085TIP3    H212220   5.849   0.528   5.563  0.6736  1.2035 -0.6687
 4086TIP3   OH212221   0.257   0.347   1.622  0.8715 -0.2934 -0.0962
 4086TIP3    H112222   0.224   0.433   1.651  1.0551 -0.8762  2.0183
 4086TIP3    H212223   0.329   0.368   1.562  0.6925  1.0313  0.1153
 4087TIP3   OH212224   3.752   6.001   0.921 -0.2529 -0.0260  0.2329
 4087TIP3    H112225   3.697   5.978   0.996  1.2996 -1.8797  0.8898
 4087TIP3    H212226   3.694   6.051   0.864 -1.2004  2.4816  3.1284
 4088TIP3   OH212227   5.185   2.723   5.927 -0.1048 -0.2210  0.0497
 4088TIP3    H112228   5.125   2.759   5.862 -1.9279 -2.9978  0.0642
 4088TIP3    H212229   5.252   2.678   5.876  0.2330  0.2114  0.0973
 4089TIP3   OH212230   3.394   5.510   0.626  0.0481  0.2820  0.2615
 4089TIP3    H112231   3.457   5.579   0.646 -0.8909  1.8011 -1.6813
 4089TIP3    H212232   3.311   5.555   0.614 -0.8720 -1.3500  0.1497
 4090TIP3   OH212233   5.460   5.220   2.812  0.2484  0.5083  0.1492
 4090TIP3    H112234   5.401   5.272   2.757  0.2055 -0.6776 -0.9666
 4090TIP3    H212235   5.406   5.193   2.886 -0.1251  0.8369  0.0016
 4091TIP3   OH212236   1.051   2.010   4.228  0.3866  0.1591  0.7473
 4091TIP3    H112237   1.052   2.068   4.152  0.9360 -0.0342  0.6059
 4091TIP3    H212238   1.140   1.976   4.234 -0.3310 -2.0954 -0.2699
 4092TIP3   OH212239   7.158   6.682   0.240  0.1132 -0.1008 -0.2496
 4092TIP3    H112240   7.090   6.618   0.261 -1.0972  0.8524 -1.1035
 4092TIP3    H212241   7.166   6.677   0.145  0.8884  0.1521 -0.2005
 4093TIP3   OH212242   5.611   0.089   5.446  0.4108 -0.5936 -0.3901
 4093TIP3    H112243   5.696   0.086   5.490 -0.1617  0.6793  0.8616
 4093TIP3    H212244   5.608   0.176   5.407 -0.3546 -0.6198 -0.3930
 4094TIP3   OH212245   5.130   5.438   2.875  0.3896  0.2086 -0.2399
 4094TIP3    H112246   5.140   5.532   2.889 -1.1784  0.8034 -2.5702
 4094TIP3    H212247   5.206   5.413   2.823  1.8020 -0.2864  1.9209
 4095TIP3   OH212248   0.969   3.411   5.485  0.0351  0.1299  0.3285
 4095TIP3    H112249   0.979   3.440   5.576  1.7314  0.5126  0.0515
 4095TIP3    H212250   1.035   3.343   5.474  0.7456  1.0036 -0.9858
 4096TIP3   OH212251   0.497   5.765   3.741  0.2742 -0.0793  0.0464
 4096TIP3    H112252   0.404   5.765   3.721 -0.1606 -0.3695  1.8514
 4096TIP3    H212253   0.510   5.843   3.796  0.3408 -1.7813  2.6404
 4097TIP3   OH212254   5.361   3.884   1.193  0.2922  0.4882 -0.0321
 4097TIP3    H112255   5.336   3.966   1.235  2.5736  1.8130 -1.0487
 4097TIP3    H212256   5.350   3.900   1.099  0.4018 -0.5031 -0.2343
 4098TIP3   OH212257   0.539   1.553   1.450 -0.3923  0.3789 -0.1923
 4098TIP3    H112258   0.469   1.617   1.445 -0.1377  0.6420 -0.3913
 4098TIP3    H212259   0.495   1.469   1.436 -0.8752  0.4092  1.0090
 4099TIP3   OH212260   3.802   1.043   4.072 -0.0232  0.1897  0.7062
 4099TIP3    H112261   3.749   1.074   3.999  0.1204  0.2277  0.6160
 4099TIP3    H212262   3.861   1.117   4.091  1.8177 -0.7704 -0.9328
 4100TIP3   OH212263   5.835   2.718   2.596  0.5460  0.3488  0.1452
 4100TIP3    H112264   5.782   2.638   2.591  0.5489  0.3155  0.6593
 4100TIP3    H212265   5.924   2.689   2.573  0.3630  0.3967 -0.6717
 4101TIP3   OH212266   5.830   4.558   1.091  0.6307 -0.6315  0.1529
 4101TIP3    H112267   5.796   4.521   1.172 -0.3573 -0.8810 -0.3585
 4101TIP3    H212268   5.887   4.630   1.119 -0.8832  0.2753  1.0185
 4102TIP3   OH212269   5.162   4.364   1.482  0.2304 -0.3363 -0.4383
 4102TIP3    H112270   5.077   4.391   1.516  1.3946  0.9048  1.7222
 4102TIP3    H212271   5.203   4.445   1.452  0.5620 -0.9619 -1.7403
 4103TIP3   OH212272   2.387   3.518   4.341  0.3268  0.7676 -1.0202
 4103TIP3    H112273   2.303   3.483   4.369  0.2616  0.6217 -1.3875
 4103TIP3    H212274   2.452   3.469   4.391  0.2087  0.5752 -1.0549
 4104TIP3   OH212275   2.417   0.462   1.579  0.2061 -0.5470  0.7078
 4104TIP3    H112276   2.443   0.520   1.507  0.4768  0.1724  1.3760
 4104TIP3    H212277   2.356   0.515   1.631  1.4617 -0.3803  2.0653
 4105TIP3   OH212278   4.870   5.317   0.153 -0.6179  0.6890 -0.3270
 4105TIP3    H112279   4.919   5.398   0.161 -0.1739  0.3201  1.0676
 4105TIP3    H212280   4.843   5.313   0.061  3.8037 -0.1144 -1.8446
 4106TIP3   OH212281   2.707   0.411   0.134 -0.1567  0.5221  0.0361
 4106TIP3    H112282   2.799   0.438   0.132  0.4607 -1.2388  1.2079
 4106TIP3    H212283   2.709   0.319   0.107 -1.5267  0.3712  0.3839
 4107TIP3   OH212284   2.830   4.310   2.607  0.2284  0.2406  0.2011
 4107TIP3    H112285   2.736   4.332   2.610 -0.2486 -1.6129 -0.2548
 4107TIP3    H212286   2.850   4.278   2.695  0.4979  0.7924  0.3481
 4108TIP3   OH212287   1.534   4.005   2.981 -0.5294  0.1981 -0.0591
 4108TIP3    H112288   1.531   3.910   2.974  0.8696  0.0658  0.8164
 4108TIP3    H212289   1.479   4.026   3.057 -2.4245  0.2920 -1.3845
 4109TIP3   OH212290   5.534   0.198   3.209  0.1426  0.3073 -0.5493
 4109TIP3    H112291   5.467   0.141   3.172  1.7731 -2.4369  0.3965
 4109TIP3    H212292   5.487   0.278   3.233 -2.8539 -1.5179  0.2572
 4110TIP3   OH212293   5.102   3.203   0.818  0.0390 -0.1199 -0.1810
 4110TIP3    H112294   5.148   3.286   0.831  0.3253 -0.3618  0.3670
 4110TIP3    H212295   5.099   3.192   0.723  1.0443 -0.0543 -0.2297
 4111TIP3   OH212296   1.746   5.866   3.966  0.3684 -0.1497  0.5561
 4111TIP3    H112297   1.703   5.907   4.041  0.0439 -0.0355  0.3094
 4111TIP3    H212298   1.834   5.901   3.966 -0.6382  2.7285 -1.2615
 4112TIP3   OH212299   6.492   0.540   5.662 -0.5187 -0.3715 -0.1681
 4112TIP3    H112300   6.492   0.452   5.626  1.6505  0.5695 -2.8169
 4112TIP3    H212301   6.403   0.573   5.645 -1.6476 -2.2610  1.7020
 4113TIP3   OH212302   0.178   2.606   0.888  0.2788 -0.3441  0.2562
 4113TIP3    H112303   0.195   2.698   0.903 -0.9440 -0.1669  0.7083
 4113TIP3    H212304   0.257   2.561   0.916  0.3414  0.4585  1.4205
 4114TIP3   OH212305   2.158   2.394   0.520  0.5796  0.2815 -0.2180
 4114TIP3    H112306   2.132   2.336   0.592  0.0948 -0.5569 -1.0547
 4114TIP3    H212307   2.081   2.399   0.465  0.4461  2.1419  0.0879
 4115TIP3   OH212308   2.912   0.671   5.616 -0.0292  0.4705 -0.0451
 4115TIP3    H112309   2.934   0.745   5.559  0.7040 -0.0607 -0.4613
 4115TIP3    H212310   2.867   0.609   5.559 -0.6509  0.5906  0.3067
 4116TIP3   OH212311   5.784   5.700   2.730 -0.3053  0.0749 -0.6334
 4116TIP3    H112312   5.736   5.660   2.802  0.3015  1.4796  0.6237
 4116TIP3    H212313   5.875   5.674   2.745 -0.1626  0.4604 -0.8210
 4117TIP3   OH212314   1.839   4.623   3.827  0.2017 -0.5297 -0.3978
 4117TIP3    H112315   1.924   4.633   3.870 -1.1837  2.4902  1.9936
 4117TIP3    H212316   1.797   4.551   3.875  0.2925 -0.0084  0.4915
 4118TIP3   OH212317   6.843   0.698   0.967 -0.2681 -0.3533 -0.0585
 4118TIP3    H112318   6.858   0.717   0.874 -0.9683 -0.3645 -0.1829
 4118TIP3    H212319   6.782   0.767   0.995 -0.9273 -0.9917  0.1070
 4119TIP3   OH212320   5.572   0.591   3.924  0.1629  0.6805 -0.1594
 4119TIP3    H112321   5.555   0.617   3.834  1.5415 -1.6561 -1.2024
 4119TIP3    H212322   5.649   0.642   3.950 -1.3314  2.7453  0.4439
 4120TIP3   OH212323   4.240   3.194   5.733  0.0508  0.6039 -0.6257
 4120TIP3    H112324   4.251   3.195   5.638 -0.1662 -1.5032 -0.7254
 4120TIP3    H212325   4.324   3.162   5.767 -0.6792 -1.1820 -0.3477
 4121TIP3   OH212326   7.115   2.139   2.605 -0.2117 -0.3424  0.0825
 4121TIP3    H112327   7.203   2.143   2.641  0.0812 -1.8746 -0.3699
 4121TIP3    H212328   7.098   2.226   2.570  0.7779  0.2115  0.9590
 4122TIP3   OH212329   2.583   6.594   5.596  0.1010  0.1437  0.0816
 4122TIP3    H112330   2.613   6.614   5.508 -2.4153  0.2655 -0.8139
 4122TIP3    H212331   2.589   6.499   5.603 -0.7488  0.0266 -0.6523
 4123TIP3   OH212332   1.878   5.834   3.150  0.3899 -0.2512 -0.0057
 4123TIP3    H112333   1.917   5.779   3.082 -1.5363 -1.2299 -0.3946
 4123TIP3    H212334   1.929   5.915   3.147  1.4049 -0.8965 -1.4893
 4124TIP3   OH212335   0.603   1.380   3.516  0.2741  0.4451  0.3210
 4124TIP3    H112336   0.565   1.462   3.548 -0.7989 -0.5344  1.7162
 4124TIP3    H212337   0.547   1.312   3.553  1.2383 -0.9354 -0.6529
 4125TIP3   OH212338   1.404   1.390   3.378 -0.8145 -0.3767 -0.3252
 4125TIP3    H112339   1.333   1.448   3.406  0.1082  0.8287 -0.4407
 4125TIP3    H212340   1.367   1.343   3.303 -1.8711 -0.6042  0.3096
 4126TIP3   OH212341   0.400   6.566   1.728  0.1308 -0.2589  0.3480
 4126TIP3    H112342   0.406   6.661   1.739 -1.0937 -0.3968  2.7537
 4126TIP3    H212343   0.483   6.532   1.761  0.0460 -0.1053  0.7162
 4127TIP3   OH212344   3.073   4.107   1.526  0.3372  0.2931 -0.1797
 4127TIP3    H112345   3.123   4.057   1.462  2.2709  0.8875  0.7881
 4127TIP3    H212346   3.020   4.042   1.572  0.8559 -0.4899 -0.6739
 4128TIP3   OH212347   4.516   1.910   4.423  0.0377  0.2782  0.1810
 4128TIP3    H112348   4.451   1.861   4.373 -1.0652  0.8243  1.0393
 4128TIP3    H212349   4.467   1.950   4.495  1.2728  0.9339  0.7023
 4129TIP3   OH212350   0.671   4.568   1.676 -0.1262 -0.5116 -0.1809
 4129TIP3    H112351   0.735   4.510   1.635  0.5024  0.1185 -0.1190
 4129TIP3    H212352   0.591   4.556   1.626  0.8613  0.9233 -2.2428
 4130TIP3   OH212353   4.793   6.697   0.582  1.0861 -0.4533  0.1291
 4130TIP3    H112354   4.786   6.603   0.601  1.5961 -0.5621 -0.1908
 4130TIP3    H212355   4.726   6.737   0.637 -0.8263 -1.2257 -1.5118
 4131TIP3   OH212356   0.131   2.378   3.089 -0.0794 -0.2139  0.5622
 4131TIP3    H112357   0.067   2.409   3.153 -1.2254 -1.6995  0.2205
 4131TIP3    H212358   0.106   2.286   3.074  1.0617 -0.3170 -0.9126
 4132TIP3   OH212359   5.661   5.980   5.238  0.2304 -0.3383 -0.5735
 4132TIP3    H112360   5.746   5.957   5.275 -0.2786 -1.3691 -0.0205
 4132TIP3    H212361   5.661   6.076   5.238  1.4596 -0.3208 -0.7567
 4133TIP3   OH212362   0.930   1.672   0.623  0.3963  0.1162  0.0981
 4133TIP3    H112363   0.998   1.706   0.565  2.8716  1.0255  3.2094
 4133TIP3    H212364   0.969   1.594   0.663 -0.8702 -0.0400  1.1128
 4134TIP3   OH212365   1.633   6.154   5.079 -0.0451  0.0537 -0.0543
 4134TIP3    H112366   1.618   6.106   5.160 -1.2939  0.5495  0.0180
 4134TIP3    H212367   1.548   6.156   5.035  0.6650 -0.4527 -1.5287
 4135TIP3   OH212368   6.783   2.130   2.488 -0.5068  0.6002  0.2562
 4135TIP3    H112369   6.833   2.050   2.473 -2.0199 -0.1095 -1.3227
 4135TIP3    H212370   6.712   2.105   2.548 -0.7324  0.8628  0.1051
 4136TIP3   OH212371   3.477   5.899   3.735 -0.0566 -0.4108 -0.0165
 4136TIP3    H112372   3.511   5.830   3.678  0.1436  0.2087 -0.6629
 4136TIP3    H212373   3.393   5.922   3.697  0.1854  0.1733 -0.2075
 4137TIP3   OH212374   4.336   2.398   1.175 -0.5858  0.0773  0.0612
 4137TIP3    H112375   4.283   2.392   1.096  1.5504  0.5933 -1.4943
 4137TIP3    H212376   4.371   2.309   1.186 -1.4304 -0.1785  0.9003
 4138TIP3   OH212377   2.945   4.060   5.686 -0.0329  0.0211  0.7003
 4138TIP3    H112378   3.033   4.025   5.696  0.3597  1.1724  1.3696
 4138TIP3    H212379   2.900   4.036   5.767  0.1785  0.8579  1.0772
 4139TIP3   OH212380   4.796   3.619   0.776 -0.4873  0.5642 -0.0346
 4139TIP3    H112381   4.857   3.557   0.817 -0.7514  0.1363 -0.2712
 4139TIP3    H212382   4.721   3.619   0.835 -1.0182 -0.3232 -0.6683
 4140TIP3   OH212383   5.183   6.721   3.849  0.0737  0.1522  0.5149
 4140TIP3    H112384   5.246   6.790   3.866  1.8965 -1.0384 -1.0073
 4140TIP3    H212385   5.117   6.731   3.918  0.9957  2.5040  1.1430
 4141TIP3   OH212386   4.057   1.957   0.029  0.2057 -0.7752  0.0721
 4141TIP3    H112387   4.026   1.949  -0.062 -0.7339 -0.9217  0.3945
 4141TIP3    H212388   4.066   1.867   0.060  1.4174 -0.7497 -0.1500
 4142TIP3   OH212389   5.154   4.911   1.663  0.6362  0.4584  0.5261
 4142TIP3    H112390   5.184   4.960   1.739  1.4169  1.8036 -0.5934
 4142TIP3    H212391   5.214   4.936   1.593 -0.8481  0.3009 -0.8679
 4143TIP3   OH212392   5.598   2.581   2.522  0.0740  0.3567 -0.2467
 4143TIP3    H112393   5.530   2.532   2.476 -0.2960 -0.3919  1.0387
 4143TIP3    H212394   5.592   2.669   2.487  0.6353 -0.4190 -2.4991
 4144TIP3   OH212395   0.757   5.724   4.974  0.3061  0.3771  0.2971
 4144TIP3    H112396   0.822   5.749   4.908  0.2646 -0.6979 -0.1672
 4144TIP3    H212397   0.698   5.799   4.978  0.0093  0.2748 -1.2890
 4145TIP3   OH212398   4.583   5.207   4.762  0.0675  0.2325  0.0655
 4145TIP3    H112399   4.615   5.281   4.710  0.4978  0.2634  0.3706
 4145TIP3    H212400   4.617   5.130   4.716 -0.9816  0.1842 -0.6623
 4146TIP3   OH212401   6.090   5.362   5.593 -0.3874 -0.5275 -0.1817
 4146TIP3    H112402   6.043   5.385   5.673 -0.9230 -1.4600 -0.2203
 4146TIP3    H212403   6.034   5.298   5.549 -0.3819  0.3748 -1.5953
 4147TIP3   OH212404   2.029   4.761   0.134 -0.7032  0.6123  0.0757
 4147TIP3    H112405   2.077   4.755   0.217 -1.7440  1.6194  0.7840
 4147TIP3    H212406   2.097   4.768   0.067  0.1888 -1.3835  0.7001
 4148TIP3   OH212407   4.218   5.653   2.120  0.7135 -0.1565 -0.0357
 4148TIP3    H112408   4.283   5.722   2.124  0.3778  0.1152  2.2499
 4148TIP3    H212409   4.134   5.698   2.130  0.6050 -0.9226  5.2631
 4149TIP3   OH212410   2.495   5.749   0.242  0.0112  0.6433  0.0820
 4149TIP3    H112411   2.517   5.837   0.211  2.5211  0.2468  0.5461
 4149TIP3    H212412   2.493   5.756   0.337 -2.7802  0.7638  0.1195
 4150TIP3   OH212413   6.744   1.011   0.233 -0.2630  0.1959  0.2398
 4150TIP3    H112414   6.694   0.971   0.305 -2.1104  0.6622 -0.7065
 4150TIP3    H212415   6.819   1.052   0.275 -0.7165 -0.4679  1.7624
 4151TIP3   OH212416   2.216   0.934   1.913 -0.1597 -0.3080  0.0072
 4151TIP3    H112417   2.237   1.022   1.945 -1.3385  0.3971 -1.0890
 4151TIP3    H212418   2.296   0.904   1.870 -0.3794  1.1165 -1.4938
 4152TIP3   OH212419   0.376   2.430   2.622  0.0149 -0.2677 -0.5206
 4152TIP3    H112420   0.449   2.430   2.684 -1.0218  2.4731  0.8924
 4152TIP3    H212421   0.299   2.409   2.675 -0.7758  1.3175 -0.9601
 4153TIP3   OH212422   6.129   3.599   1.557 -0.4577  0.0181  0.0357
 4153TIP3    H112423   6.090   3.525   1.604  0.2368 -0.1081  0.4235
 4153TIP3    H212424   6.196   3.559   1.501 -1.1142  0.1939 -0.8902
 4154TIP3   OH212425   6.145   0.621   2.945 -0.7148  0.0509 -0.0021
 4154TIP3    H112426   6.173   0.617   2.853  1.3057 -0.7811  0.5792
 4154TIP3    H212427   6.081   0.691   2.948  0.5749  1.3890 -1.7272
 4155TIP3   OH212428   6.852   1.007   4.413  0.0891 -0.1107  0.2584
 4155TIP3    H112429   6.853   1.029   4.320 -0.1119  1.2260  0.5590
 4155TIP3    H212430   6.917   1.065   4.452  0.1840 -0.6777  0.9554
 4156TIP3   OH212431   3.699   1.885   4.400  0.0466  0.1568  0.1306
 4156TIP3    H112432   3.633   1.889   4.470  1.3321  0.7661  1.3650
 4156TIP3    H212433   3.700   1.973   4.362  0.6027  0.3455  0.5691
 4157TIP3   OH212434   1.821   0.941   0.674 -0.0793 -0.5695 -0.3965
 4157TIP3    H112435   1.789   0.859   0.711  0.8283 -0.0600  1.6573
 4157TIP3    H212436   1.811   1.005   0.744  0.7208  0.7177 -1.4051
 4158TIP3   OH212437   0.135   2.532   4.630  0.6726 -0.7316  0.6675
 4158TIP3    H112438   0.191   2.595   4.676  0.8838 -0.1413 -0.3772
 4158TIP3    H212439   0.182   2.449   4.635  1.5972 -0.2713 -0.0800
 4159TIP3   OH212440   5.612   4.171   1.051  0.2896 -0.3929 -0.2187
 4159TIP3    H112441   5.560   4.247   1.024 -0.3268  0.1978  2.3066
 4159TIP3    H212442   5.675   4.158   0.981  0.3412  2.4176 -0.7914
 4160TIP3   OH212443   5.846   3.749   4.861  0.4059 -0.0085  0.3022
 4160TIP3    H112444   5.826   3.675   4.804  0.7105  0.3807 -0.3188
 4160TIP3    H212445   5.939   3.767   4.846  0.7642 -0.5517  1.6837
 4161TIP3   OH212446   0.014   0.763   5.705 -0.2822  0.0054  0.0563
 4161TIP3    H112447   0.099   0.740   5.744  0.9922  1.8301 -1.4391
 4161TIP3    H212448   0.027   0.754   5.611 -2.2650 -1.1212 -0.1668
 4162TIP3   OH212449   1.130   4.711   5.794  0.4009 -0.1277 -0.2520
 4162TIP3    H112450   1.036   4.694   5.807 -0.1685  1.3044 -2.1186
 4162TIP3    H212451   1.171   4.625   5.802 -1.0855 -0.8208  0.3769
 4163TIP3   OH212452   1.290   4.123   2.319  0.0711  0.2526 -0.0264
 4163TIP3    H112453   1.268   4.148   2.229 -0.0842  0.6952  0.1348
 4163TIP3    H212454   1.293   4.027   2.317 -1.7009  0.1660 -0.1008
 4164TIP3   OH212455   5.614   5.043   0.644 -0.3581 -0.1037  0.0143
 4164TIP3    H112456   5.601   5.086   0.560 -0.6031  0.3981  0.3030
 4164TIP3    H212457   5.526   5.019   0.674 -0.4797  1.4322  0.9998
 4165TIP3   OH212458   5.841   5.212   4.029 -0.3127 -0.5468  0.2838
 4165TIP3    H112459   5.893   5.135   4.006  0.0826 -0.6243  1.3495
 4165TIP3    H212460   5.755   5.196   3.991  1.1019  0.8710 -4.1008
 4166TIP3   OH212461   5.270   1.853   2.753  0.8490  0.2353 -0.0290
 4166TIP3    H112462   5.353   1.805   2.755  1.7390  1.6721 -0.7875
 4166TIP3    H212463   5.241   1.855   2.844  2.2453  0.6985  0.4278
 4167TIP3   OH212464   4.060   4.731   4.312 -0.2802  0.6678 -0.3986
 4167TIP3    H112465   4.097   4.699   4.229  1.7159  0.7131  0.4154
 4167TIP3    H212466   4.073   4.826   4.308 -0.5355  0.7111 -0.2001
 4168TIP3   OH212467   2.916   0.574   0.525 -0.3641  0.1166 -0.6980
 4168TIP3    H112468   2.902   0.496   0.472 -1.1657 -0.0088 -0.3193
 4168TIP3    H212469   2.875   0.553   0.609  0.1879  0.6118 -0.2978
 4169TIP3   OH212470   2.649   1.489   4.877  0.3089  0.2301 -0.3712
 4169TIP3    H112471   2.569   1.464   4.924  0.2529  0.6647 -0.2315
 4169TIP3    H212472   2.624   1.490   4.785  0.1594  0.3569 -0.3281
 4170TIP3   OH212473   6.217   4.733   4.504  0.7873 -0.2517  0.3182
 4170TIP3    H112474   6.183   4.769   4.586  0.6419 -0.6160  0.4196
 4170TIP3    H212475   6.276   4.800   4.471 -3.0035  2.3420 -1.9851
 4171TIP3   OH212476   7.162   5.424   3.571 -0.2565  0.6943  0.3567
 4171TIP3    H112477   7.093   5.405   3.507 -0.9018 -2.3555  1.7456
 4171TIP3    H212478   7.121   5.406   3.656  1.9841 -0.5784  1.2634
 4172TIP3   OH212479   2.963   6.717   0.853 -0.2242 -0.5208  0.0156
 4172TIP3    H112480   2.966   6.713   0.758  0.2075  0.4309 -0.0138
 4172TIP3    H212481   2.936   6.629   0.880  0.2117 -0.9554 -0.9569
 4173TIP3   OH212482   4.095   0.821   0.068 -0.3218  0.7164  0.3239
 4173TIP3    H112483   4.154   0.886   0.030 -0.1182  0.1451 -0.3474
 4173TIP3    H212484   4.044   0.789  -0.006 -2.5507  2.2720  1.0855
 4174TIP3   OH212485   5.866   5.760   0.977 -0.0055 -0.0539  0.0379
 4174TIP3    H112486   5.798   5.826   0.991 -1.3266 -1.3428 -0.1632
 4174TIP3    H212487   5.844   5.690   1.038  0.3498 -1.0767 -0.9767
 4175TIP3   OH212488   1.489   3.078   5.388  0.0351  0.7897  0.5988
 4175TIP3    H112489   1.413   3.040   5.345  0.1727 -0.4229  1.3938
 4175TIP3    H212490   1.460   3.096   5.477  1.3497 -2.1478  1.7365
 4176TIP3   OH212491   6.795   5.857   2.549 -0.3707  0.1383  0.3062
 4176TIP3    H112492   6.879   5.826   2.583 -0.0130  1.3018  0.5319
 4176TIP3    H212493   6.765   5.786   2.491  1.2731  0.1331 -0.6107
 4177TIP3   OH212494   6.314   0.126   2.708 -0.1014  0.1378  0.2553
 4177TIP3    H112495   6.244   0.183   2.678  0.2868  0.2949 -0.3826
 4177TIP3    H212496   6.271   0.062   2.765 -0.3994  1.6512  1.8055
 4178TIP3   OH212497   3.279   6.072   3.446 -0.1496  0.1353  0.4025
 4178TIP3    H112498   3.348   6.129   3.413 -0.2979 -0.2064 -0.5232
 4178TIP3    H212499   3.208   6.081   3.383 -1.3940  1.3004  1.8838
 4179TIP3   OH212500   5.478   3.595   0.185  0.0937  0.0946 -0.0680
 4179TIP3    H112501   5.465   3.592   0.280 -0.6003  0.4267 -0.1479
 4179TIP3    H212502   5.556   3.650   0.173 -0.2971  0.7382  0.2779
 4180TIP3   OH212503   1.358   1.840   5.009 -0.2811  0.5315 -0.7653
 4180TIP3    H112504   1.427   1.796   5.059  0.8747  0.7887 -2.0759
 4180TIP3    H212505   1.278   1.793   5.034  0.5763 -0.7897 -0.3610
 4181TIP3   OH212506   1.326   2.287   2.129 -0.2724  0.2530  0.1649
 4181TIP3    H112507   1.338   2.291   2.224  2.2084  3.1091 -0.0941
 4181TIP3    H212508   1.244   2.334   2.114 -0.6492 -0.1600  0.8764
 4182TIP3   OH212509   4.760   3.561   4.650 -0.0036 -0.4926  0.1887
 4182TIP3    H112510   4.831   3.616   4.617  0.9372  0.1566  3.0635
 4182TIP3    H212511   4.801   3.476   4.667  0.0054 -0.2522  1.4293
 4183TIP3   OH212512   1.295   0.168   5.807  0.4943 -0.3051  0.3339
 4183TIP3    H112513   1.345   0.235   5.761 -2.1579  0.7470 -1.2679
 4183TIP3    H212514   1.332   0.085   5.777  1.1407  0.4116 -0.9270
 4184TIP3   OH212515   0.617   0.422   2.634  0.6300  0.0983 -0.6919
 4184TIP3    H112516   0.667   0.402   2.714  1.4986 -1.4382 -1.5637
 4184TIP3    H212517   0.629   0.516   2.621  1.3898  0.1689  0.3839
 4185TIP3   OH212518   5.097   4.197   3.204  0.3760  0.2289  0.1260
 4185TIP3    H112519   5.040   4.169   3.133 -1.0495  0.4680  1.1415
 4185TIP3    H212520   5.041   4.251   3.260  1.8146  1.1633  0.7236
 4186TIP3   OH212521   4.118   2.681   0.484 -0.5404  0.4503  0.1010
 4186TIP3    H112522   4.073   2.711   0.563  0.0243  0.2046  0.5202
 4186TIP3    H212523   4.064   2.611   0.450 -1.1717  1.0466 -0.1413
 4187TIP3   OH212524   0.734   1.208   2.134 -0.4909 -0.3821  0.5389
 4187TIP3    H112525   0.707   1.122   2.101 -1.3190 -0.1533  0.6071
 4187TIP3    H212526   0.711   1.269   2.064  0.0426 -0.2008  0.5151
 4188TIP3   OH212527   0.890   3.557   3.055 -0.7157  0.4033 -0.0715
 4188TIP3    H112528   0.835   3.618   3.005 -0.7142 -0.0388 -0.6268
 4188TIP3    H212529   0.829   3.508   3.109 -0.7495  0.6862  0.1464
 4189TIP3   OH212530   1.588   1.324   5.645  0.3191 -0.3380  0.0550
 4189TIP3    H112531   1.678   1.292   5.643 -0.3708 -2.5353  1.4840
 4189TIP3    H212532   1.591   1.401   5.701  1.6988  1.2667 -2.0281
 4190TIP3   OH212533   4.384   1.795   0.061 -0.0856 -0.0067 -0.0413
 4190TIP3    H112534   4.447   1.740   0.014 -0.7392 -1.0906  0.3115
 4190TIP3    H212535   4.299   1.754   0.045 -0.4472  0.2017  1.1819
 4191TIP3   OH212536   3.493   3.272   4.261 -0.0024  0.8000  0.8020
 4191TIP3    H112537   3.525   3.182   4.256 -0.2111  0.7305  0.6733
 4191TIP3    H212538   3.399   3.264   4.242 -0.0833  1.0044  1.1186
 4192TIP3   OH212539   1.274   0.179   2.912  0.3807 -0.4183  0.1024
 4192TIP3    H112540   1.307   0.094   2.940 -0.4138 -1.0095 -0.6866
 4192TIP3    H212541   1.290   0.181   2.817 -1.9119 -0.7969 -0.3463
 4193TIP3   OH212542   3.069   3.156   0.143 -0.2228 -0.2050 -0.2944
 4193TIP3    H112543   2.978   3.159   0.116 -0.0163  0.2765 -0.9735
 4193TIP3    H212544   3.092   3.248   0.158  0.0734 -0.3462  0.1532
 4194TIP3   OH212545   6.033   6.185   1.255 -0.5489  0.3866  0.3920
 4194TIP3    H112546   5.959   6.198   1.195  0.3163  0.7593 -0.6259
 4194TIP3    H212547   6.083   6.113   1.217 -1.2316 -0.9574  1.9500
 4195TIP3   OH212548   2.917   2.404   1.738  0.5667  0.0931 -0.8872
 4195TIP3    H112549   2.890   2.420   1.829  2.1042 -1.8229 -0.0212
 4195TIP3    H212550   2.837   2.376   1.694 -0.2264  1.1409 -0.1712
 4196TIP3   OH212551   3.892   3.417   2.567  0.4485  0.3132  0.1232
 4196TIP3    H112552   3.816   3.472   2.549 -0.1188 -0.4694  0.0441
 4196TIP3    H212553   3.919   3.441   2.655 -1.0707 -0.7070  0.9114
 4197TIP3   OH212554   5.409   4.620   0.512  0.5252  0.2439 -0.4448
 4197TIP3    H112555   5.398   4.566   0.434  1.1460  1.2695 -1.2832
 4197TIP3    H212556   5.324   4.663   0.524  0.4788  0.2101 -0.6511
 4198TIP3   OH212557   5.464   4.300   4.708  0.0017  0.1094  0.5955
 4198TIP3    H112558   5.546   4.326   4.666  0.0082 -0.8195 -0.0002
 4198TIP3    H212559   5.422   4.243   4.644 -1.4521  1.1321  0.5926
 4199TIP3   OH212560   4.472   1.990   5.249  0.5328  1.2181  0.4645
 4199TIP3    H112561   4.414   1.944   5.310  0.7845 -1.3303 -1.1032
 4199TIP3    H212562   4.495   2.071   5.296 -3.9315  2.2790  1.3068
 4200TIP3   OH212563   6.188   2.915   5.493 -0.4914 -0.6016  0.0961
 4200TIP3    H112564   6.172   2.858   5.418  1.6572  1.6771 -2.2981
 4200TIP3    H212565   6.264   2.876   5.537 -1.6252 -1.8217  1.0720
 4201TIP3   OH212566   3.326   2.668   2.192  0.5112  0.1358  0.1498
 4201TIP3    H112567   3.245   2.709   2.162  0.8925  0.9660  0.2265
 4201TIP3    H212568   3.346   2.603   2.125  0.4156  0.7567 -0.4963
 4202TIP3   OH212569   5.204   6.240   4.856  0.1389  0.8136  0.2270
 4202TIP3    H112570   5.247   6.296   4.920 -0.8423  0.4431  1.2468
 4202TIP3    H212571   5.263   6.165   4.847  0.8712  1.4335 -0.2412
 4203TIP3   OH212572   5.227   3.254   1.185 -0.0407 -1.0093  0.1127
 4203TIP3    H112573   5.248   3.327   1.126 -1.4078 -1.0996 -0.5432
 4203TIP3    H212574   5.262   3.280   1.270  2.0961 -0.9215 -0.7383
 4204TIP3   OH212575   2.379   4.842   5.437  0.1054 -0.4135  0.7822
 4204TIP3    H112576   2.432   4.819   5.360 -0.2537  3.6062 -0.9710
 4204TIP3    H212577   2.295   4.798   5.423 -0.3732  1.1170 -1.9569
 4205TIP3   OH212578   0.098   2.052   5.730 -0.0660 -0.1059 -0.1104
 4205TIP3    H112579   0.100   2.132   5.677 -2.9604  0.6172  0.6772
 4205TIP3    H212580   0.107   2.083   5.820  1.4426 -0.9953  0.0742
 4206TIP3   OH212581   1.113   4.829   1.813 -0.3050  0.8244 -0.1674
 4206TIP3    H112582   1.067   4.774   1.876  1.5877 -2.2524 -1.2462
 4206TIP3    H212583   1.081   4.801   1.727  0.8931  1.2050 -0.7727
 4207TIP3   OH212584   3.396   6.677   0.584 -0.7096 -0.0363 -0.0421
 4207TIP3    H112585   3.357   6.600   0.625  0.2728 -0.6969 -0.3262
 4207TIP3    H212586   3.485   6.650   0.561 -1.1363  0.3555 -2.4521
 4208TIP3   OH212587   1.977   0.798   2.642  0.1236 -0.1102 -0.0767
 4208TIP3    H112588   1.977   0.860   2.715 -1.4450  0.1052 -0.2259
 4208TIP3    H212589   1.988   0.852   2.564  0.1133 -0.1606 -0.1132
 4209TIP3   OH212590   2.221   1.464   3.935  0.3564 -0.1525  0.3668
 4209TIP3    H112591   2.252   1.488   3.848 -2.1655  1.4398 -0.1816
 4209TIP3    H212592   2.176   1.380   3.923 -2.4520  1.3758 -0.5621
 4210TIP3   OH212593   3.645   6.399   5.487 -0.0093  0.4982  0.0555
 4210TIP3    H112594   3.580   6.414   5.556 -0.0695  1.7741 -0.2457
 4210TIP3    H212595   3.667   6.306   5.494 -3.4166 -0.5475 -1.2148
 4211TIP3   OH212596   5.463   2.436   5.563  0.9370 -0.0539  0.1862
 4211TIP3    H112597   5.541   2.381   5.549  1.0295  0.2988 -0.7813
 4211TIP3    H212598   5.417   2.433   5.480 -1.8169 -2.8049  1.6102
 4212TIP3   OH212599   3.954   1.121   2.123 -0.2133 -0.1723  0.2761
 4212TIP3    H112600   3.888   1.121   2.193 -0.7352  1.4464 -0.1712
 4212TIP3    H212601   3.909   1.081   2.049  0.6060 -2.6769  1.0199
 4213TIP3   OH212602   0.135   1.734   5.185  0.1627 -0.0402 -0.0068
 4213TIP3    H112603   0.114   1.643   5.167  0.6243 -0.6058  2.0321
 4213TIP3    H212604   0.050   1.776   5.201 -0.0812  0.0119 -1.3387
 4214TIP3   OH212605   1.322   1.558   4.333  0.1144 -0.4399  0.1663
 4214TIP3    H112606   1.395   1.546   4.393 -0.3411  0.7755  1.0102
 4214TIP3    H212607   1.364   1.578   4.249  0.7522 -2.0789  0.0541
 4215TIP3   OH212608   0.898   5.745   4.326 -0.2984  0.2769  0.9130
 4215TIP3    H112609   0.967   5.777   4.268  0.1634  0.4775  1.5637
 4215TIP3    H212610   0.822   5.735   4.269  0.2576  0.0783  0.1908
 4216TIP3   OH212611   6.577   3.871   5.037  0.1592  0.2577 -0.1781
 4216TIP3    H112612   6.646   3.842   4.978 -0.6394 -0.7092 -0.6676
 4216TIP3    H212613   6.623   3.915   5.109  1.4992 -2.4330  0.7467
 4217TIP3   OH212614   4.087   5.069   0.275  0.6322  0.2271 -0.0894
 4217TIP3    H112615   4.066   5.044   0.185 -0.5818  0.0805  0.2192
 4217TIP3    H212616   4.176   5.035   0.289 -0.5396 -3.1650 -0.0028
 4218TIP3   OH212617   3.612   1.927   0.416 -0.5478 -0.0992  0.7378
 4218TIP3    H112618   3.650   1.846   0.384  0.2420 -0.2240  1.9216
 4218TIP3    H212619   3.529   1.901   0.457 -1.5623  0.0609 -1.0903
 4219TIP3   OH212620   1.656   0.191   4.880 -0.1653  0.3085 -0.1782
 4219TIP3    H112621   1.577   0.163   4.925 -0.4851 -0.2216 -1.0386
 4219TIP3    H212622   1.628   0.265   4.826 -0.1838 -0.1642 -0.8254
 4220TIP3   OH212623   1.172   6.651   2.025  0.3594 -0.0370 -0.4450
 4220TIP3    H112624   1.106   6.630   1.959  0.1411  0.2751 -0.3254
 4220TIP3    H212625   1.134   6.723   2.076  1.1287  0.7079 -0.8921
 4221TIP3   OH212626   3.988   6.133   2.788 -0.2636  0.3484  0.0475
 4221TIP3    H112627   4.017   6.075   2.858 -0.0584  0.0487 -0.2837
 4221TIP3    H212628   3.968   6.216   2.832 -1.0352 -0.1203  0.5977
 4222TIP3   OH212629   1.300   3.175   1.761 -0.2222 -0.3437 -0.0871
 4222TIP3    H112630   1.244   3.156   1.685  2.0554 -0.7253 -1.7666
 4222TIP3    H212631   1.238   3.194   1.832 -2.4569 -0.2523 -1.9424
 4223TIP3   OH212632   4.442   3.240   3.027  0.1248 -0.2120  0.5416
 4223TIP3    H112633   4.355   3.221   3.063  0.3214 -0.4564  0.8813
 4223TIP3    H212634   4.437   3.210   2.936  0.3761 -1.7677  1.0142
 4224TIP3   OH212635   2.234   4.344   2.230 -0.3410  0.2412  0.0629
 4224TIP3    H112636   2.277   4.259   2.230 -3.1468 -1.3562  1.4414
 4224TIP3    H212637   2.261   4.386   2.149 -0.3417 -2.8200 -1.6640
 4225TIP3   OH212638   2.919   1.384   3.638  0.3498  0.7235  0.9236
 4225TIP3    H112639   2.900   1.317   3.703 -2.3335  0.2987 -0.1644
 4225TIP3    H212640   3.004   1.359   3.602  0.3087 -0.9661  1.9033
 4226TIP3   OH212641   6.362   2.383   0.083  0.3716 -0.2906 -0.1825
 4226TIP3    H112642   6.322   2.443   0.021  0.4963 -1.0182 -0.9838
 4226TIP3    H212643   6.406   2.440   0.146 -1.6703  0.5354  0.5991
 4227TIP3   OH212644   4.381   2.269   5.714 -0.5097 -0.7497  0.3298
 4227TIP3    H112645   4.376   2.208   5.788 -0.1956 -1.1998 -0.0180
 4227TIP3    H212646   4.290   2.279   5.685 -0.7215 -0.0534  1.1856
 4228TIP3   OH212647   4.808   1.414   0.380  0.1510 -0.3183  0.2244
 4228TIP3    H112648   4.733   1.366   0.344  0.0586 -0.2704  0.3516
 4228TIP3    H212649   4.769   1.473   0.445 -0.1431  2.0799 -1.9971
 4229TIP3   OH212650   3.007   6.032   1.837  0.0981  0.0366 -0.4318
 4229TIP3    H112651   3.017   6.009   1.744  0.6487  2.0077 -0.9097
 4229TIP3    H212652   3.008   6.128   1.838  0.1155  0.0539  1.6236
 4230TIP3   OH212653   4.493   6.137   2.143  0.3492 -0.6330 -0.2232
 4230TIP3    H112654   4.564   6.080   2.172  1.2519 -0.3671 -1.7869
 4230TIP3    H212655   4.497   6.212   2.202 -0.4595 -1.8493  1.4676
 4231TIP3   OH212656   4.966   2.121   4.034 -0.4966 -0.5225  0.0679
 4231TIP3    H112657   5.015   2.178   3.975  0.1141 -0.1827  0.8768
 4231TIP3    H212658   4.896   2.177   4.068  0.0920 -0.2426  0.8485
 4232TIP3   OH212659   6.691   1.108   5.428  0.0275 -0.5446 -0.1053
 4232TIP3    H112660   6.683   1.091   5.522 -0.5507 -0.9759 -0.2235
 4232TIP3    H212661   6.601   1.098   5.395  0.1371  0.1377 -0.6152
 4233TIP3   OH212662   0.947   0.455   1.425  0.4303  0.6888 -0.1156
 4233TIP3    H112663   0.905   0.540   1.434 -0.7769  0.1554 -0.4651
 4233TIP3    H212664   0.976   0.432   1.514  0.4755  1.3077  0.0313
 4234TIP3   OH212665   5.635   2.531   1.704 -0.1425  0.2827 -0.1282
 4234TIP3    H112666   5.576   2.455   1.702  1.2801 -0.8639  0.2744
 4234TIP3    H212667   5.584   2.599   1.748 -1.7615 -0.1211 -1.2522
 4235TIP3   OH212668   2.899   5.126   1.435  0.1458  0.5454  0.1497
 4235TIP3    H112669   2.881   5.187   1.364  1.7332 -2.2790 -2.9420
 4235TIP3    H212670   2.995   5.119   1.437  0.0314 -1.5753  0.5392
 4236TIP3   OH212671   0.084   4.861   2.790  0.1849  0.5780 -0.4251
 4236TIP3    H112672   0.111   4.921   2.860  0.0364  0.6739 -0.4501
 4236TIP3    H212673   0.019   4.804   2.830  1.2244 -0.3891 -0.0468
 4237TIP3   OH212674   1.186   4.561   4.557  0.2101  0.1170 -0.4162
 4237TIP3    H112675   1.264   4.605   4.524  0.3872  0.3842  0.3402
 4237TIP3    H212676   1.218   4.476   4.589  0.5420  0.9556  1.6098
 4238TIP3   OH212677   6.797   5.695   3.985  0.0982  0.5531  0.1545
 4238TIP3    H112678   6.815   5.629   4.053  0.7714  0.8263  0.2437
 4238TIP3    H212679   6.882   5.714   3.947 -0.3919 -0.3660 -1.5018
 4239TIP3   OH212680   3.402   1.637   1.869 -0.0167  0.4015  0.3277
 4239TIP3    H112681   3.448   1.714   1.904  0.4941  0.0579  0.4278
 4239TIP3    H212682   3.440   1.563   1.917 -0.0453  0.0269 -0.2222
 4240TIP3   OH212683   4.630   6.319   2.604  0.1582 -0.5530 -0.0078
 4240TIP3    H112684   4.705   6.325   2.544  1.6562 -0.9044  1.7418
 4240TIP3    H212685   4.666   6.280   2.683 -1.4852  0.9271  1.5556
 4241TIP3   OH212686   5.682   2.344   0.404  0.6420 -0.4765  0.1501
 4241TIP3    H112687   5.597   2.301   0.417  0.5214 -0.0658  0.7483
 4241TIP3    H212688   5.660   2.436   0.389  0.9704 -0.4191  0.0050
 4242TIP3   OH212689   0.271   6.579   3.501  0.0193 -0.4097 -0.2154
 4242TIP3    H112690   0.348   6.566   3.556 -0.3970 -0.0933  0.4477
 4242TIP3    H212691   0.293   6.653   3.445  0.4781 -0.7890 -0.5429
 4243TIP3   OH212692   4.983   6.211   0.253  0.8061  0.6312 -0.2070
 4243TIP3    H112693   5.018   6.130   0.216  2.8275  1.6265 -0.6562
 4243TIP3    H212694   4.995   6.276   0.183 -2.2929  1.0384 -0.4677
 4244TIP3   OH212695   5.133   2.815   0.663 -0.0903 -0.0276 -0.2752
 4244TIP3    H112696   5.118   2.889   0.604  1.2859  0.4988  0.0060
 4244TIP3    H212697   5.209   2.770   0.626 -0.3978 -0.8054  0.0325
 4245TIP3   OH212698   2.909   3.629   3.429  0.3474 -0.1151 -0.1800
 4245TIP3    H112699   2.864   3.684   3.493 -0.1334 -0.5248 -0.1599
 4245TIP3    H212700   2.848   3.624   3.355  0.5527 -0.3072 -0.3366
 4246TIP3   OH212701   1.109   6.191   5.504  0.4190  0.0178 -0.1654
 4246TIP3    H112702   1.171   6.235   5.562 -0.3662 -0.4559  1.0779
 4246TIP3    H212703   1.164   6.147   5.439  1.2872  1.2515 -0.2973
 4247TIP3   OH212704   6.294   3.379   2.951 -0.2248 -0.6361 -0.1998
 4247TIP3    H112705   6.237   3.312   2.988 -1.3468 -0.9592 -2.3585
 4247TIP3    H212706   6.352   3.331   2.891 -1.3671  0.2968 -2.1533
 4248TIP3   OH212707   5.097   0.346   4.191 -0.7572  0.0659  0.5051
 4248TIP3    H112708   5.170   0.393   4.149  0.2689 -1.0056  1.0288
 4248TIP3    H212709   5.079   0.397   4.270  1.1022 -0.9589  1.6584
 4249TIP3   OH212710   0.972   5.318   2.990  0.1281 -0.5506  0.1369
 4249TIP3    H112711   1.062   5.338   3.014  0.3291  0.8854 -1.6020
 4249TIP3    H212712   0.949   5.243   3.045  2.2370 -0.7174  0.9011
 4250TIP3   OH212713   6.981   2.363   2.920  0.2844 -0.0167  0.4320
 4250TIP3    H112714   6.975   2.457   2.936 -3.8977  0.1552 -0.8894
 4250TIP3    H212715   6.974   2.354   2.825 -1.0564 -1.6613  0.6318
 4251TIP3   OH212716   1.103   5.997   1.658 -0.1770  0.4971  0.0021
 4251TIP3    H112717   1.151   5.989   1.575 -0.8143 -0.0625 -0.3205
 4251TIP3    H212718   1.030   6.055   1.637 -0.1666  0.5998  0.2531
 4252TIP3   OH212719   1.502   4.025   4.688  0.0641 -0.1540  0.2722
 4252TIP3    H112720   1.571   3.976   4.643 -0.3692 -0.6230  0.1058
 4252TIP3    H212721   1.512   4.001   4.780  0.7102  0.5083  0.3787
 4253TIP3   OH212722   0.539   2.360   4.726  0.0913  0.3960 -1.0567
 4253TIP3    H112723   0.544   2.453   4.745  2.9519  0.7419 -2.8646
 4253TIP3    H212724   0.583   2.318   4.800  0.2305  0.6216 -1.0103
 4254TIP3   OH212725   6.420   2.183   3.022 -0.1147 -0.4405 -0.2498
 4254TIP3    H112726   6.408   2.262   2.969  1.1283 -0.7095 -0.9727
 4254TIP3    H212727   6.373   2.115   2.973 -1.4627 -0.1152  0.5398
 4255TIP3   OH212728   0.473   5.808   2.816 -0.1732  0.0301  0.1090
 4255TIP3    H112729   0.492   5.718   2.841 -0.1142  0.2141  0.7396
 4255TIP3    H212730   0.497   5.860   2.892 -1.5563  0.4428  0.2912
 4256TIP3   OH212731   6.911   0.645   0.327 -0.1980 -0.0984 -0.0946
 4256TIP3    H112732   6.917   0.549   0.333  0.7444 -0.1343 -1.1622
 4256TIP3    H212733   6.991   0.676   0.368 -0.4950  0.2343  0.2308
 4257TIP3   OH212734   6.121   5.629   1.006  0.1224  0.2706 -0.2536
 4257TIP3    H112735   6.089   5.556   1.060 -0.7201 -0.1605 -1.3022
 4257TIP3    H212736   6.043   5.663   0.962  0.8738  0.1459 -1.7495
 4258TIP3   OH212737   1.231   3.029   5.302  0.4171  0.8101  0.1090
 4258TIP3    H112738   1.223   2.941   5.337 -0.5584  0.8102 -0.0818
 4258TIP3    H212739   1.241   3.016   5.207  0.4471  0.8986  0.0999
 4259TIP3   OH212740   2.933   4.405   4.551 -0.9022 -0.1398  0.3710
 4259TIP3    H112741   2.884   4.468   4.603 -1.0263 -0.0254  0.1175
 4259TIP3    H212742   2.912   4.427   4.460 -0.6117 -0.2748  0.2696
 4260TIP3   OH212743   1.999   2.644   2.173  0.6361  0.2459  1.3077
 4260TIP3    H112744   2.015   2.716   2.112 -1.0336 -0.3594  0.0940
 4260TIP3    H212745   1.977   2.686   2.255  1.7198  1.0856  1.1935
 4261TIP3   OH212746   2.944   3.448   4.179  0.5684 -0.1227 -0.0769
 4261TIP3    H112747   3.036   3.473   4.182  0.4032  0.6318 -0.7228
 4261TIP3    H212748   2.897   3.531   4.182 -0.1362 -0.5469  1.2497
 4262TIP3   OH212749   6.734   1.208   1.698 -0.0487 -0.1796  0.3115
 4262TIP3    H112750   6.803   1.211   1.632 -1.6673 -0.0983 -1.4858
 4262TIP3    H212751   6.780   1.196   1.781  1.9776 -2.5867 -1.0232
 4263TIP3   OH212752   4.350   4.982   0.255  0.3073  0.2901 -0.5043
 4263TIP3    H112753   4.400   5.057   0.221  0.4494  0.5526  0.2600
 4263TIP3    H212754   4.333   4.927   0.179  1.5670  0.3150 -0.8134
 4264TIP3   OH212755   6.842   5.283   4.886  0.2496  0.0506 -0.6861
 4264TIP3    H112756   6.827   5.300   4.979  0.8974 -1.0497 -0.3623
 4264TIP3    H212757   6.860   5.189   4.881  0.8474  0.2054 -1.8469
 4265TIP3   OH212758   3.237   1.378   0.766  0.5088  0.2804  0.1220
 4265TIP3    H112759   3.211   1.467   0.788 -0.0721  0.0144  0.5532
 4265TIP3    H212760   3.310   1.359   0.824  0.5367  0.4247  0.1336
 4266TIP3   OH212761   1.313   0.524   3.696 -0.2341  0.2691 -0.1630
 4266TIP3    H112762   1.256   0.448   3.699  0.3815 -0.1820  0.4818
 4266TIP3    H212763   1.259   0.594   3.659 -0.9983 -0.3084 -0.1509
 4267TIP3   OH212764   2.352   3.931   0.530  0.0326  0.0716 -0.1821
 4267TIP3    H112765   2.290   3.925   0.458 -0.7284 -1.9811  0.5592
 4267TIP3    H212766   2.297   3.934   0.609  0.8568  0.1804  0.4010
 4268TIP3   OH212767   2.728   1.738   2.219 -0.1705 -0.0768 -0.2283
 4268TIP3    H112768   2.788   1.675   2.180  0.8415  1.0068 -0.4723
 4268TIP3    H212769   2.673   1.768   2.147 -0.0161  0.0232 -0.3044
 4269TIP3   OH212770   4.045   6.480   3.535 -0.2331 -0.2927  0.1906
 4269TIP3    H112771   3.969   6.423   3.533 -1.3833  1.2006 -1.1128
 4269TIP3    H212772   4.082   6.469   3.623 -1.1674 -2.0175  0.3988
 4270TIP3   OH212773   5.786   3.780   3.558 -0.0143 -0.0633  0.5089
 4270TIP3    H112774   5.806   3.771   3.651 -0.1687  0.0763  0.5558
 4270TIP3    H212775   5.828   3.705   3.517  2.2432  1.2167  0.3521
 4271TIP3   OH212776   0.263   4.764   2.597  0.1505 -0.1329  0.4893
 4271TIP3    H112777   0.200   4.789   2.664  1.3051 -1.0601  1.9906
 4271TIP3    H212778   0.222   4.691   2.551 -0.6108  0.4493  0.2234
 4272TIP3   OH212779   5.261   5.563   0.952  0.3821 -0.5941  0.1060
 4272TIP3    H112780   5.253   5.638   0.894 -1.7846 -0.5915  0.3166
 4272TIP3    H212781   5.354   5.540   0.950  0.5939  0.2091 -2.3154
 4273TIP3   OH212782   5.217   4.237   3.722 -0.6090 -0.0667  0.0897
 4273TIP3    H112783   5.139   4.287   3.698 -0.6985 -0.2480 -0.0020
 4273TIP3    H212784   5.199   4.206   3.810 -0.3177  0.5260  0.3639
 4274TIP3   OH212785   7.194   1.433   0.968  0.5297 -0.2092  0.0090
 4274TIP3    H112786   7.140   1.394   0.900  0.4546 -1.0648  0.5520
 4274TIP3    H212787   7.137   1.496   1.011  0.1169 -0.7288  0.2358
 4275TIP3   OH212788   3.639   2.840   1.326  0.3913  0.1999  0.0895
 4275TIP3    H112789   3.658   2.921   1.280  1.2015 -0.2585 -0.4036
 4275TIP3    H212790   3.547   2.849   1.353 -0.2826  0.2925 -2.0192
 4276TIP3   OH212791   4.317   2.005   2.170 -0.6145 -0.2876  0.0885
 4276TIP3    H112792   4.238   2.026   2.221 -0.6376  1.4787 -0.6239
 4276TIP3    H212793   4.298   1.919   2.132 -1.5737 -0.5598  1.1163
 4277TIP3   OH212794   5.377   4.760   5.815  0.0847  0.1452  0.2660
 4277TIP3    H112795   5.462   4.805   5.818  0.1794 -0.0511  0.5568
 4277TIP3    H212796   5.399   4.668   5.802 -0.1620  0.4082 -2.5984
 4278TIP3   OH212797   3.931   1.487   4.263 -0.4814 -0.3931 -0.0063
 4278TIP3    H112798   3.857   1.480   4.203  0.4109 -0.3901 -1.1554
 4278TIP3    H212799   4.007   1.494   4.205  0.4138 -0.4121  1.1428
 4279TIP3   OH212800   2.660   4.309   5.186  0.1003 -0.7966 -0.0815
 4279TIP3    H112801   2.718   4.292   5.260 -0.3504  1.1854  0.7953
 4279TIP3    H212802   2.668   4.403   5.171 -2.5352 -0.5263 -0.2122
 4280TIP3   OH212803   2.172   3.025   3.401 -0.2434  0.0240 -0.4551
 4280TIP3    H112804   2.205   2.968   3.332  1.0111 -1.7655  1.4892
 4280TIP3    H212805   2.097   2.978   3.438 -0.7809  0.8557 -0.4553
 4281TIP3   OH212806   1.276   6.000   2.829 -0.4987 -0.5048  0.3819
 4281TIP3    H112807   1.327   6.071   2.869 -0.5967 -1.7590  2.9910
 4281TIP3    H212808   1.333   5.966   2.760 -0.0816  1.4678 -0.3392
 4282TIP3   OH212809   1.832   3.063   4.117 -0.2171 -0.1916  0.6032
 4282TIP3    H112810   1.924   3.037   4.115 -0.3741 -0.8842 -2.3565
 4282TIP3    H212811   1.834   3.157   4.099 -0.1002 -0.6077 -1.8575
 4283TIP3   OH212812   5.271   6.347   3.668  0.0405 -0.0344  0.2776
 4283TIP3    H112813   5.288   6.389   3.584  2.0667 -0.5428  0.3703
 4283TIP3    H212814   5.279   6.418   3.732 -0.4938  0.1645  0.1266
 4284TIP3   OH212815   5.832   0.993   0.019 -0.0312  0.1353 -0.0620
 4284TIP3    H112816   5.893   0.968  -0.050 -0.5232 -1.0989 -0.0756
 4284TIP3    H212817   5.870   0.958   0.100 -0.4084 -0.1063  0.0148
 4285TIP3   OH212818   1.014   0.397   1.698  0.1490 -0.0004  0.0242
 4285TIP3    H112819   1.084   0.343   1.735  0.1967 -0.3458 -0.5645
 4285TIP3    H212820   0.938   0.379   1.753  0.0004 -1.1488 -0.5359
 4286TIP3   OH212821   3.636   3.089   1.284  0.0187  0.3462 -0.2865
 4286TIP3    H112822   3.725   3.110   1.254 -0.3822 -0.3768 -2.0541
 4286TIP3    H212823   3.580   3.106   1.209 -1.1868 -0.5265  0.3724
 4287TIP3   OH212824   3.412   2.386   2.985  0.2043  0.0470 -0.3767
 4287TIP3    H112825   3.443   2.297   3.003 -0.8071 -0.0388  1.1692
 4287TIP3    H212826   3.404   2.391   2.890 -0.0021 -1.6259 -0.4678
 4288TIP3   OH212827   1.593   6.497   3.015  0.7178  0.2116  0.2826
 4288TIP3    H112828   1.627   6.435   2.950 -0.1981 -0.3551  0.3227
 4288TIP3    H212829   1.535   6.554   2.966  0.3706  0.0626  0.5144
 4289TIP3   OH212830   3.717   6.516  -0.013 -0.2263 -0.0869  1.1225
 4289TIP3    H112831   3.665   6.596  -0.013  0.8885  0.6726 -0.0662
 4289TIP3    H212832   3.746   6.506   0.078  2.0901  2.5442  0.7854
 4290TIP3   OH212833   0.516   4.876   1.455  0.4584 -0.2615  0.3754
 4290TIP3    H112834   0.579   4.858   1.385  1.1262  0.1063  0.8777
 4290TIP3    H212835   0.517   4.971   1.465  0.1062 -0.2858  0.6486
 4291TIP3   OH212836   6.964   4.919   2.937  0.2086  0.0351  0.2998
 4291TIP3    H112837   7.036   4.863   2.908 -0.7793 -1.2708  0.2555
 4291TIP3    H212838   6.999   5.008   2.932  2.9708 -0.6588  3.4534
 4292TIP3   OH212839   6.148   1.596   1.810 -0.2066 -0.3955 -0.3623
 4292TIP3    H112840   6.206   1.565   1.880  0.4975 -0.0131 -0.7678
 4292TIP3    H212841   6.065   1.613   1.854 -0.2888 -1.7942  0.0699
 4293TIP3   OH212842   1.631   4.246   0.057  0.5986 -0.1984 -0.0081
 4293TIP3    H112843   1.551   4.203   0.086  0.4357 -0.0630 -0.2462
 4293TIP3    H212844   1.635   4.327   0.109  0.1366  0.2016 -0.5794
 4294TIP3   OH212845   0.558   5.714   1.864  0.4084 -1.0828 -0.7114
 4294TIP3    H112846   0.540   5.635   1.815  0.6661 -1.5220 -0.1084
 4294TIP3    H212847   0.653   5.715   1.875  0.3873 -0.8032 -0.5350
 4295TIP3   OH212848   7.118   0.931   0.064 -0.3146  0.6985 -0.2306
 4295TIP3    H112849   7.080   0.921   0.151 -0.9130  2.3408 -0.2669
 4295TIP3    H212850   7.210   0.907   0.076 -1.1921 -3.1861 -0.1106
 4296TIP3   OH212851   6.913   3.086   3.626 -0.0684 -0.2573  0.2158
 4296TIP3    H112852   6.879   3.146   3.560 -0.3136 -0.3782  0.2314
 4296TIP3    H212853   6.937   3.142   3.699 -1.4914 -0.2791  0.7396
 4297TIP3   OH212854   4.467   3.197   0.903  0.1092  1.0643  0.6263
 4297TIP3    H112855   4.388   3.143   0.897  0.8771 -0.1833  1.4174
 4297TIP3    H212856   4.480   3.230   0.814  0.9758 -2.0648 -0.5129
 4298TIP3   OH212857   2.248   5.934   5.237  0.0868  0.3387 -0.1473
 4298TIP3    H112858   2.153   5.928   5.246  0.1220  0.1898  0.1055
 4298TIP3    H212859   2.281   5.949   5.325  0.4835 -1.9032  0.1597
 4299TIP3   OH212860   4.299   6.718   0.041  0.2285  0.6486  0.2006
 4299TIP3    H112861   4.313   6.628   0.010  2.7982  1.1904 -0.3720
 4299TIP3    H212862   4.332   6.719   0.131  0.2108  1.0304  0.2053
 4300TIP3   OH212863   3.215   1.231   2.810  0.7873 -0.2041 -0.0567
 4300TIP3    H112864   3.224   1.293   2.737  1.2963 -1.2435 -0.9080
 4300TIP3    H212865   3.125   1.200   2.804  0.4016  0.7213  0.6227
 4301TIP3   OH212866   6.522   6.111   2.472 -0.0155 -0.1832  0.6716
 4301TIP3    H112867   6.575   6.187   2.493  1.2625 -1.1358  1.0299
 4301TIP3    H212868   6.568   6.068   2.400 -1.4213  0.0634 -0.4370
 4302TIP3   OH212869   3.142   4.924   4.888 -0.1845  0.2001  0.5301
 4302TIP3    H112870   3.126   4.841   4.934 -0.2015 -0.0615  0.0586
 4302TIP3    H212871   3.213   4.904   4.827 -0.5810  0.3781  0.0040
 4303TIP3   OH212872   1.709   1.970   5.367  0.3701 -0.3474 -0.2985
 4303TIP3    H112873   1.668   1.954   5.452 -0.2563 -0.2388 -0.5748
 4303TIP3    H212874   1.691   2.063   5.350  1.5792 -0.0416  0.0233
 4304TIP3   OH212875   1.880   6.199   3.438  0.5336 -0.1357 -0.7501
 4304TIP3    H112876   1.833   6.223   3.359 -0.5841 -0.5387 -0.2320
 4304TIP3    H212877   1.871   6.104   3.444 -2.2830  0.1404  1.5418
 4305TIP3   OH212878   2.879   3.346   1.966 -0.0711 -0.0627  0.2368
 4305TIP3    H112879   2.871   3.422   2.023 -0.2475  1.4194 -1.6790
 4305TIP3    H212880   2.821   3.364   1.892  1.9631 -0.7312 -1.6338
 4306TIP3   OH212881   4.876   4.608   5.472 -0.2266 -0.0287  0.0362
 4306TIP3    H112882   4.962   4.568   5.456  0.7504  1.2787  1.6639
 4306TIP3    H212883   4.846   4.567   5.553 -1.1828 -0.4848 -0.5289
 4307TIP3   OH212884   5.135   1.388   2.487 -0.1164  0.2138  0.0212
 4307TIP3    H112885   5.217   1.376   2.438 -0.2339 -0.2799 -0.0668
 4307TIP3    H212886   5.162   1.423   2.571  0.1785  0.1728 -0.0533
 4308TIP3   OH212887   2.648   1.138   3.479  0.0201 -0.4884 -0.5553
 4308TIP3    H112888   2.600   1.059   3.503 -0.5477 -0.4814 -1.5991
 4308TIP3    H212889   2.741   1.115   3.489 -0.1604 -0.2713  2.1974
 4309TIP3   OH212890   3.371   4.178   0.912  0.6505  0.2757  0.2612
 4309TIP3    H112891   3.381   4.273   0.923  0.5560  0.1840  1.2489
 4309TIP3    H212892   3.428   4.156   0.839  0.4014  1.1458 -0.2119
 4310TIP3   OH212893   6.329   3.078   2.682 -0.0949  0.3048 -0.6158
 4310TIP3    H112894   6.391   3.135   2.729  0.6223 -2.1898  1.6803
 4310TIP3    H212895   6.243   3.105   2.714  0.1130  1.0174 -0.6317
 4311TIP3   OH212896   6.809   0.950   1.222  0.1900  0.6142 -0.2228
 4311TIP3    H112897   6.874   1.020   1.211 -0.8859  1.6602 -0.1053
 4311TIP3    H212898   6.757   0.951   1.142  0.1496 -0.0555 -0.2152
 4312TIP3   OH212899   4.580   0.723   5.288  0.9425  0.3586  0.2207
 4312TIP3    H112900   4.540   0.642   5.257 -1.3730  0.5929  2.3200
 4312TIP3    H212901   4.568   0.784   5.215 -0.3197 -0.2884 -0.1409
 4313TIP3   OH212902   3.699   3.912   3.045 -0.1148 -0.0394 -0.3626
 4313TIP3    H112903   3.648   3.938   3.121 -0.3909  1.2995 -0.9885
 4313TIP3    H212904   3.778   3.872   3.083 -0.5829 -0.0753  0.6169
 4314TIP3   OH212905   0.535   2.910   1.095 -0.2182  0.6047 -0.5325
 4314TIP3    H112906   0.631   2.908   1.091 -0.1771  0.5340  0.4096
 4314TIP3    H212907   0.514   2.917   1.188 -1.1472 -0.8423 -0.5912
 4315TIP3   OH212908   0.113   0.636   4.082 -0.5979  0.5639  0.3298
 4315TIP3    H112909   0.045   0.699   4.106  0.8862  1.9342  1.0411
 4315TIP3    H212910   0.160   0.678   4.010 -0.6546 -0.4998 -0.3502
 4316TIP3   OH212911   1.643   2.795   2.138 -0.3760  0.5127 -0.0866
 4316TIP3    H112912   1.590   2.769   2.063  0.8142  1.7057 -1.3832
 4316TIP3    H212913   1.666   2.713   2.181 -1.9300 -0.1169 -0.4020
 4317TIP3   OH212914   0.153   0.041   1.107  0.2912 -0.1478 -0.0044
 4317TIP3    H112915   0.240   0.025   1.068 -0.3459 -1.5116 -0.9502
 4317TIP3    H212916   0.098   0.064   1.032 -0.6241 -1.3673  0.2655
 4318TIP3   OH212917   4.466   0.242   5.241 -0.1685 -0.0346 -0.0582
 4318TIP3    H112918   4.380   0.257   5.281 -0.5929 -1.0285 -0.5655
 4318TIP3    H212919   4.522   0.214   5.313 -0.3496  0.3070  0.2181
 4319TIP3   OH212920   2.576   1.750   1.964  0.2597  0.4498  0.3181
 4319TIP3    H112921   2.502   1.693   1.942 -0.4513  1.3932  0.1722
 4319TIP3    H212922   2.635   1.743   1.888  0.8113 -1.0487  0.8567
 4320TIP3   OH212923   0.646   4.105   5.239 -0.6303 -0.6942  0.1686
 4320TIP3    H112924   0.562   4.069   5.210 -1.9091  2.0378  0.1438
 4320TIP3    H212925   0.637   4.112   5.334 -0.0441 -1.2315  0.2688
 4321TIP3   OH212926   2.770   4.597   5.172 -0.2546 -0.3697  0.5022
 4321TIP3    H112927   2.845   4.584   5.230  0.9903 -2.9078 -1.4612
 4321TIP3    H212928   2.803   4.651   5.101  0.3576 -2.7825 -1.1926
 4322TIP3   OH212929   7.113   1.863   2.584  0.0177 -0.1848 -0.6967
 4322TIP3    H112930   7.110   1.958   2.593  0.1519 -0.0540 -1.9083
 4322TIP3    H212931   7.092   1.830   2.672 -1.8512  0.9202 -0.6900
 4323TIP3   OH212932   5.193   6.212   1.492 -0.0872  0.0067  0.1164
 4323TIP3    H112933   5.259   6.279   1.508 -0.3339 -0.1115  1.8003
 4323TIP3    H212934   5.180   6.214   1.397 -0.8749  3.1315  0.1641
 4324TIP3   OH212935   5.732   3.439   5.027  0.3678 -0.4457  0.2082
 4324TIP3    H112936   5.703   3.374   4.962 -0.2312 -0.4456  0.4696
 4324TIP3    H212937   5.827   3.436   5.022  0.3786 -1.7902  0.6492
 4325TIP3   OH212938   2.842   1.118   0.478  0.3555  0.8993 -0.2866
 4325TIP3    H112939   2.813   1.164   0.557 -1.8388  0.7827 -0.9473
 4325TIP3    H212940   2.782   1.044   0.470  1.8136 -0.2651 -0.9898
 4326TIP3   OH212941   5.440   4.988   3.067 -0.2309  0.4810 -0.0417
 4326TIP3    H112942   5.380   5.062   3.076 -0.5878  0.2351 -0.3823
 4326TIP3    H212943   5.433   4.961   2.976 -0.3374 -0.1645  0.1474
 4327TIP3   OH212944   0.886   4.613   1.299  0.6940  0.3964  0.1110
 4327TIP3    H112945   0.842   4.533   1.329  2.0735  0.1575  1.6215
 4327TIP3    H212946   0.933   4.587   1.220  1.2895 -0.3661  0.6990
 4328TIP3   OH212947   2.079   4.577   1.513  0.4554 -0.5371  0.2619
 4328TIP3    H112948   2.088   4.576   1.418 -0.6266 -0.3634  0.1544
 4328TIP3    H212949   1.985   4.585   1.529  0.6706  0.0684  1.3366
 4329TIP3   OH212950   2.646   5.422   1.761  0.2324 -0.0568 -0.1836
 4329TIP3    H112951   2.598   5.505   1.762 -0.7156 -0.5843 -0.1057
 4329TIP3    H212952   2.682   5.415   1.850  2.7359  1.5799 -0.9669
 4330TIP3   OH212953   4.759   4.349   5.282 -0.8053 -0.0409 -0.5112
 4330TIP3    H112954   4.685   4.307   5.328 -1.0018  1.3745  0.5176
 4330TIP3    H212955   4.751   4.442   5.302  0.8987  0.2342 -0.9209
 4331TIP3   OH212956   2.332   4.770   1.528 -0.1067  0.2521  0.5367
 4331TIP3    H112957   2.278   4.805   1.457  1.2554 -0.4866 -0.9155
 4331TIP3    H212958   2.279   4.701   1.567 -0.4088 -0.1423 -0.5515
 4332TIP3   OH212959   1.848   1.232   5.651 -0.5265  0.1833 -0.0081
 4332TIP3    H112960   1.853   1.159   5.589  0.6366 -0.0468  0.3213
 4332TIP3    H212961   1.893   1.304   5.607  1.6352 -0.4147  1.0948
 4333TIP3   OH212962   5.096   1.893   5.287 -0.8959 -0.2507 -0.2944
 4333TIP3    H112963   5.058   1.955   5.224  0.8779  1.0367 -0.1760
 4333TIP3    H212964   5.117   1.816   5.234  1.4736  1.1793 -1.5984
 4334TIP3   OH212965   1.188   2.801   1.257  0.4294  0.8503 -0.0609
 4334TIP3    H112966   1.271   2.752   1.257  0.0740  0.2448 -0.2475
 4334TIP3    H212967   1.151   2.785   1.171  0.0395  0.9937  0.0804
 4335TIP3   OH212968   1.411   1.129   3.078  0.2542  0.3364 -0.7677
 4335TIP3    H112969   1.332   1.079   3.061  0.3357  0.4846 -1.6136
 4335TIP3    H212970   1.387   1.220   3.058  0.5869  0.4058 -0.8584
 4336TIP3   OH212971   2.985   2.698   2.986  0.0446 -0.4454  0.0912
 4336TIP3    H112972   3.013   2.634   2.920  0.7658 -0.4902  0.4355
 4336TIP3    H212973   2.996   2.653   3.069 -2.4023 -0.9860  0.2062
 4337TIP3   OH212974   1.832   0.686   0.811 -0.0596 -0.0076  0.7323
 4337TIP3    H112975   1.762   0.716   0.869 -1.7262  0.6654 -1.4769
 4337TIP3    H212976   1.912   0.693   0.863 -1.2622  1.9747  2.4481
 4338TIP3   OH212977   6.847   4.602   0.207  0.5779  0.6921  0.1886
 4338TIP3    H112978   6.878   4.666   0.143  0.6745  1.1892  0.7248
 4338TIP3    H212979   6.812   4.530   0.154  2.6937  0.0664 -0.4601
 4339TIP3   OH212980   4.701   6.449   3.434  0.8294 -0.0691  0.3264
 4339TIP3    H112981   4.762   6.475   3.366  0.2611 -0.1610 -0.2270
 4339TIP3    H212982   4.752   6.395   3.494  1.1090 -0.7258 -0.5030
 4340TIP3   OH212983   5.042   1.536   4.335  0.0050 -0.5403 -0.3274
 4340TIP3    H112984   5.137   1.528   4.343  0.0415 -1.5972 -1.5655
 4340TIP3    H212985   5.010   1.446   4.330 -1.0776 -0.2076  0.0793
 4341TIP3   OH212986   6.823   2.162   1.631  0.3241  0.5386 -0.4992
 4341TIP3    H112987   6.846   2.071   1.650  0.2841  0.7227  0.4990
 4341TIP3    H212988   6.869   2.213   1.698 -1.7680  1.0483  0.6199
 4342TIP3   OH212989   7.191   2.778   0.496 -0.0166  0.0734  0.0683
 4342TIP3    H112990   7.214   2.726   0.419  0.4025 -0.2152  0.3832
 4342TIP3    H212991   7.191   2.716   0.568  1.4285  0.6680  0.6151
 4343TIP3   OH212992   0.870   1.750   2.893  0.3127  0.5767 -0.4028
 4343TIP3    H112993   0.812   1.687   2.936  0.0560 -0.3150 -1.9723
 4343TIP3    H212994   0.855   1.832   2.940 -0.6330 -0.1349  0.5908
 4344TIP3   OH212995   5.883   3.810   0.387  0.1376 -0.1979 -0.2994
 4344TIP3    H112996   5.900   3.904   0.396 -0.6772  0.0787 -1.4593
 4344TIP3    H212997   5.898   3.791   0.294 -1.4044 -0.8417 -0.4566
 4345TIP3   OH212998   6.897   3.539   2.010 -0.4360  0.6438  0.3793
 4345TIP3    H112999   6.820   3.582   2.048 -1.4165 -0.3440 -0.4133
 4345TIP3    H213000   6.863   3.490   1.935  1.0977  0.7874 -0.4587
 4346TIP3   OH213001   3.201   5.066   4.303  0.0376 -0.3730 -0.0568
 4346TIP3    H113002   3.221   5.084   4.211  1.4411  0.3920  0.3603
 4346TIP3    H213003   3.164   4.977   4.303  2.2542 -1.3796 -1.1174
 4347TIP3   OH213004   3.827   0.838   4.918  0.6197  0.4865  0.2153
 4347TIP3    H113005   3.817   0.933   4.923  0.2294  0.5117 -0.9073
 4347TIP3    H213006   3.855   0.821   4.829  0.0366 -0.5047  0.2059
 4348TIP3   OH213007   2.740   4.945   3.259  0.0141  0.1937  0.3776
 4348TIP3    H113008   2.770   5.002   3.330  1.1740  0.2774 -0.1743
 4348TIP3    H213009   2.723   4.861   3.302 -0.7918  0.6586  1.0181
 4349TIP3   OH213010   6.317   2.473   2.758  0.4245 -0.3270  0.6148
 4349TIP3    H113011   6.334   2.378   2.752  1.4534 -0.2059  1.3633
 4349TIP3    H213012   6.223   2.479   2.775  0.1819 -1.1715 -0.2675
 4350TIP3   OH213013   7.039   1.713   1.369 -0.3867 -0.3997  0.0049
 4350TIP3    H113014   6.956   1.679   1.402 -0.5132 -0.0460  0.0579
 4350TIP3    H213015   7.022   1.806   1.352  0.2273 -0.1125  0.8267
 4351TIP3   OH213016   1.816   6.339   0.015 -0.2748  0.0129  0.3534
 4351TIP3    H113017   1.825   6.377  -0.073 -1.7823 -0.0876  0.1335
 4351TIP3    H213018   1.817   6.414   0.073 -0.3059  0.1652  0.1596
 4352TIP3   OH213019   5.475   1.758   3.830  0.3504  0.3940 -0.2477
 4352TIP3    H113020   5.565   1.729   3.845 -0.2646 -0.3849  2.5603
 4352TIP3    H213021   5.455   1.813   3.906 -1.2927  1.2258 -1.2380
 4353TIP3   OH213022   1.950   3.376   0.638  0.4134  0.2280 -0.3422
 4353TIP3    H113023   1.886   3.391   0.569  0.3484 -2.2732 -0.9332
 4353TIP3    H213024   1.903   3.322   0.703  0.7720  1.6750  1.1860
 4354TIP3   OH213025   2.782   5.988   4.280  0.6904  0.2898 -0.3811
 4354TIP3    H113026   2.782   6.067   4.225  0.6274  0.2043 -0.5064
 4354TIP3    H213027   2.705   5.998   4.336 -0.7352 -0.7791 -2.0189
 4355TIP3   OH213028   6.350   5.097   0.504  0.1049  0.1844  0.3143
 4355TIP3    H113029   6.291   5.022   0.509  1.3098 -0.9186 -0.9613
 4355TIP3    H213030   6.364   5.123   0.594 -1.7535  0.0284  0.6817
 4356TIP3   OH213031   2.048   0.204   4.712 -0.0205 -0.0688  0.2142
 4356TIP3    H113032   2.072   0.125   4.664 -1.2180 -0.9014  0.9141
 4356TIP3    H213033   1.989   0.172   4.781  2.1519  0.9178  2.7438
 4357TIP3   OH213034   0.705   6.052   5.437 -0.1921 -0.7774  0.1057
 4357TIP3    H113035   0.699   6.030   5.530 -0.0423  1.4743  0.7026
 4357TIP3    H213036   0.657   6.135   5.429  1.8256  0.3293 -1.3253
 4358TIP3   OH213037   6.159   0.362   5.733  0.3314 -0.0264  0.1329
 4358TIP3    H113038   6.179   0.372   5.639 -0.1688  0.8509  0.1129
 4358TIP3    H213039   6.172   0.450   5.769 -1.6081  0.1441  0.4792
 4359TIP3   OH213040   3.825   2.531   5.687 -0.1668  0.3602  0.1804
 4359TIP3    H113041   3.862   2.619   5.676  0.3045  0.2882  1.0941
 4359TIP3    H213042   3.733   2.545   5.708  0.0358  0.6593  0.8754
 4360TIP3   OH213043   4.953   0.039   5.360 -0.5877 -0.0924  0.2045
 4360TIP3    H113044   4.909   0.008   5.281 -1.9960  0.9827  0.5080
 4360TIP3    H213045   5.017  -0.028   5.381  0.3077 -0.0785 -2.2347
 4361TIP3   OH213046   2.731   5.641   5.531  0.5272 -0.0707  0.4260
 4361TIP3    H113047   2.748   5.595   5.614  0.6859 -0.5421  0.1370
 4361TIP3    H213048   2.800   5.706   5.524  1.2998 -0.9215  0.0191
 4362TIP3   OH213049   4.430   4.151   3.772  0.0570  0.2548  0.4116
 4362TIP3    H113050   4.403   4.239   3.749 -0.9652 -0.7511 -2.6493
 4362TIP3    H213051   4.513   4.162   3.819 -0.6886  2.8429  1.2580
 4363TIP3   OH213052   4.021   1.075   0.730  1.0232 -0.4304  0.1865
 4363TIP3    H113053   4.088   1.125   0.777  1.2660 -0.3240 -0.2741
 4363TIP3    H213054   4.054   1.067   0.641 -0.3461  1.0947 -0.5131
 4364TIP3   OH213055   5.107   4.927   2.138 -0.5105 -0.4586  0.0332
 4364TIP3    H113056   5.123   4.939   2.232 -0.1027 -1.3330  0.0904
 4364TIP3    H213057   5.164   4.853   2.114  0.5226  0.7057 -1.2280
 4365TIP3   OH213058   6.254   2.996   4.716  0.3518  0.4818  0.2121
 4365TIP3    H113059   6.216   2.922   4.668  2.0495 -0.9873  1.0269
 4365TIP3    H213060   6.337   2.963   4.750 -0.6001  1.4350  3.9928
 4366TIP3   OH213061   5.517   6.035   1.444  0.0110  0.1453  0.3655
 4366TIP3    H113062   5.505   6.130   1.443  0.3851  0.2392  2.3480
 4366TIP3    H213063   5.431   6.000   1.419  0.7310  0.9161 -4.1243
 4367TIP3   OH213064   2.105   4.920   4.478  0.6962 -0.2417  0.0116
 4367TIP3    H113065   2.134   4.953   4.393  1.5908  1.5276  0.9503
 4367TIP3    H213066   2.010   4.912   4.469  0.8571 -0.9928 -1.4202
 4368TIP3   OH213067   0.349   5.747   0.246  0.4871  0.4075  0.2829
 4368TIP3    H113068   0.410   5.790   0.306 -0.2809  1.8848  0.0274
 4368TIP3    H213069   0.265   5.750   0.290  0.7810 -3.2267  1.4554
 4369TIP3   OH213070   1.559   6.171   2.327  0.3162 -0.2695  0.1709
 4369TIP3    H113071   1.576   6.115   2.251 -1.1382 -0.3906 -0.0860
 4369TIP3    H213072   1.612   6.133   2.397 -0.5491 -1.9057 -0.0249
 4370TIP3   OH213073   4.359   0.903   5.450 -0.1850  0.5574  0.5052
 4370TIP3    H113074   4.267   0.929   5.453 -0.9275 -1.5348 -1.2123
 4370TIP3    H213075   4.361   0.831   5.387  2.7508  0.9555 -0.0040
 4371TIP3   OH213076   4.943   2.363   1.855  0.0811  0.1531  0.4582
 4371TIP3    H113077   4.914   2.297   1.918  0.4939 -1.0120 -0.5364
 4371TIP3    H213078   4.871   2.368   1.791  0.3881  0.0890  0.1049
 4372TIP3   OH213079   6.968   1.455   1.583 -0.0864 -0.5910  0.4804
 4372TIP3    H113080   6.976   1.374   1.532 -0.7113 -0.4742  0.1870
 4372TIP3    H213081   6.875   1.476   1.581  0.1226  0.3930  0.1495
 4373TIP3   OH213082   5.199   5.411   5.675  0.1929  0.2316 -0.3470
 4373TIP3    H113083   5.274   5.352   5.666  0.3933  0.0966  1.8062
 4373TIP3    H213084   5.181   5.440   5.585  0.3130 -2.7777 -1.4616
 4374TIP3   OH213085   5.729   1.537   5.248 -0.1921  0.0073 -0.0444
 4374TIP3    H113086   5.710   1.536   5.342 -0.7461  1.1626 -0.1253
 4374TIP3    H213087   5.820   1.509   5.242  0.2516  1.1240  0.9573
 4375TIP3   OH213088   3.181   3.365   5.134  0.1011  0.2013 -0.4404
 4375TIP3    H113089   3.232   3.365   5.215 -2.7285  0.7533  1.4930
 4375TIP3    H213090   3.162   3.273   5.117 -1.3134  0.1871  0.9817
 4376TIP3   OH213091   4.159   0.503   1.382 -0.3638 -0.0178 -0.0311
 4376TIP3    H113092   4.176   0.568   1.451  0.5021 -1.0290  0.7456
 4376TIP3    H213093   4.203   0.424   1.412 -0.9096 -0.8155 -1.2353
 4377TIP3   OH213094   4.236   3.389   4.753 -0.1266  0.3702  0.4726
 4377TIP3    H113095   4.157   3.352   4.792 -0.6319  2.5401  1.6154
 4377TIP3    H213096   4.212   3.479   4.730  1.0814  0.1328 -2.1126
 4378TIP3   OH213097   3.677   3.381   2.913  0.2413  0.5473  0.2309
 4378TIP3    H113098   3.658   3.473   2.926  0.4487  0.4631  1.1661
 4378TIP3    H213099   3.694   3.346   3.000 -0.8674 -0.6165  0.0152
 4379TIP3   OH213100   2.048   0.662   0.985  0.1049  0.3283 -0.1746
 4379TIP3    H113101   2.121   0.720   1.006  0.0009  1.2527 -2.1777
 4379TIP3    H213102   1.981   0.684   1.050  1.0262  0.5365  0.7314
 4380TIP3   OH213103   4.817   0.196   5.599  0.2141 -0.2494 -0.6098
 4380TIP3    H113104   4.838   0.280   5.640  0.0953 -0.5302  0.0326
 4380TIP3    H213105   4.883   0.186   5.530 -0.0054  0.5486 -0.9517
 4381TIP3   OH213106   5.541   6.766   0.293  0.2546 -0.6958 -0.6130
 4381TIP3    H113107   5.451   6.733   0.303 -0.1938  0.8385  0.8821
 4381TIP3    H213108   5.560   6.808   0.377  2.0276 -0.1414 -1.2558
 4382TIP3   OH213109   4.349   0.212   3.183 -0.3602  0.3029 -0.0128
 4382TIP3    H113110   4.315   0.132   3.144 -0.9205 -0.0059  1.0508
 4382TIP3    H213111   4.422   0.238   3.127 -0.5482 -0.6254 -0.7046
 4383TIP3   OH213112   1.913   1.064   4.601 -1.1912 -0.1104 -0.5911
 4383TIP3    H113113   1.938   0.973   4.615  0.2131  0.3667  0.1364
 4383TIP3    H213114   1.962   1.091   4.524 -1.7613 -0.0253 -0.9263
 4384TIP3   OH213115   3.983   3.190   1.912  0.4227  0.6313 -0.0784
 4384TIP3    H113116   3.933   3.253   1.860  0.6293 -0.4323 -1.6644
 4384TIP3    H213117   4.002   3.119   1.850  2.0910  0.0464  1.0390
 4385TIP3   OH213118   4.467   2.672   4.697 -0.0293 -0.1746  1.1111
 4385TIP3    H113119   4.523   2.705   4.626 -1.5110 -0.8146 -0.4312
 4385TIP3    H213120   4.487   2.729   4.772 -0.1691  2.1682 -0.5113
 4386TIP3   OH213121   3.974   4.607   1.421  1.0065 -0.3885 -0.2116
 4386TIP3    H113122   3.883   4.638   1.421  0.4696 -1.8880  0.3912
 4386TIP3    H213123   4.017   4.661   1.488 -0.0839 -1.3735  1.3441
 4387TIP3   OH213124   4.320   2.648   2.398  0.1399 -0.4194  0.0760
 4387TIP3    H113125   4.408   2.648   2.436  0.4195  0.8161 -0.5234
 4387TIP3    H213126   4.329   2.601   2.315  0.4737  0.5401 -0.4510
 4388TIP3   OH213127   0.063   0.328   4.396 -0.4524 -0.1106  0.4231
 4388TIP3    H113128   0.111   0.403   4.361  0.6257 -0.5867  0.8404
 4388TIP3    H213129   0.068   0.339   4.491 -0.4602 -0.6001  0.4812
 4389TIP3   OH213130   2.107   5.802   0.649 -0.4079 -0.5094 -0.4051
 4389TIP3    H113131   2.029   5.753   0.623 -1.1659  0.5451 -0.1403
 4389TIP3    H213132   2.085   5.841   0.733 -0.3426  1.4382 -1.2464
 4390TIP3   OH213133   1.697   6.407   3.976  0.5716 -0.1107 -0.2432
 4390TIP3    H113134   1.771   6.467   3.968  0.0605  0.4309 -1.0294
 4390TIP3    H213135   1.665   6.420   4.065  3.3539 -2.6714  1.3512
 4391TIP3   OH213136   2.632   2.330   2.565 -0.6140 -0.2970  0.1188
 4391TIP3    H113137   2.722   2.351   2.589 -0.3191  0.4375 -1.4666
 4391TIP3    H213138   2.579   2.397   2.608 -0.0415  1.4199 -1.6603
 4392TIP3   OH213139   1.475   6.411   1.579 -0.3517 -0.3822 -0.0188
 4392TIP3    H113140   1.469   6.464   1.658 -2.7387 -0.3528 -0.1629
 4392TIP3    H213141   1.408   6.445   1.521 -0.9554 -2.5572 -0.7113
 4393TIP3   OH213142   0.154   1.827   1.514  0.3213 -0.5610 -0.1150
 4393TIP3    H113143   0.096   1.756   1.540  0.5252 -0.6745  0.0330
 4393TIP3    H213144   0.139   1.837   1.420 -0.7783  0.1829  0.1277
 4394TIP3   OH213145   3.722   0.607   2.138  0.4400  0.0718  0.4869
 4394TIP3    H113146   3.745   0.698   2.156 -1.4393  0.8773 -0.8597
 4394TIP3    H213147   3.641   0.592   2.188  0.9163 -0.9811  0.9687
 4395TIP3   OH213148   2.008   0.481   2.257  0.1623  0.4546  0.7342
 4395TIP3    H113149   2.093   0.525   2.264  0.3952  0.1393  0.0086
 4395TIP3    H213150   1.945   0.552   2.252  0.3314  0.6928  1.7968
 4396TIP3   OH213151   2.771   3.319   5.141 -0.0927  0.0325  0.0686
 4396TIP3    H113152   2.679   3.343   5.129 -0.2274 -0.2246  0.5765
 4396TIP3    H213153   2.819   3.385   5.091 -0.5788 -0.1938 -0.7091
 4397TIP3   OH213154   5.268   2.782   5.528 -0.1089  0.3189 -0.0105
 4397TIP3    H113155   5.319   2.720   5.476 -2.1594 -1.4688 -0.0477
 4397TIP3    H213156   5.275   2.749   5.618  0.1955  1.0733  0.2489
 4398TIP3   OH213157   2.824   5.835   5.797  0.3531 -0.0939  0.5515
 4398TIP3    H113158   2.888   5.894   5.836  0.9697 -1.4258  1.6307
 4398TIP3    H213159   2.855   5.821   5.708  0.3335  0.9932  0.3616
 4399TIP3   OH213160   1.901   3.952   0.642 -0.5149  0.2813  0.0343
 4399TIP3    H113161   1.973   3.941   0.579 -0.9158 -0.3172 -0.3333
 4399TIP3    H213162   1.944   3.983   0.721  0.3058 -0.9431  0.1094
 4400TIP3   OH213163   2.823   3.247   0.072  0.2211 -0.1091 -0.2187
 4400TIP3    H113164   2.829   3.301   0.150 -0.8343 -1.0276  0.5190
 4400TIP3    H213165   2.735   3.262   0.038  0.8438  0.6905 -1.5588
 4401TIP3   OH213166   4.841   0.699   3.184 -0.5008 -0.0485 -0.0210
 4401TIP3    H113167   4.882   0.639   3.122 -0.4813  0.6454 -0.6954
 4401TIP3    H213168   4.911   0.761   3.207  0.0045 -1.2796  2.0372
 4402TIP3   OH213169   4.277   3.468   0.444 -0.4757 -0.6651  0.1730
 4402TIP3    H113170   4.217   3.490   0.374 -0.1406 -1.0150 -0.2323
 4402TIP3    H213171   4.338   3.405   0.405  0.9410  0.6342  0.2116
 4403TIP3   OH213172   7.068   1.806   5.215  0.1199  0.6927 -0.1099
 4403TIP3    H113173   6.986   1.847   5.188  0.1938  2.3832  1.9389
 4403TIP3    H213174   7.043   1.721   5.249 -0.9697  1.5536  1.3430
 4404TIP3   OH213175   4.208   2.796  -0.004 -0.1064  0.8421 -0.2857
 4404TIP3    H113176   4.124   2.825  -0.039 -1.1941 -1.4813  0.2254
 4404TIP3    H213177   4.209   2.827   0.086 -0.9818 -0.0950  0.0678
 4405TIP3   OH213178   4.280   1.643   4.388 -0.0079 -0.1027  0.0462
 4405TIP3    H113179   4.321   1.710   4.443  1.1482 -0.3271 -0.5206
 4405TIP3    H213180   4.224   1.594   4.448  0.7511  0.0489  0.8998
 4406TIP3   OH213181   1.953   6.486   3.455 -0.0231 -0.4808 -0.1366
 4406TIP3    H113182   1.962   6.391   3.442  0.8620 -0.2074 -1.8128
 4406TIP3    H213183   1.911   6.517   3.375 -1.7644  0.3817  1.0481
 4407TIP3   OH213184   0.471   5.650   4.905  0.3729  1.0615 -0.3607
 4407TIP3    H113185   0.564   5.656   4.881  0.4087  1.0438 -0.2264
 4407TIP3    H213186   0.427   5.709   4.844  0.5320  1.4590 -0.0988
 4408TIP3   OH213187   3.335   2.984   5.436 -0.2692 -0.1578 -0.2698
 4408TIP3    H113188   3.329   2.907   5.493 -0.1525 -0.8553 -1.1868
 4408TIP3    H213189   3.295   2.956   5.354 -0.1245  0.7278 -0.6459
 4409TIP3   OH213190   1.760   2.395   4.821 -0.0366 -0.7419  0.2851
 4409TIP3    H113191   1.843   2.442   4.834 -1.2058  1.3367  0.6652
 4409TIP3    H213192   1.784   2.320   4.766  1.9186  0.4152 -0.5663
 4410TIP3   OH213193   6.086   4.316   0.843  0.0588  0.2034  0.2277
 4410TIP3    H113194   6.014   4.379   0.836 -0.1057 -0.1156 -1.1945
 4410TIP3    H213195   6.133   4.343   0.922 -2.4805 -0.5092  2.1282
 4411TIP3   OH213196   3.725   5.959   2.412 -0.2169 -0.9041  0.2331
 4411TIP3    H113197   3.790   5.952   2.342 -1.0840 -1.6832 -0.5080
 4411TIP3    H213198   3.772   6.003   2.483  0.3038  1.2284 -1.3198
 4412TIP3   OH213199   2.636   1.717   1.108  0.2956 -0.6002  0.2294
 4412TIP3    H113200   2.666   1.800   1.071 -0.4493 -0.8491 -0.9951
 4412TIP3    H213201   2.715   1.678   1.146  0.9907 -0.0640 -0.6116
 4413TIP3   OH213202   1.625   6.596   4.980 -0.0861  0.6921  0.1155
 4413TIP3    H113203   1.651   6.538   5.052 -1.8480 -1.0320 -0.5736
 4413TIP3    H213204   1.577   6.667   5.023  1.7092  1.4950  0.9208
 4414TIP3   OH213205   4.694   0.448   4.659 -0.0978  0.0908 -0.0631
 4414TIP3    H113206   4.747   0.492   4.726 -0.4130  0.3746  0.0056
 4414TIP3    H213207   4.626   0.512   4.637 -2.8657 -1.6016  2.6819
 4415TIP3   OH213208   3.793   0.827   3.498  0.8386  0.5441 -0.1406
 4415TIP3    H113209   3.797   0.893   3.567 -0.4459 -1.7928  2.4241
 4415TIP3    H213210   3.705   0.836   3.462 -0.9806 -2.0789  3.0480
 4416TIP3   OH213211   3.701   6.216   0.571  0.2115  0.0657  0.6071
 4416TIP3    H113212   3.624   6.204   0.628 -1.0325 -0.2550 -1.0700
 4416TIP3    H213213   3.665   6.217   0.483  2.1124  0.4341 -0.1977
 4417TIP3   OH213214   2.554   5.445   5.413  0.2044  0.1112  0.1466
 4417TIP3    H113215   2.592   5.391   5.345 -1.2779  0.3076 -0.8843
 4417TIP3    H213216   2.628   5.492   5.452  1.2017 -0.8632 -0.5448
 4418TIP3   OH213217   4.089   5.060   4.872  0.3885 -0.7345 -0.0601
 4418TIP3    H113218   4.022   5.086   4.808 -1.0786  1.5395  2.2371
 4418TIP3    H213219   4.161   5.121   4.856  0.1770 -0.4155  0.1885
 4419TIP3   OH213220   6.448   5.541   0.481  0.0474 -0.0597 -0.0148
 4419TIP3    H113221   6.382   5.488   0.436 -1.1301  3.0791 -2.3656
 4419TIP3    H213222   6.504   5.574   0.411  2.2505 -0.1004  1.6160
 4420TIP3   OH213223   6.286   4.456   5.288 -0.3086  0.3463 -0.1571
 4420TIP3    H113224   6.207   4.418   5.250 -0.9059  0.9572  0.4581
 4420TIP3    H213225   6.348   4.462   5.214  0.0439 -2.3577 -0.1713
 4421TIP3   OH213226   1.622   1.733   4.510  0.2841 -0.2516  0.2571
 4421TIP3    H113227   1.695   1.750   4.569  0.1780  2.6685 -0.3455
 4421TIP3    H213228   1.544   1.740   4.565  0.2865  0.3137  0.1890
 4422TIP3   OH213229   6.874   5.904   3.755 -0.0248  0.0569 -0.5185
 4422TIP3    H113230   6.781   5.911   3.777 -0.4111 -0.4210 -1.8955
 4422TIP3    H213231   6.876   5.852   3.674  1.4975 -0.5481 -0.1265
 4423TIP3   OH213232   4.589   2.288   1.241 -0.6425 -0.1279 -0.0514
 4423TIP3    H113233   4.683   2.303   1.229 -0.5946 -0.4108 -0.0286
 4423TIP3    H213234   4.579   2.267   1.334 -0.9776  1.7684  0.3745
 4424TIP3   OH213235   2.852   1.809   5.477  0.5097  0.4654  0.1304
 4424TIP3    H113236   2.787   1.781   5.413 -1.8094 -0.2067  2.5934
 4424TIP3    H213237   2.916   1.737   5.480 -0.7862 -0.7124  0.4035
 4425TIP3   OH213238   1.260   1.347   4.724  0.7847 -0.3794  0.1190
 4425TIP3    H113239   1.178   1.386   4.751  0.4510 -1.4571  0.7159
 4425TIP3    H213240   1.328   1.402   4.763  0.3642  0.5174 -0.3868
 4426TIP3   OH213241   3.323   0.964   1.468  0.1782  0.4694  0.0858
 4426TIP3    H113242   3.242   0.919   1.447  0.3188  0.0062  0.5212
 4426TIP3    H213243   3.388   0.894   1.480 -0.0906  0.5905  2.9205
 4427TIP3   OH213244   2.617   2.769   2.585  0.0830 -0.2335 -0.0037
 4427TIP3    H113245   2.670   2.773   2.664 -0.0374 -0.3208  0.0817
 4427TIP3    H213246   2.527   2.770   2.616  0.0297 -1.2434 -0.0808
 4428TIP3   OH213247   3.955   5.097   0.833 -0.1306 -0.2497 -0.2470
 4428TIP3    H113248   4.042   5.124   0.804  0.0992  3.4594  3.0407
 4428TIP3    H213249   3.894   5.151   0.781 -0.1871  0.2214  0.2975
 4429TIP3   OH213250   2.264   0.924   2.913 -0.0081  0.6673  0.2888
 4429TIP3    H113251   2.218   0.970   2.983  0.1218  0.9071  0.2192
 4429TIP3    H213252   2.208   0.935   2.836 -0.5817 -0.3371  0.5453
 4430TIP3   OH213253   0.454   4.211   1.508  0.3953 -0.6981 -0.4669
 4430TIP3    H113254   0.486   4.301   1.500 -0.7927 -0.0754  1.2135
 4430TIP3    H213255   0.364   4.214   1.475 -0.9835 -0.3353  2.9023
 4431TIP3   OH213256   1.108   1.311   5.233  0.1275  0.5560  0.2246
 4431TIP3    H113257   1.031   1.356   5.197  0.4191  0.0993 -1.0087
 4431TIP3    H213258   1.172   1.381   5.247  0.4668  0.6219 -1.3916
 4432TIP3   OH213259   5.753   5.527   0.335  0.8407  0.1874 -0.1286
 4432TIP3    H113260   5.687   5.521   0.404  0.4282 -0.8385 -0.5833
 4432TIP3    H213261   5.713   5.484   0.260  2.1850 -0.9083 -0.2729
 4433TIP3   OH213262   6.881   0.684   2.102  0.9445  1.0041 -0.2977
 4433TIP3    H113263   6.976   0.695   2.114  1.3435 -1.0452 -1.1340
 4433TIP3    H213264   6.848   0.661   2.188  1.1703  1.7975  0.0144
 4434TIP3   OH213265   6.490   0.280   2.924 -0.0060 -0.2258  0.2399
 4434TIP3    H113266   6.415   0.226   2.897 -0.4041 -0.0274  0.9402
 4434TIP3    H213267   6.455   0.369   2.925  0.5205 -0.0033 -0.4279
 4435TIP3   OH213268   0.544   3.035   0.430 -0.0410 -0.0369 -0.3354
 4435TIP3    H113269   0.474   3.091   0.463  0.1875 -0.4623  0.9374
 4435TIP3    H213270   0.621   3.092   0.427  0.2459 -0.3064  1.1779
 4436TIP3   OH213271   4.316   5.795   2.776 -0.0040  1.3086  0.1775
 4436TIP3    H113272   4.290   5.883   2.746  1.3311  1.1305 -1.6654
 4436TIP3    H213273   4.236   5.744   2.771 -0.5720  2.1615  0.2504
 4437TIP3   OH213274   5.511   1.890   5.296 -0.7936 -0.0283 -0.4292
 4437TIP3    H113275   5.584   1.851   5.249  0.0780 -0.3088  1.1200
 4437TIP3    H213276   5.479   1.958   5.236  1.2236  0.6387 -0.8319
 4438TIP3   OH213277   4.332   2.370   1.877  0.2468  0.3653  0.2820
 4438TIP3    H113278   4.427   2.364   1.879  0.2723  0.7053  0.1891
 4438TIP3    H213279   4.303   2.316   1.951  0.6873  3.3176  2.8588
 4439TIP3   OH213280   3.141   6.712   3.153  0.1979  0.2571  0.2306
 4439TIP3    H113281   3.143   6.617   3.148  0.0347  0.2965 -0.9391
 4439TIP3    H213282   3.049   6.734   3.166  0.1741  0.2713  0.0371
 4440TIP3   OH213283   1.731   3.421   2.945  0.2667  0.1581  0.4006
 4440TIP3    H113284   1.804   3.380   2.991 -0.5001 -0.8560  0.7468
 4440TIP3    H213285   1.663   3.432   3.012  0.2668  1.5527  0.2020
 4441TIP3   OH213286   2.685   0.903   0.431 -0.1821 -0.1740  0.0571
 4441TIP3    H113287   2.682   0.836   0.500 -1.4475  0.1536  0.3516
 4441TIP3    H213288   2.596   0.903   0.394  0.4494 -0.2652 -1.5117
 4442TIP3   OH213289   6.951   5.341   3.413 -0.0476 -0.3986 -0.2055
 4442TIP3    H113290   6.887   5.332   3.484  0.3660 -0.5214  0.1504
 4442TIP3    H213291   6.906   5.397   3.349 -0.0650  0.5104  0.5801
 4443TIP3   OH213292   4.530   0.980   2.659  0.6518 -0.7578  0.1171
 4443TIP3    H113293   4.504   0.890   2.640 -1.4655 -0.2654  0.4495
 4443TIP3    H213294   4.601   0.972   2.723 -0.1270 -2.1765  0.8452
 4444TIP3   OH213295   5.503   5.009   5.080 -0.4237 -0.2183 -0.0041
 4444TIP3    H113296   5.473   5.088   5.124  0.1528  0.2693 -0.4616
 4444TIP3    H213297   5.478   5.021   4.989 -0.8651 -0.8409  0.0275
 4445TIP3   OH213298   5.057   1.637   0.355  0.0222  0.1567  0.3058
 4445TIP3    H113299   5.021   1.556   0.319  0.0402 -0.1665  0.9923
 4445TIP3    H213300   5.051   1.625   0.450  1.2483  0.4067  0.4242
 4446TIP3   OH213301   4.602   1.786   5.673 -0.5442  0.3104  0.2768
 4446TIP3    H113302   4.681   1.842   5.679  0.3398 -0.8235 -0.4381
 4446TIP3    H213303   4.634   1.698   5.689 -1.8299 -0.0869  0.7687
 4447TIP3   OH213304   0.935   6.451   5.423 -0.1282  0.2759  0.3686
 4447TIP3    H113305   1.000   6.402   5.373 -0.2929  0.7603 -0.3437
 4447TIP3    H213306   0.858   6.394   5.424 -0.0275  0.1379  0.3209
 4448TIP3   OH213307   2.541   0.602   5.601  0.1004 -0.1519  0.4526
 4448TIP3    H113308   2.629   0.569   5.619  0.6442 -0.1162 -1.7955
 4448TIP3    H213309   2.552   0.697   5.595 -0.0220 -0.1640 -0.0415
 4449TIP3   OH213310   1.397   6.786   4.655  0.7268  0.7719 -0.3255
 4449TIP3    H113311   1.329   6.774   4.721 -2.3301  1.6807 -3.0158
 4449TIP3    H213312   1.478   6.762   4.699 -1.3162 -0.6910  3.0535
 4450TIP3   OH213313   6.424   4.079   0.183  0.0475 -0.1078 -0.5173
 4450TIP3    H113314   6.395   4.112   0.268  2.2109  3.4582 -0.9463
 4450TIP3    H213315   6.519   4.088   0.185  0.3316 -1.7409 -2.7049
 4451TIP3   OH213316   3.984   2.518   2.274  0.1794 -0.5037 -0.4341
 4451TIP3    H113317   3.947   2.525   2.186  1.6486  0.1176 -1.0273
 4451TIP3    H213318   3.948   2.437   2.309 -1.5650 -0.0395 -1.0444
 4452TIP3   OH213319   7.017   2.635   2.015 -0.1441 -0.5352  0.1340
 4452TIP3    H113320   7.029   2.612   1.922 -0.7497  0.8482 -0.3224
 4452TIP3    H213321   7.101   2.674   2.040  0.8088 -2.8852  0.8484
 4453TIP3   OH213322   0.634   1.187   1.750  0.6561 -0.1960  0.3131
 4453TIP3    H113323   0.669   1.230   1.828  1.5476  0.3404 -0.3511
 4453TIP3    H213324   0.660   1.245   1.678  0.8623 -1.2687 -0.4895
 4454TIP3   OH213325   5.799   6.010   5.495  0.3072  0.0738  0.3129
 4454TIP3    H113326   5.860   6.084   5.500 -0.3471  0.6426  0.0331
 4454TIP3    H213327   5.715   6.047   5.522  0.0812 -0.6994  0.6874
 4455TIP3   OH213328   3.302   2.029   1.290  0.5997 -0.0262  0.0934
 4455TIP3    H113329   3.247   1.976   1.233  0.9877 -0.3155 -0.0188
 4455TIP3    H213330   3.333   2.100   1.234  0.2829  0.1767  0.1759
 4456TIP3   OH213331   0.529   4.418   2.358 -0.1237  0.3485 -0.3797
 4456TIP3    H113332   0.556   4.505   2.328  0.3232 -0.0428 -1.1508
 4456TIP3    H213333   0.606   4.363   2.347 -0.6924 -0.3787 -0.8692
 4457TIP3   OH213334   2.396   0.161   1.866  0.1365 -0.1565 -0.0183
 4457TIP3    H113335   2.468   0.145   1.805 -0.4804 -0.3492 -0.7109
 4457TIP3    H213336   2.317   0.158   1.812 -0.4328 -0.3899  0.7991
 4458TIP3   OH213337   1.939   0.540   0.599 -0.5454  0.1925  0.1789
 4458TIP3    H113338   2.025   0.519   0.634  0.1655  0.0513 -1.5545
 4458TIP3    H213339   1.887   0.565   0.676  0.0426 -2.8154  1.7436
 4459TIP3   OH213340   7.160   0.685   3.164 -0.5175  0.4766 -0.1183
 4459TIP3    H113341   7.223   0.681   3.091  0.2048  0.5871  0.4895
 4459TIP3    H213342   7.171   0.601   3.209  0.3636  1.1280  0.9325
 4460TIP3   OH213343   4.526   5.736   5.133  0.0987 -0.3171  0.0098
 4460TIP3    H113344   4.483   5.661   5.092 -0.9104  0.8560 -1.1708
 4460TIP3    H213345   4.454   5.789   5.167  0.6853  0.9058 -0.6036
 4461TIP3   OH213346   5.947   1.159   0.733  0.4146 -0.2345  0.0879
 4461TIP3    H113347   5.959   1.222   0.662  1.0379  0.1918  0.5633
 4461TIP3    H213348   5.973   1.207   0.812 -1.0570 -0.4262  0.7242
 4462TIP3   OH213349   0.315   4.155   0.551  0.0766 -0.1411 -0.4468
 4462TIP3    H113350   0.253   4.092   0.589 -1.8740  1.2393 -1.1980
 4462TIP3    H213351   0.305   4.145   0.457  2.0804 -0.8501 -0.6413
 4463TIP3   OH213352   5.477   1.163   1.111 -0.0342  0.0250 -0.2291
 4463TIP3    H113353   5.528   1.243   1.101 -0.2432  0.0595 -1.1475
 4463TIP3    H213354   5.419   1.180   1.185 -0.0161  0.6852 -0.3616
 4464TIP3   OH213355   0.342   6.385   5.023 -0.0600  0.7025 -0.0148
 4464TIP3    H113356   0.433   6.389   4.994  0.1050  1.6932  0.6027
 4464TIP3    H213357   0.331   6.294   5.053  0.3397  0.2272 -1.2544
 4465TIP3   OH213358   1.242   1.092   4.879 -0.0365  0.0302 -0.6692
 4465TIP3    H113359   1.224   1.184   4.862 -3.1346 -0.3751 -0.1628
 4465TIP3    H213360   1.237   1.084   4.975 -1.5515 -0.9054 -0.7914
 4466TIP3   OH213361   4.972   5.956   3.815 -0.6485 -0.3196  0.0550
 4466TIP3    H113362   4.965   5.906   3.734  1.8265  0.0273 -0.4442
 4466TIP3    H213363   4.984   5.889   3.883 -2.4553 -0.5966  0.1332
 4467TIP3   OH213364   3.206   3.477   5.650  0.3424  0.7373 -0.1581
 4467TIP3    H113365   3.200   3.437   5.563 -0.0815  2.1507 -0.8140
 4467TIP3    H213366   3.165   3.413   5.709 -1.4130  0.6879 -1.3459
 4468TIP3   OH213367   2.341   4.542   4.372 -0.4703 -0.3113 -0.6674
 4468TIP3    H113368   2.313   4.605   4.438  0.4498  0.9188 -1.4317
 4468TIP3    H213369   2.376   4.469   4.423  0.4388  0.7070  0.2153
 4469TIP3   OH213370   2.090   5.766   1.281  0.7605  0.1427  0.0210
 4469TIP3    H113371   2.035   5.749   1.205 -0.9857  0.4573  1.1698
 4469TIP3    H213372   2.173   5.796   1.244  0.3804 -0.8592 -1.7698
 4470TIP3   OH213373   5.329   2.858   1.801  0.1014 -0.4643 -0.4339
 4470TIP3    H113374   5.404   2.802   1.822 -0.3454 -0.7043  0.5880
 4470TIP3    H213375   5.260   2.829   1.861 -0.5684  0.2643 -0.8384
 4471TIP3   OH213376   1.320   6.707   2.371 -0.1075 -0.2581  0.0192
 4471TIP3    H113377   1.334   6.778   2.310  0.7693  1.4557  2.0755
 4471TIP3    H213378   1.383   6.640   2.346  1.4107  1.1074  0.0395
 4472TIP3   OH213379   0.868   5.074   0.253 -0.3122 -0.0910  0.0331
 4472TIP3    H113380   0.857   5.139   0.323 -0.5293  0.2324 -0.2973
 4472TIP3    H213381   0.803   5.006   0.272  0.7612 -0.8585  1.0943
 4473TIP3   OH213382   4.365   5.869   4.554 -0.7153  0.3503  0.1867
 4473TIP3    H113383   4.273   5.841   4.549 -0.8602  1.0182 -2.5845
 4473TIP3    H213384   4.411   5.793   4.589 -2.0214 -0.8681 -0.6205
 4474TIP3   OH213385   3.325   1.939   5.057 -0.0853 -0.1390  0.2930
 4474TIP3    H113386   3.311   1.857   5.106 -0.1230 -0.5308 -0.3623
 4474TIP3    H213387   3.419   1.938   5.036  0.0540  0.3188  0.8522
 4475TIP3   OH213388   6.673   1.730   0.516  0.5506  0.3681  0.2230
 4475TIP3    H113389   6.588   1.759   0.550  0.9232  1.0471  0.6092
 4475TIP3    H213390   6.669   1.635   0.519  0.4694  0.3917  1.9743
 4476TIP3   OH213391   3.543   6.516   2.109  0.7517  0.1889 -0.1644
 4476TIP3    H113392   3.619   6.474   2.151  2.4360  0.8369 -2.3482
 4476TIP3    H213393   3.582   6.582   2.051 -1.6146  1.9161  0.0668
 4477TIP3   OH213394   5.993   4.683   5.040 -0.1503  0.1113  0.4112
 4477TIP3    H113395   6.082   4.709   5.015  0.4720 -1.9264  0.3583
 4477TIP3    H213396   5.987   4.704   5.133  0.4183  0.1662  0.4393
 4478TIP3   OH213397   2.056   5.947   1.494 -0.0351  0.0131  0.2315
 4478TIP3    H113398   2.097   6.031   1.469 -1.8476  1.1783  1.0152
 4478TIP3    H213399   2.043   5.902   1.411 -4.0289  2.9236 -1.0221
 4479TIP3   OH213400   1.371   0.173   2.643 -0.3815  0.1224  0.5136
 4479TIP3    H113401   1.365   0.113   2.569 -0.3141 -0.7856  1.2322
 4479TIP3    H213402   1.342   0.257   2.608 -2.0175 -0.6652 -0.1071
 4480TIP3   OH213403   1.382   2.142   5.577 -0.6593  0.2546  0.9663
 4480TIP3    H113404   1.344   2.185   5.653 -0.4737  2.0368  0.1013
 4480TIP3    H213405   1.470   2.119   5.604 -0.5246  1.0555  1.2468
 4481TIP3   OH213406   5.518   6.233   1.163 -0.1291 -0.2600 -0.1371
 4481TIP3    H113407   5.431   6.208   1.130 -0.3998  1.4244 -0.8486
 4481TIP3    H213408   5.512   6.328   1.173  2.1308  0.1455 -1.8095
 4482TIP3   OH213409   4.103   3.288   2.387  0.3696  0.5752 -0.3301
 4482TIP3    H113410   4.072   3.198   2.402  1.6913 -0.0868 -1.3228
 4482TIP3    H213411   4.065   3.339   2.458 -1.0198 -0.6249 -0.1623
 4483TIP3   OH213412   3.085   0.668   3.437 -0.0357 -0.4163 -0.5220
 4483TIP3    H113413   3.022   0.670   3.510  1.2586 -2.5531  0.7603
 4483TIP3    H213414   3.076   0.754   3.396 -1.4363  0.5706  1.6194
 4484TIP3   OH213415   6.324   6.324   2.206 -0.0640 -0.0113 -0.2426
 4484TIP3    H113416   6.378   6.292   2.134 -1.5683 -0.7067 -1.1084
 4484TIP3    H213417   6.254   6.373   2.163 -1.2820 -0.8817  0.6952
 4485TIP3   OH213418   6.650   2.352   2.123 -0.1858 -0.6692  0.0894
 4485TIP3    H113419   6.583   2.416   2.146 -0.9571 -1.0094 -1.0547
 4485TIP3    H213420   6.703   2.395   2.056 -2.7709 -2.1799 -3.3049
 4486TIP3   OH213421   2.468   0.129   5.711 -0.1061  0.1855 -0.1041
 4486TIP3    H113422   2.450   0.216   5.747  0.7906  0.0625  0.6754
 4486TIP3    H213423   2.457   0.070   5.785  0.6891 -0.1965 -0.2842
 4487TIP3   OH213424   1.261   0.783   4.632  0.2918  0.7783  0.3908
 4487TIP3    H113425   1.195   0.787   4.701  0.3843  0.9040  0.4729
 4487TIP3    H213426   1.246   0.863   4.582 -0.7808 -0.0368 -0.6640
 4488TIP3   OH213427   6.502   4.315   4.297 -0.6998  0.3126 -0.1988
 4488TIP3    H113428   6.560   4.243   4.272 -1.2463  0.4700 -2.0945
 4488TIP3    H213429   6.559   4.377   4.342  0.0204 -0.7705  0.4239
 4489TIP3   OH213430   0.450   4.927   3.386  0.0832 -0.2835 -0.0672
 4489TIP3    H113431   0.401   4.916   3.467  0.4584 -1.6907  0.0055
 4489TIP3    H213432   0.512   4.998   3.403 -2.1128  1.8105 -0.2841
 4490TIP3   OH213433   1.849   4.697   2.374  0.1153 -0.5379 -0.0797
 4490TIP3    H113434   1.788   4.753   2.325  0.4453  1.6604  1.8469
 4490TIP3    H213435   1.932   4.704   2.326 -0.0998 -0.1800 -0.4068
 4491TIP3   OH213436   3.387   5.943   4.874 -0.5072  0.4374  0.0509
 4491TIP3    H113437   3.400   6.015   4.812  1.1378 -0.1894 -0.3708
 4491TIP3    H213438   3.378   5.987   4.959 -0.3942  1.1894 -0.3110
 4492TIP3   OH213439   1.532   1.756   0.978 -0.3776  0.1498  0.4680
 4492TIP3    H113440   1.447   1.781   1.014 -0.2841  0.7236  0.3017
 4492TIP3    H213441   1.553   1.673   1.020 -2.1762 -1.3331 -1.3255
 4493TIP3   OH213442   2.468   0.069   4.127  0.6587  0.1223 -0.2998
 4493TIP3    H113443   2.430  -0.015   4.151 -0.1045  0.3056 -0.8389
 4493TIP3    H213444   2.406   0.108   4.066  1.2776  0.8301 -0.5064
 4494TIP3   OH213445   3.206   3.254   2.358 -0.1888  0.1666  0.4814
 4494TIP3    H113446   3.229   3.345   2.337 -0.7977 -0.1417 -1.7718
 4494TIP3    H213447   3.111   3.251   2.351 -0.1042 -0.8504 -0.4140
 4495TIP3   OH213448   6.639   0.704   5.825 -0.3025  0.2944  0.1647
 4495TIP3    H113449   6.579   0.739   5.891  0.2615  0.7863  0.4208
 4495TIP3    H213450   6.584   0.647   5.771 -1.0638  0.9683  0.2168
 4496TIP3   OH213451   1.839   2.925   1.974  0.2034  0.4569 -0.1763
 4496TIP3    H113452   1.817   2.862   1.905  1.5012 -0.8882  0.5884
 4496TIP3    H213453   1.767   2.918   2.036  0.6115 -0.7458  0.1930
 4497TIP3   OH213454   4.244   1.271   0.416  0.0562  0.4909 -0.2238
 4497TIP3    H113455   4.262   1.340   0.480 -0.0940  2.4796 -2.1912
 4497TIP3    H213456   4.153   1.286   0.390  1.0906  2.1508 -3.4666
 4498TIP3   OH213457   1.400   3.736   4.098 -0.0160 -0.4340 -0.2322
 4498TIP3    H113458   1.304   3.731   4.096  0.0152 -1.5698  0.4587
 4498TIP3    H213459   1.428   3.686   4.022  0.0393 -0.1468 -0.4034
 4499TIP3   OH213460   3.686   5.735   5.606 -0.0816  0.3232  0.5562
 4499TIP3    H113461   3.673   5.778   5.521  0.0997 -0.1088  0.3027
 4499TIP3    H213462   3.754   5.786   5.649  1.0558 -0.4338 -0.2714
 4500TIP3   OH213463   1.484   2.141   0.124 -0.5004  0.6001  0.1201
 4500TIP3    H113464   1.490   2.084   0.047  0.3604  0.2466  0.4420
 4500TIP3    H213465   1.573   2.142   0.160 -0.7668  1.2328  0.7771
 4501TIP3   OH213466   1.209   6.358   1.904 -0.1809 -0.1754  0.0062
 4501TIP3    H113467   1.189   6.289   1.968  1.3980 -0.4683  0.2302
 4501TIP3    H213468   1.242   6.431   1.957  0.3274 -0.1085 -0.3902
 4502TIP3   OH213469   6.268   4.410   4.941 -0.1533  0.1140 -0.0948
 4502TIP3    H113470   6.350   4.363   4.956 -0.4746 -0.3660  0.1878
 4502TIP3    H213471   6.281   4.496   4.981 -0.2080 -0.3749  1.0118
 4503TIP3   OH213472   3.957   4.911   2.023  0.4464  0.1444  0.0567
 4503TIP3    H113473   3.957   4.938   1.931  0.3822 -1.2124 -0.3659
 4503TIP3    H213474   4.010   4.831   2.025 -0.0423 -0.1735  1.0998
 4504TIP3   OH213475   6.740   0.369   1.419 -0.1443  0.2109 -0.5634
 4504TIP3    H113476   6.769   0.436   1.481  0.6638  0.3794 -1.1113
 4504TIP3    H213477   6.655   0.340   1.452  0.4985 -0.0601  0.8998
 4505TIP3   OH213478   0.637   3.442   4.195  0.3272 -0.2889  0.5194
 4505TIP3    H113479   0.691   3.380   4.145 -0.0086 -0.1486 -0.0194
 4505TIP3    H213480   0.584   3.386   4.252  0.0917 -0.5047  0.0989
 4506TIP3   OH213481   6.912   6.420   0.937 -0.3044 -0.1069  0.0062
 4506TIP3    H113482   6.863   6.485   0.887  1.8297  0.8589 -0.9561
 4506TIP3    H213483   7.004   6.440   0.920  0.4680 -2.4553  0.9028
 4507TIP3   OH213484   1.727   3.198   5.590  0.2680  0.4221  0.9312
 4507TIP3    H113485   1.715   3.136   5.662 -0.5799 -0.5090  0.0189
 4507TIP3    H213486   1.760   3.145   5.518 -3.0474  0.3768 -0.7339
 4508TIP3   OH213487   3.966   1.704   0.081 -0.0425 -0.3917  0.1904
 4508TIP3    H113488   3.929   1.651   0.151  2.0519  1.3312  2.8495
 4508TIP3    H213489   3.895   1.762   0.054 -0.7132 -0.5943  1.4509
 4509TIP3   OH213490   0.809   0.708   5.569  0.3452 -0.1143  0.7051
 4509TIP3    H113491   0.904   0.708   5.559  0.2792  1.0547 -0.0184
 4509TIP3    H213492   0.787   0.798   5.591 -0.4913 -0.6264  2.1690
 4510TIP3   OH213493   1.868   1.361   4.211  0.0486 -0.0637  0.3638
 4510TIP3    H113494   1.854   1.449   4.247 -0.3468  0.1413 -0.2610
 4510TIP3    H213495   1.886   1.376   4.118  0.7006 -0.6017  0.3988
 4511TIP3   OH213496   4.897   1.057   0.808  0.1054  0.4652 -0.5651
 4511TIP3    H113497   4.964   1.093   0.750  0.1178 -0.0369 -0.8678
 4511TIP3    H213498   4.921   1.088   0.895  0.9679 -0.0577 -0.6158
 4512TIP3   OH213499   0.503   0.383   1.499 -1.3360 -0.1231 -0.1017
 4512TIP3    H113500   0.546   0.464   1.524 -0.6427  0.0265 -1.6167
 4512TIP3    H213501   0.564   0.342   1.436 -0.5889 -2.9301  2.2302
 4513TIP3   OH213502   2.987   2.497   3.331  0.0909  0.4188 -0.3748
 4513TIP3    H113503   2.983   2.592   3.333 -0.4919  0.3877  0.4833
 4513TIP3    H213504   2.899   2.470   3.303 -0.5453  0.1000  1.7632
 4514TIP3   OH213505   2.420   5.091   5.309  0.0786  0.5216 -0.4350
 4514TIP3    H113506   2.412   5.026   5.378 -1.3020  1.3919  0.2742
 4514TIP3    H213507   2.408   5.042   5.227 -1.8149 -0.0230  0.1182
 4515TIP3   OH213508   2.690   2.262   1.129  0.1024  0.3218 -0.3442
 4515TIP3    H113509   2.626   2.318   1.172  1.0413  1.3245 -0.2102
 4515TIP3    H213510   2.740   2.223   1.201  0.7946  0.9412 -0.4813
 4516TIP3   OH213511   1.385   5.747   3.547 -0.9661 -0.3597  0.5922
 4516TIP3    H113512   1.337   5.809   3.493 -1.4585  0.2991  1.7478
 4516TIP3    H213513   1.477   5.775   3.540 -1.2146  0.6775  1.3108
 4517TIP3   OH213514   2.633   6.087   2.448  0.6230  0.6519  0.3161
 4517TIP3    H113515   2.572   6.153   2.478  1.0454  0.9937  0.4366
 4517TIP3    H213516   2.716   6.110   2.490  0.5779 -0.4557  1.0727
 4518TIP3   OH213517   0.646   4.255   3.272  0.3279 -0.3481 -0.1550
 4518TIP3    H113518   0.711   4.197   3.231  0.4079 -0.1180 -0.3583
 4518TIP3    H213519   0.660   4.340   3.230 -0.4098 -0.4040 -0.5335
 4519TIP3   OH213520   2.595   1.542   5.693  0.0467 -0.3096  0.2129
 4519TIP3    H113521   2.535   1.542   5.768 -1.2742 -0.3393 -0.8164
 4519TIP3    H213522   2.558   1.479   5.632  1.2456 -0.4788 -0.3777
 4520TIP3   OH213523   3.594   1.501   2.071 -0.3670 -0.3816  0.1149
 4520TIP3    H113524   3.635   1.563   2.131 -0.9880  1.2380 -1.0686
 4520TIP3    H213525   3.667   1.462   2.023  0.0037 -0.3195  0.6236
 4521TIP3   OH213526   5.548   5.042   1.217  0.4793 -0.3265 -0.1726
 4521TIP3    H113527   5.580   5.092   1.291  0.3620 -1.1779  0.4681
 4521TIP3    H213528   5.483   5.099   1.175  0.3558  0.0569  0.5381
 4522TIP3   OH213529   3.355   0.308   1.772  0.5201 -0.3297 -0.4845
 4522TIP3    H113530   3.407   0.375   1.728 -0.1696  1.3704  1.1989
 4522TIP3    H213531   3.272   0.351   1.793 -0.4278 -2.0858 -0.4269
 4523TIP3   OH213532   7.090   3.099   4.847 -0.7740 -0.2570 -0.5511
 4523TIP3    H113533   7.114   3.127   4.935 -0.6283  0.7526 -0.9099
 4523TIP3    H213534   7.038   3.171   4.812 -0.5913 -0.5361 -1.4029
 4524TIP3   OH213535   2.797   2.643   4.557 -0.6544 -0.1528 -0.2453
 4524TIP3    H113536   2.765   2.711   4.497 -0.7981  0.0882  0.1010
 4524TIP3    H213537   2.778   2.677   4.644 -1.8428 -1.1575 -0.0751
 4525TIP3   OH213538   0.866   3.402   3.563 -0.1433  0.5514 -0.8788
 4525TIP3    H113539   0.833   3.328   3.614  3.2718  0.1795  1.1476
 4525TIP3    H213540   0.791   3.459   3.551 -2.0178 -1.3029  1.1185
 4526TIP3   OH213541   0.014   4.359   1.762  0.2040  0.2738  0.0365
 4526TIP3    H113542  -0.076   4.330   1.774  0.2890  1.0164  3.4332
 4526TIP3    H213543   0.063   4.316   1.831  2.3746  0.4230 -1.3005
 4527TIP3   OH213544   5.450   4.404   1.829 -0.2534  0.4292 -0.5614
 4527TIP3    H113545   5.530   4.456   1.833  0.1416 -0.1709 -0.5290
 4527TIP3    H213546   5.462   4.348   1.752  0.2104 -1.0211  0.5170
 4528TIP3   OH213547   1.271   2.642   4.514  0.1575  0.1827 -0.5933
 4528TIP3    H113548   1.259   2.559   4.468  0.6092  0.4284 -1.1621
 4528TIP3    H213549   1.366   2.654   4.517  0.2347 -0.5240  1.6451
 4529TIP3   OH213550   5.642   4.307   2.762 -0.1674 -0.4323  0.4207
 4529TIP3    H113551   5.592   4.330   2.684 -0.2171  1.7590  1.0296
 4529TIP3    H213552   5.605   4.224   2.791 -1.1605 -0.5301 -1.0322
 4530TIP3   OH213553   0.631   4.667   1.108 -0.1783  0.2247  0.0659
 4530TIP3    H113554   0.665   4.723   1.178  0.4547 -0.0758  0.0016
 4530TIP3    H213555   0.613   4.728   1.036  0.5848  0.3425 -0.0339
 4531TIP3   OH213556   2.850   5.655   5.251  0.3476  0.7092 -0.0993
 4531TIP3    H113557   2.914   5.599   5.207  0.1905 -1.2596  1.9494
 4531TIP3    H213558   2.892   5.679   5.334 -0.0058  2.8455 -0.4991
 4532TIP3   OH213559   3.786   1.126   3.029 -0.0088  0.1891 -0.1083
 4532TIP3    H113560   3.694   1.098   3.036 -0.2180  1.2075  2.0816
 4532TIP3    H213561   3.797   1.149   2.937 -1.3027 -1.9692 -0.8948
 4533TIP3   OH213562   0.923   3.351   1.420  0.0132  0.4079  0.1081
 4533TIP3    H113563   0.902   3.436   1.459 -0.4694 -0.4990  1.9024
 4533TIP3    H213564   0.893   3.287   1.484  2.2272 -1.1044 -0.2811
 4534TIP3   OH213565   4.555   1.073   0.160  0.0512 -0.1267 -0.1310
 4534TIP3    H113566   4.540   1.132   0.086  1.5199  0.0712 -0.3083
 4534TIP3    H213567   4.556   0.986   0.122 -2.1381 -0.3284  0.1327
 4535TIP3   OH213568   3.788   0.354   1.432  0.3077 -0.3360  0.3026
 4535TIP3    H113569   3.834   0.402   1.500  0.1513 -0.3230  0.4002
 4535TIP3    H213570   3.695   0.366   1.453  0.2539 -0.1088 -0.0636
 4536TIP3   OH213571   5.753   5.133   5.236 -0.6949 -0.5021 -1.0146
 4536TIP3    H113572   5.713   5.141   5.149 -0.9382  1.0105 -0.7856
 4536TIP3    H213573   5.847   5.135   5.218 -0.7388 -0.6832 -1.2813
 4537TIP3   OH213574   3.531   3.962   5.643 -0.6032  0.2980  0.1737
 4537TIP3    H113575   3.492   4.049   5.635 -1.7965 -0.2732 -0.4794
 4537TIP3    H213576   3.458   3.902   5.628  0.4323 -0.8036 -0.6028
 4538TIP3   OH213577   0.736   6.065   2.829 -0.4429 -0.3194 -0.2180
 4538TIP3    H113578   0.689   6.013   2.895 -1.0286  0.3835 -0.0718
 4538TIP3    H213579   0.753   6.149   2.872 -0.7722  0.1263 -0.9417
 4539TIP3   OH213580   3.776   5.353   0.155  0.3254 -0.2826 -0.1932
 4539TIP3    H113581   3.779   5.303   0.074  0.5363  0.5832 -0.7373
 4539TIP3    H213582   3.768   5.288   0.224 -0.7808 -0.9874 -0.9665
 4540TIP3   OH213583   0.293   5.140   2.008 -0.4008 -0.5630 -0.0661
 4540TIP3    H113584   0.349   5.086   2.064  0.2878 -1.3945 -1.4930
 4540TIP3    H213585   0.264   5.081   1.939 -0.3639  0.6658 -1.1812
 4541TIP3   OH213586   1.987   3.331   0.246  0.3782 -0.3490  0.0502
 4541TIP3    H113587   2.082   3.335   0.251  0.4340 -1.8260  0.6087
 4541TIP3    H213588   1.957   3.392   0.314  0.9338 -0.1641  0.1310
 4542TIP3   OH213589   2.748   2.724   0.679  0.1078  0.6355 -0.1321
 4542TIP3    H113590   2.751   2.735   0.584 -0.3467  0.7829 -0.1308
 4542TIP3    H213591   2.721   2.810   0.712 -1.4108  0.1262  0.0186
 4543TIP3   OH213592   3.345   2.899   1.269 -0.8361 -0.2730  1.0277
 4543TIP3    H113593   3.304   2.849   1.339 -0.0793 -0.0880  1.6125
 4543TIP3    H213594   3.283   2.969   1.250 -0.8979 -0.1211  1.7535
 4544TIP3   OH213595   0.617   0.685   2.609  0.3215  0.5431  0.1169
 4544TIP3    H113596   0.613   0.712   2.517  0.5666  2.3414  0.6121
 4544TIP3    H213597   0.631   0.766   2.658  1.2789 -0.5032  1.6722
 4545TIP3   OH213598   1.520   4.820   0.756  0.1222 -0.1995  0.5267
 4545TIP3    H113599   1.548   4.751   0.695  1.1482  0.5992  0.0637
 4545TIP3    H213600   1.495   4.893   0.700 -1.2920 -0.2937  1.0024
 4546TIP3   OH213601   3.793   3.416   3.363 -0.3093 -0.0813 -0.7479
 4546TIP3    H113602   3.794   3.496   3.309 -1.1891  1.2581  1.1304
 4546TIP3    H213603   3.852   3.436   3.436 -1.2585 -0.7663  0.2303
 4547TIP3   OH213604   1.513   2.902   4.315  0.1972  0.1092 -0.1795
 4547TIP3    H113605   1.555   2.816   4.319 -1.3060 -0.7005 -1.0453
 4547TIP3    H213606   1.583   2.964   4.335  0.9951 -1.3741  1.9668
 4548TIP3   OH213607   1.640   4.330   3.182  0.1484 -0.2794 -0.0225
 4548TIP3    H113608   1.587   4.256   3.213  0.2301 -0.6647 -0.7878
 4548TIP3    H213609   1.703   4.345   3.252  1.7269 -2.5244 -0.8505
 4549TIP3   OH213610   1.091   6.229   1.163  0.1669 -0.2868  0.6787
 4549TIP3    H113611   1.089   6.278   1.081 -1.2824  2.0550  1.9847
 4549TIP3    H213612   1.069   6.139   1.139 -1.6746  0.6134 -1.3354
 4550TIP3   OH213613   6.060   5.432   2.316 -0.1052 -0.0106 -0.4457
 4550TIP3    H113614   6.080   5.434   2.222  0.9014 -4.4407 -0.5770
 4550TIP3    H213615   6.140   5.397   2.356 -0.8257  0.9459  2.0050
 4551TIP3   OH213616   0.071   4.956   4.624  0.2053  0.2309 -0.0371
 4551TIP3    H113617   0.131   4.882   4.612 -0.7762 -0.6962  0.5648
 4551TIP3    H213618   0.096   5.018   4.556  1.4386 -0.3986 -0.1872
 4552TIP3   OH213619   2.019   3.660   1.998  0.0043 -0.5624  0.5305
 4552TIP3    H113620   1.945   3.628   1.948 -0.3392 -0.8095  1.1882
 4552TIP3    H213621   2.004   3.628   2.087 -0.2679  1.2596  1.1892
 4553TIP3   OH213622   3.851   6.478   1.671  0.1270 -0.2998  0.1343
 4553TIP3    H113623   3.933   6.527   1.681 -0.8026  0.9219  2.2511
 4553TIP3    H213624   3.864   6.399   1.723  0.4513 -0.7961 -0.6823
 4554TIP3   OH213625   2.723   2.845   3.566 -0.3047  0.1950  0.6175
 4554TIP3    H113626   2.756   2.911   3.506  1.0497 -0.2998  0.7984
 4554TIP3    H213627   2.783   2.847   3.640 -1.5827  0.3570  1.6838
 4555TIP3   OH213628   3.404   2.704   3.616 -0.0378 -0.3554  0.5271
 4555TIP3    H113629   3.456   2.635   3.575  0.1060  0.5462 -0.8749
 4555TIP3    H213630   3.316   2.692   3.581 -0.3257 -0.6576  1.3420
 4556TIP3   OH213631   5.058   3.839   1.080 -1.0150 -0.4023  0.5314
 4556TIP3    H113632   5.134   3.876   1.125 -1.4584 -0.7112  1.5826
 4556TIP3    H213633   5.094   3.800   1.001 -0.1390 -0.1922  0.8067
 4557TIP3   OH213634   0.946   6.006   1.147  0.2517  0.1678  0.7440
 4557TIP3    H113635   0.865   6.038   1.106 -0.1189  0.3741  1.6054
 4557TIP3    H213636   0.919   5.926   1.192  0.7106 -0.2001  0.3714
 4558TIP3   OH213637   7.098   1.609   0.623 -0.0462  0.0870  0.3566
 4558TIP3    H113638   7.015   1.608   0.670  0.6665 -0.7934  1.6404
 4558TIP3    H213639   7.143   1.687   0.654 -1.7999  2.7457 -3.0539
 4559TIP3   OH213640   6.750   6.281   2.485 -0.2845  0.5770  0.5187
 4559TIP3    H113641   6.769   6.199   2.531 -0.1673 -0.0753 -0.6546
 4559TIP3    H213642   6.777   6.349   2.546  1.5479 -0.2721  0.7130
 4560TIP3   OH213643   1.335   1.932   4.289 -0.0339  0.1168  0.2626
 4560TIP3    H113644   1.355   2.001   4.227 -0.9919 -1.6822 -2.2293
 4560TIP3    H213645   1.397   1.862   4.268 -0.7470 -0.7469  0.9400
 4561TIP3   OH213646   2.617   2.600   5.400  0.1549 -0.6829 -0.4284
 4561TIP3    H113647   2.523   2.592   5.386  0.5274 -1.5335 -2.9689
 4561TIP3    H213648   2.631   2.570   5.490 -2.0791  0.4249  0.3481
 4562TIP3   OH213649   1.849   2.629   1.494  0.5053  0.5447  0.1620
 4562TIP3    H113650   1.932   2.614   1.540  0.1366  1.1237  1.0380
 4562TIP3    H213651   1.842   2.555   1.433  1.3367  0.1299  0.5503
 4563TIP3   OH213652   6.063   0.090   1.255 -0.2622  0.4517 -0.4763
 4563TIP3    H113653   6.084   0.154   1.186  2.0401  0.6354  0.3250
 4563TIP3    H213654   6.037   0.011   1.207  0.8557  0.7123 -1.5744
 4564TIP3   OH213655   4.580   2.989   2.541  0.0088 -0.1376 -0.3880
 4564TIP3    H113656   4.599   2.997   2.447 -0.0311 -0.5617 -0.4323
 4564TIP3    H213657   4.496   2.944   2.545 -1.2949  2.1537 -0.2035
 4565TIP3   OH213658   1.672   4.585   1.744 -0.1831  0.3781  0.4511
 4565TIP3    H113659   1.607   4.515   1.745  0.8174 -0.5899 -0.1836
 4565TIP3    H213660   1.662   4.628   1.829 -0.2808 -1.0665  1.1975
 4566TIP3   OH213661   5.682   3.155   4.562  0.5297 -0.5041 -0.3998
 4566TIP3    H113662   5.638   3.206   4.494  1.3130  0.9819  0.1651
 4566TIP3    H213663   5.730   3.088   4.513  1.1586  0.5893 -1.3541
 4567TIP3   OH213664   5.999   1.335   1.592 -0.5300  0.9596 -0.5375
 4567TIP3    H113665   5.941   1.331   1.667 -1.8416 -0.6843 -1.5666
 4567TIP3    H213666   5.983   1.422   1.554 -0.8482  1.2765  0.2958
 4568TIP3   OH213667   0.823   5.503   0.110 -0.0273  0.4479  0.3225
 4568TIP3    H113668   0.809   5.415   0.074  0.1376  0.7473 -0.4926
 4568TIP3    H213669   0.881   5.546   0.047 -1.2861  1.6391 -0.0691
 4569TIP3   OH213670   3.276   5.697   4.892 -0.6264  0.2237 -0.2220
 4569TIP3    H113671   3.185   5.686   4.864  0.1553 -1.3981 -2.5297
 4569TIP3    H213672   3.295   5.789   4.879 -1.5872  0.3278 -0.9732
 4570TIP3   OH213673   4.814   6.668   3.754 -0.3611 -0.7821 -0.0108
 4570TIP3    H113674   4.832   6.578   3.782  0.7914 -0.5532  0.0584
 4570TIP3    H213675   4.719   6.673   3.749 -0.4738 -1.7700  0.7581
 4571TIP3   OH213676   6.485   2.230   4.139  0.7004 -0.1634  0.0650
 4571TIP3    H113677   6.463   2.321   4.158  0.3804 -0.5027  1.4457
 4571TIP3    H213678   6.438   2.179   4.206  1.6081 -1.2721 -0.0982
 4572TIP3   OH213679   1.329   4.357   0.474 -0.1271 -0.3048  0.0001
 4572TIP3    H113680   1.372   4.382   0.556 -1.9419  1.6050  0.4668
 4572TIP3    H213681   1.268   4.429   0.457 -2.6522 -2.5063 -0.9173
 4573TIP3   OH213682   5.159   3.725   0.858 -0.1126  0.3659 -0.4658
 4573TIP3    H113683   5.244   3.736   0.816  0.6208  1.1268  1.1271
 4573TIP3    H213684   5.095   3.736   0.787  1.1034 -0.4339 -1.7273
 4574TIP3   OH213685   0.733   5.246   0.068  0.3369  0.7018 -0.7767
 4574TIP3    H113686   0.787   5.193   0.126 -2.2983  1.4986  2.7864
 4574TIP3    H213687   0.680   5.182   0.019 -0.6988 -0.0752  1.2621
 4575TIP3   OH213688   5.842   2.030   5.566 -0.5997  0.4735 -0.3276
 4575TIP3    H113689   5.926   2.030   5.519 -0.4872 -0.2595 -0.1444
 4575TIP3    H213690   5.866   2.011   5.657 -1.0418 -0.7386 -0.4448
 4576TIP3   OH213691   3.725   0.501   4.410  0.3981  0.1074 -0.0404
 4576TIP3    H113692   3.637   0.530   4.434  0.6395  0.0383  0.9632
 4576TIP3    H213693   3.711   0.448   4.331 -0.6249 -0.9096  0.7758
 4577TIP3   OH213694   5.153   3.102   5.051  0.3082  0.1745 -0.5782
 4577TIP3    H113695   5.130   3.009   5.047  0.7464  0.0602 -0.5932
 4577TIP3    H213696   5.070   3.148   5.059 -0.0321 -0.1223 -2.1761
 4578TIP3   OH213697   3.460   1.944   4.530 -0.9672  0.1438 -0.0795
 4578TIP3    H113698   3.443   2.036   4.509  1.3904  0.6908  0.1130
 4578TIP3    H213699   3.481   1.945   4.623  1.1314 -0.2001 -0.5033
 4579TIP3   OH213700   0.498   0.994   1.047 -0.2710  0.7617 -0.1769
 4579TIP3    H113701   0.513   1.084   1.019 -0.3590  0.6200 -0.7095
 4579TIP3    H213702   0.582   0.951   1.037 -0.0915  0.9177  0.6204
 4580TIP3   OH213703   3.462   0.524   5.172  0.0175  0.6587 -0.6462
 4580TIP3    H113704   3.371   0.551   5.184 -1.0768 -2.5731 -0.6873
 4580TIP3    H213705   3.473   0.522   5.077 -0.9409 -1.8042 -0.7737
 4581TIP3   OH213706   5.984   2.225   2.738 -0.2398 -0.5315  0.2335
 4581TIP3    H113707   5.936   2.145   2.761 -0.1913 -0.6207  0.0241
 4581TIP3    H213708   6.038   2.200   2.663 -1.3179  0.0786 -0.7718
 4582TIP3   OH213709   0.971   2.150   3.297  0.0081 -0.9336 -0.5348
 4582TIP3    H113710   0.999   2.233   3.335  0.3390 -0.8863 -0.8738
 4582TIP3    H213711   0.883   2.136   3.331  1.0999 -2.0289  2.1173
 4583TIP3   OH213712   1.958   4.109   2.488  0.4244  0.2429  0.3374
 4583TIP3    H113713   1.866   4.081   2.486 -0.1252  1.9345 -1.3860
 4583TIP3    H213714   1.971   4.140   2.578 -0.9641  0.7569  0.3930
 4584TIP3   OH213715   2.432   6.688   1.231  0.0806 -0.4389  0.2411
 4584TIP3    H113716   2.519   6.667   1.265 -0.0117  0.7916  1.3004
 4584TIP3    H213717   2.446   6.762   1.172  0.0226 -1.5937 -1.2810
 4585TIP3   OH213718   4.568   5.236   0.746 -0.2711  0.3365 -0.1095
 4585TIP3    H113719   4.634   5.185   0.699  0.2731 -1.0690  2.0595
 4585TIP3    H213720   4.485   5.205   0.711  0.1081 -0.8156 -0.0230
 4586TIP3   OH213721   4.527   6.023   3.011  0.2946 -0.3092  0.2568
 4586TIP3    H113722   4.495   6.015   2.921  1.1797 -0.8749 -0.0234
 4586TIP3    H213723   4.452   5.997   3.065 -0.5043  0.8170 -0.2714
 4587TIP3   OH213724   5.210   0.225   0.403  0.0081 -0.2319 -0.0787
 4587TIP3    H113725   5.299   0.193   0.391  0.3481  0.9731 -0.8878
 4587TIP3    H213726   5.220   0.317   0.427 -1.0310  0.1900 -1.1702
 4588TIP3   OH213727   5.667   5.008   3.925  0.4187  0.1511  0.3861
 4588TIP3    H113728   5.752   4.970   3.947  1.1142  0.3597 -1.7646
 4588TIP3    H213729   5.630   4.948   3.861 -0.6011  0.6118  0.5376
 4589TIP3   OH213730   6.038   4.912   0.253 -0.2524  0.2912 -0.1612
 4589TIP3    H113731   6.060   4.997   0.216  0.3122  0.0180 -0.4613
 4589TIP3    H213732   6.100   4.900   0.325 -1.0282  0.6040  0.5737
 4590TIP3   OH213733   3.262   6.531   2.289 -0.2713  0.1112  0.0225
 4590TIP3    H113734   3.322   6.465   2.323 -0.6687 -1.1506 -1.6023
 4590TIP3    H213735   3.316   6.610   2.280  0.4475 -0.2359  1.0944
 4591TIP3   OH213736   4.640   5.973   1.687 -0.0280 -0.1893  0.2042
 4591TIP3    H113737   4.654   5.919   1.610  1.7202 -0.6044  0.7819
 4591TIP3    H213738   4.727   5.992   1.721 -0.7367 -0.7550  2.5923
 4592TIP3   OH213739   4.152   5.972   3.395  0.5826  0.9235 -0.1233
 4592TIP3    H113740   4.198   5.910   3.452  0.6481  1.0533 -0.0352
 4592TIP3    H213741   4.087   6.013   3.452 -0.0960  0.2689 -0.3951
 4593TIP3   OH213742   6.634   6.331   4.190  0.3887 -0.0132 -0.0829
 4593TIP3    H113743   6.592   6.246   4.177 -1.5010  0.5669  1.5738
 4593TIP3    H213744   6.595   6.363   4.272  2.7078  1.4727  0.5087
 4594TIP3   OH213745   3.787   5.710   3.737 -0.3484  0.5080  0.0543
 4594TIP3    H113746   3.850   5.754   3.680 -0.0531 -0.6851 -0.5870
 4594TIP3    H213747   3.722   5.673   3.676  0.0571 -0.9191  0.4541
 4595TIP3   OH213748   3.861   1.152   1.086 -0.2531 -0.1539  0.2701
 4595TIP3    H113749   3.824   1.214   1.149 -0.8566  0.3024 -0.5129
 4595TIP3    H213750   3.929   1.106   1.135 -0.2210  0.6868  1.0444
 4596TIP3   OH213751   3.023   3.171   2.817 -0.4956 -0.4294 -1.0446
 4596TIP3    H113752   2.937   3.199   2.783 -0.0415  1.3998 -0.7829
 4596TIP3    H213753   3.037   3.225   2.895  1.7214  0.6786 -2.1297
 4597TIP3   OH213754   3.400   3.345   2.945  0.3462  0.3292  0.2210
 4597TIP3    H113755   3.420   3.261   2.904 -1.7668  0.4285 -1.2052
 4597TIP3    H213756   3.477   3.399   2.929  0.9315 -0.7222 -0.6101
 4598TIP3   OH213757   5.556   6.083   5.553  0.0221 -0.5479 -0.6135
 4598TIP3    H113758   5.479   6.135   5.529  0.0793 -0.9418 -1.7110
 4598TIP3    H213759   5.532   5.993   5.532  0.0249 -0.9578  1.0296
 4599TIP3   OH213760   2.225   4.784   0.335  0.4258  0.2513 -0.3617
 4599TIP3    H113761   2.226   4.689   0.328  1.5455 -0.0090  2.1314
 4599TIP3    H213762   2.318   4.809   0.336  0.1778  1.2144  0.1913
 4600TIP3   OH213763   6.511   4.670   4.461  0.2410  0.2527  0.8348
 4600TIP3    H113764   6.428   4.625   4.478  0.3495  0.2958  1.5106
 4600TIP3    H213765   6.530   4.716   4.543  2.0661 -1.5327  1.4881
 4601TIP3   OH213766   0.794   6.686   3.960 -0.5036 -0.1300  0.1527
 4601TIP3    H113767   0.878   6.640   3.953 -0.8377 -0.6817 -0.3747
 4601TIP3    H213768   0.750   6.646   4.035  0.8170  2.0499  2.2379
 4602TIP3   OH213769   5.752   4.882   4.217  0.0613 -0.1637 -0.1463
 4602TIP3    H113770   5.772   4.963   4.170 -1.2558  0.2040 -0.1156
 4602TIP3    H213771   5.811   4.882   4.293 -0.2007  0.9772  0.0715
 4603TIP3   OH213772   6.126   2.400   4.870 -0.0778 -0.2106  0.0865
 4603TIP3    H113773   6.047   2.346   4.872 -1.1197  1.2688  0.0282
 4603TIP3    H213774   6.133   2.428   4.779  0.9732 -0.9291 -0.0818
 4604TIP3   OH213775   6.081   5.332   1.504 -0.1748 -0.2774 -0.0093
 4604TIP3    H113776   6.081   5.386   1.584  0.9720  0.4547 -0.4715
 4604TIP3    H213777   6.093   5.243   1.537  1.4868  0.1292  0.6256
 4605TIP3   OH213778   4.561   0.002   2.281 -0.2099 -0.5974  0.1469
 4605TIP3    H113779   4.557  -0.010   2.186  1.6110 -0.7684  0.0404
 4605TIP3    H213780   4.614   0.082   2.292  0.1359 -0.9281  1.0062
 4606TIP3   OH213781   6.437   4.107   1.416 -0.1798 -0.3881  0.0893
 4606TIP3    H113782   6.484   4.181   1.377 -1.6476  0.3958 -0.2596
 4606TIP3    H213783   6.371   4.147   1.472  1.5400 -1.4854  3.1098
 4607TIP3   OH213784   2.651   4.001   3.227  0.0846  0.2758 -0.5772
 4607TIP3    H113785   2.730   3.962   3.266  0.1617  0.3417 -0.6669
 4607TIP3    H213786   2.678   4.025   3.138  0.4756  1.9270 -0.0366
 4608TIP3   OH213787   2.645   1.290   3.879 -0.1059  0.4584 -0.1484
 4608TIP3    H113788   2.566   1.340   3.857  0.4047  1.4503  0.2146
 4608TIP3    H213789   2.686   1.339   3.950 -0.3522 -1.2897  1.2887
 4609TIP3   OH213790   3.957   6.742   1.264  0.1925  0.3037  0.4006
 4609TIP3    H113791   3.993   6.706   1.183 -3.0622 -1.3406 -0.4995
 4609TIP3    H213792   3.949   6.836   1.248 -0.1785  0.0349 -1.1314
 4610TIP3   OH213793   3.503   1.149   1.350 -0.3113 -0.0305  0.1582
 4610TIP3    H113794   3.476   1.194   1.270  0.8437  1.7764  0.7284
 4610TIP3    H213795   3.570   1.086   1.322  0.1710  0.6753 -0.2889
 4611TIP3   OH213796   2.336   3.876   3.719 -0.3238  0.0780  0.1289
 4611TIP3    H113797   2.392   3.805   3.751  1.7865  1.4245 -0.3409
 4611TIP3    H213798   2.277   3.894   3.792 -0.2093 -1.4386  0.6416
 4612TIP3   OH213799   2.200   3.978   1.110  0.3709 -0.0224 -0.6074
 4612TIP3    H113800   2.171   3.889   1.131  0.5456 -0.3688 -1.7325
 4612TIP3    H213801   2.245   4.008   1.189  0.7312 -1.1162 -0.3732
 4613TIP3   OH213802   3.155   6.501   5.154 -0.1832  0.3346 -0.0117
 4613TIP3    H113803   3.178   6.593   5.153  1.2897 -0.0139  0.0222
 4613TIP3    H213804   3.114   6.486   5.068  1.6226  0.5462 -0.9575
 4614TIP3   OH213805   6.325   5.602   2.731  0.2478  0.0884  0.0624
 4614TIP3    H113806   6.346   5.688   2.767  1.3995  0.5954 -1.6917
 4614TIP3    H213807   6.378   5.596   2.651 -2.6554 -0.6329 -1.9842
 4615TIP3   OH213808   6.182   3.231   3.548 -0.0588  0.0963  0.3591
 4615TIP3    H113809   6.182   3.318   3.589 -0.7303  0.8549 -1.1554
 4615TIP3    H213810   6.275   3.213   3.530 -0.0573  1.5458 -1.3407
 4616TIP3   OH213811   3.131   1.850   1.131  0.5737  0.3297 -1.0280
 4616TIP3    H113812   3.135   1.867   1.037  0.2401 -1.2787 -1.3557
 4616TIP3    H213813   3.055   1.793   1.142 -0.3031  1.6873  0.4392
 4617TIP3   OH213814   6.828   3.501   5.582  0.5819  0.3873 -0.6980
 4617TIP3    H113815   6.750   3.450   5.605  1.4273  0.1119  1.8113
 4617TIP3    H213816   6.801   3.592   5.593  1.4970  0.3264  4.1186
 4618TIP3   OH213817   1.253   1.304   4.226 -0.2723 -0.0515  0.6057
 4618TIP3    H113818   1.213   1.340   4.147  1.6128 -0.3845 -0.5771
 4618TIP3    H213819   1.271   1.380   4.281 -0.2739  0.3558  0.0533
 4619TIP3   OH213820   1.982   0.622   4.104 -0.5231 -0.5480 -0.0525
 4619TIP3    H113821   1.889   0.636   4.125 -0.0297 -0.0276  2.0943
 4619TIP3    H213822   1.992   0.654   4.015 -2.0200  1.2648  0.3689
 4620TIP3   OH213823   2.490   0.955   4.283  0.4687  0.1486 -0.1826
 4620TIP3    H113824   2.453   0.918   4.363 -0.5889  0.2107 -0.6315
 4620TIP3    H213825   2.466   1.047   4.286  1.3581  0.3846 -0.0548
 4621TIP3   OH213826   5.132   6.607   2.478  0.0347 -0.1015 -0.4232
 4621TIP3    H113827   5.065   6.659   2.433 -0.4161  1.2324  1.6947
 4621TIP3    H213828   5.104   6.516   2.463 -1.2294  0.3634 -1.0987
 4622TIP3   OH213829   7.166   3.466   4.993  0.0900  0.5302  0.3634
 4622TIP3    H113830   7.224   3.505   5.058 -0.0386  1.2444  0.0566
 4622TIP3    H213831   7.135   3.385   5.034  0.4198  0.7089  0.9750
 4623TIP3   OH213832   3.896   4.595   4.463  0.2061  0.2977 -0.2491
 4623TIP3    H113833   3.952   4.640   4.400 -0.6872  2.1134  0.1841
 4623TIP3    H213834   3.957   4.545   4.518  1.5242  2.5914  0.5249
 4624TIP3   OH213835   0.613   5.107   4.276  0.1489  0.4761 -0.2136
 4624TIP3    H113836   0.662   5.026   4.286 -0.6024 -0.2187 -1.8344
 4624TIP3    H213837   0.680   5.173   4.254  0.4975 -0.3076 -1.6783
 4625TIP3   OH213838   3.471   6.569   0.902  0.4947  0.2957  0.2138
 4625TIP3    H113839   3.487   6.477   0.922 -0.6717  0.1814  0.6401
 4625TIP3    H213840   3.396   6.568   0.843  1.3428  0.8986 -0.9195
 4626TIP3   OH213841   1.478   3.610   1.044 -0.4934 -0.3812  0.0917
 4626TIP3    H113842   1.502   3.528   1.087  0.8248  0.0831  0.2970
 4626TIP3    H213843   1.431   3.660   1.111 -2.1242 -1.3089 -0.3121
 4627TIP3   OH213844   0.005   3.702   5.206  0.0355  0.2393  0.1342
 4627TIP3    H113845   0.078   3.678   5.263 -0.3679  0.2064  0.6471
 4627TIP3    H213846  -0.071   3.660   5.246 -0.2683  0.2984 -0.3768
 4628TIP3   OH213847   2.330   6.457   1.086 -0.0448  0.2927 -0.1756
 4628TIP3    H113848   2.256   6.424   1.035 -0.2737 -0.2876  0.5233
 4628TIP3    H213849   2.307   6.548   1.106 -0.3456  0.2573 -0.3551
 4629TIP3   OH213850   1.914   1.796   3.862  0.4892  0.1708  0.3105
 4629TIP3    H113851   1.933   1.803   3.956 -1.1245  1.3529  0.5912
 4629TIP3    H213852   2.000   1.800   3.820  1.1035  2.6080  1.5980
 4630TIP3   OH213853   0.705   5.527   3.731  0.1174 -0.2062 -0.2063
 4630TIP3    H113854   0.647   5.510   3.805  0.4143 -0.6729 -0.0794
 4630TIP3    H213855   0.781   5.471   3.746  1.1490  1.2772  0.2447
 4631TIP3   OH213856   1.048   6.085   0.821  0.1599 -0.4951  0.4212
 4631TIP3    H113857   0.971   6.028   0.821 -0.2215 -0.1131 -2.2304
 4631TIP3    H213858   1.011   6.174   0.816  0.7688 -0.2197  0.7429
 4632TIP3   OH213859   6.941   5.547   5.260  0.0254 -0.2318 -0.0325
 4632TIP3    H113860   7.014   5.545   5.322  0.5247 -0.1129 -0.6083
 4632TIP3    H213861   6.975   5.594   5.184 -0.9019  0.5279 -0.0000
 4633TIP3   OH213862   6.307   3.681   1.892  0.1699 -0.4695  0.5694
 4633TIP3    H113863   6.358   3.664   1.971  1.2454 -0.1799 -0.0449
 4633TIP3    H213864   6.348   3.627   1.824 -0.2967 -0.1845  0.0492
 4634TIP3   OH213865   6.828   2.038   5.716 -0.7643  0.0648  0.7430
 4634TIP3    H113866   6.861   2.127   5.731 -2.7933  0.8812  0.6781
 4634TIP3    H213867   6.803   2.007   5.803  0.6468 -0.7718  0.8738
 4635TIP3   OH213868   2.145   3.323   4.285 -0.1829  0.3981 -0.1299
 4635TIP3    H113869   2.099   3.391   4.236 -1.2697 -1.0938 -1.2595
 4635TIP3    H213870   2.120   3.339   4.376  0.3946  2.0862 -0.2328
 4636TIP3   OH213871   2.379   0.858   0.465  0.0030  0.3048 -0.1662
 4636TIP3    H113872   2.356   0.950   0.473  1.2093  0.6501 -0.4576
 4636TIP3    H213873   2.323   0.813   0.528 -0.5051  1.2524  0.0613
 4637TIP3   OH213874   1.282   2.512   1.454  0.6063  0.2020 -0.3904
 4637TIP3    H113875   1.234   2.432   1.478 -0.3847  1.5492  2.6083
 4637TIP3    H213876   1.318   2.493   1.367  0.8687 -3.6798  0.3797
 4638TIP3   OH213877   3.334   6.613   5.400  0.7926 -0.1848 -0.0845
 4638TIP3    H113878   3.315   6.705   5.422  1.4135 -0.2321  0.6808
 4638TIP3    H213879   3.362   6.616   5.309  2.1227  0.5944  0.3216
 4639TIP3   OH213880   1.963   5.306   2.310  0.4263 -0.2841 -0.9543
 4639TIP3    H113881   1.996   5.216   2.302 -0.4437 -0.6679 -0.4557
 4639TIP3    H213882   1.952   5.319   2.405  0.0784  0.1625 -1.0514
 4640TIP3   OH213883   7.192   3.064   1.083 -0.1443  0.3987  0.4688
 4640TIP3    H113884   7.209   2.981   1.129  0.4932  0.5579  0.5399
 4640TIP3    H213885   7.174   3.038   0.993  0.6102  0.2072  0.3593
 4641TIP3   OH213886   3.743   5.416   0.862  0.1524  0.5968 -0.1918
 4641TIP3    H113887   3.714   5.505   0.841 -2.5744  0.2862  1.6420
 4641TIP3    H213888   3.762   5.376   0.777 -2.0377  1.8985 -1.3919
 4642TIP3   OH213889   0.109   3.188   3.419  0.0917 -0.4161 -0.6139
 4642TIP3    H113890   0.194   3.181   3.374  0.7384  0.6620  0.4063
 4642TIP3    H213891   0.066   3.105   3.399  0.9790 -0.5918 -1.9595
 4643TIP3   OH213892   0.614   4.954   2.947  0.2820 -0.1180 -0.0414
 4643TIP3    H113893   0.602   5.011   3.023 -0.0205  0.7006 -0.6831
 4643TIP3    H213894   0.701   4.976   2.914 -0.8144  1.9749 -1.8497
 4644TIP3   OH213895   4.975   0.033   2.955  0.1957  0.3783  0.5923
 4644TIP3    H113896   5.010  -0.024   2.887 -1.7467 -0.2034  0.0200
 4644TIP3    H213897   4.993   0.122   2.924  1.4414  0.1166  0.5116
 4645TIP3   OH213898   1.423   2.791   1.608  0.2392 -0.3228 -0.4357
 4645TIP3    H113899   1.446   2.705   1.573  0.2100  0.2955 -2.0606
 4645TIP3    H213900   1.334   2.807   1.576  0.4700  0.5535 -0.6640
 4646TIP3   OH213901   4.617   0.870   4.313 -0.4007  0.2700 -0.3305
 4646TIP3    H113902   4.639   0.883   4.220  1.0915 -0.3762 -0.0926
 4646TIP3    H213903   4.615   0.959   4.349 -0.9061  0.5212 -0.9597
 4647TIP3   OH213904   6.477   5.428   0.927 -0.4997  0.1859  0.1876
 4647TIP3    H113905   6.521   5.497   0.877 -0.5027  0.9874  1.2738
 4647TIP3    H213906   6.462   5.466   1.013  1.0818 -1.7390  1.4158
 4648TIP3   OH213907   6.558   6.777   5.301 -0.6631 -0.4662  0.1592
 4648TIP3    H113908   6.632   6.736   5.255  0.0122  0.6078  0.2593
 4648TIP3    H213909   6.537   6.716   5.372  1.1941 -0.0438  1.1189
 4649TIP3   OH213910   0.598   2.445   5.766  0.7396  0.1498  0.0487
 4649TIP3    H113911   0.682   2.451   5.720 -0.2791  0.7309 -1.8243
 4649TIP3    H213912   0.570   2.536   5.776  0.4300 -0.0310  0.8989
 4650TIP3   OH213913   2.390   3.745   0.883 -0.4214 -0.5080 -0.0398
 4650TIP3    H113914   2.297   3.748   0.903 -0.1585 -1.4844  1.4615
 4650TIP3    H213915   2.407   3.826   0.834 -1.4725  1.1823  2.2460
 4651TIP3   OH213916   6.841   1.087   4.123  0.4345 -0.2510 -0.5170
 4651TIP3    H113917   6.930   1.058   4.144  0.6650 -0.1037 -1.2669
 4651TIP3    H213918   6.837   1.085   4.028  0.5750  2.4246 -0.6690
 4652TIP3   OH213919   3.883   0.576   3.456 -0.5354 -0.6650 -0.3148
 4652TIP3    H113920   3.836   0.658   3.437 -0.0989 -1.1222 -4.2023
 4652TIP3    H213921   3.967   0.604   3.491 -0.6303  0.5256 -1.0001
 4653TIP3   OH213922   6.110   1.133   0.237  0.0073 -0.0395 -0.5043
 4653TIP3    H113923   6.141   1.144   0.147 -0.7726 -0.4873 -0.8290
 4653TIP3    H213924   6.188   1.104   0.285 -0.3297 -3.4260 -1.7668
 4654TIP3   OH213925   6.116   2.394   5.774  0.3422  0.2121 -0.1342
 4654TIP3    H113926   6.074   2.393   5.688  1.8758  0.6108 -0.9337
 4654TIP3    H213927   6.182   2.463   5.768  0.4439  0.2942  1.3974
 4655TIP3   OH213928   1.083   2.994   5.614 -0.3363 -0.3199  0.1016
 4655TIP3    H113929   1.112   3.082   5.587  2.4968 -0.5262  2.0610
 4655TIP3    H213930   1.043   3.008   5.700 -0.6939 -0.8476  0.0220
 4656TIP3   OH213931   0.338   2.600   3.660  0.1962 -0.3424 -0.5449
 4656TIP3    H113932   0.384   2.587   3.578 -0.4721  3.1649 -1.6335
 4656TIP3    H213933   0.247   2.574   3.641 -0.1625  1.3533 -1.2646
 4657TIP3   OH213934   2.171   4.357   2.512 -0.1133  0.2582 -0.5487
 4657TIP3    H113935   2.184   4.311   2.429 -0.9402 -1.0021 -0.0195
 4657TIP3    H213936   2.077   4.367   2.519  0.0171  1.5208 -0.3373
 4658TIP3   OH213937   2.165   3.378   4.558 -0.0893  0.3213  0.6527
 4658TIP3    H113938   2.193   3.469   4.562 -0.8863  0.7187 -1.7043
 4658TIP3    H213939   2.096   3.371   4.624 -0.9520  1.7872 -0.0733
 4659TIP3   OH213940   7.119   3.220   2.124 -0.2028 -0.1926 -0.4182
 4659TIP3    H113941   7.058   3.264   2.183  0.6744  1.7504 -0.8740
 4659TIP3    H213942   7.200   3.213   2.174  0.3471  0.8642 -1.1237
 4660TIP3   OH213943   3.772   1.072   1.855  0.0810 -0.4712  0.1263
 4660TIP3    H113944   3.695   1.018   1.840 -0.3790  0.3461 -0.5295
 4660TIP3    H213945   3.742   1.162   1.842  1.4030 -0.1953 -1.4021
 4661TIP3   OH213946   0.402   0.605   0.333  0.0864  0.2204 -0.5133
 4661TIP3    H113947   0.340   0.660   0.381  0.5878 -0.2983  0.7782
 4661TIP3    H213948   0.466   0.668   0.297 -1.4425  0.8138 -2.3516
 4662TIP3   OH213949   5.162   6.401   3.927  0.2813 -0.0733 -0.1185
 4662TIP3    H113950   5.229   6.452   3.882  0.1893 -0.7876 -1.0982
 4662TIP3    H213951   5.153   6.443   4.013  1.7675  0.2085 -0.0793
 4663TIP3   OH213952   4.600   5.255   3.250  0.1077  0.0066  0.0418
 4663TIP3    H113953   4.604   5.299   3.166 -1.9133  1.0262  0.4091
 4663TIP3    H213954   4.614   5.324   3.315 -1.4406 -0.1372  0.5849
 4664TIP3   OH213955   1.969   5.032   3.849 -0.1919  0.4332 -0.5296
 4664TIP3    H113956   1.897   4.971   3.869 -0.0896  0.4041 -0.2448
 4664TIP3    H213957   2.039   5.007   3.909  0.1891  0.2324 -1.0566
 4665TIP3   OH213958   5.015   6.797   0.790 -0.1407  0.3159  0.2228
 4665TIP3    H113959   5.001   6.830   0.702  0.6344 -0.3985 -0.1852
 4665TIP3    H213960   4.929   6.766   0.819 -0.1708 -0.5394 -0.7476
 4666TIP3   OH213961   4.425   3.464   1.727  0.4122  0.5091 -0.0229
 4666TIP3    H113962   4.336   3.429   1.734 -0.3022  2.3691  0.7784
 4666TIP3    H213963   4.426   3.510   1.642  0.3174  1.2038  0.3435
 4667TIP3   OH213964   0.299   1.394   2.343 -0.5226  0.1221 -0.6660
 4667TIP3    H113965   0.387   1.431   2.346 -1.1679  1.6428  0.9956
 4667TIP3    H213966   0.296   1.331   2.414 -1.4089  1.7622  0.8518
 4668TIP3   OH213967   4.114   3.938   3.361  0.9298  0.3782 -0.0720
 4668TIP3    H113968   4.061   3.891   3.296 -2.2165  0.4174  2.2347
 4668TIP3    H213969   4.132   3.873   3.429 -0.4858  1.5618  1.5112
 4669TIP3   OH213970   2.302   3.916   2.956 -0.4711  0.1746 -0.0651
 4669TIP3    H113971   2.327   3.859   2.884 -0.6441 -0.0145  0.0245
 4669TIP3    H213972   2.325   4.004   2.926 -0.1559  0.0544 -0.1817
 4670TIP3   OH213973   3.221   1.361   1.804 -0.5571  0.3190 -0.0718
 4670TIP3    H113974   3.241   1.371   1.897  3.9329  2.0147 -0.9444
 4670TIP3    H213975   3.146   1.419   1.789 -0.2451  1.4193  2.2091
 4671TIP3   OH213976   0.125   4.401   5.704 -0.4725 -0.5092  0.7788
 4671TIP3    H113977   0.068   4.396   5.627 -1.3130  1.7034  1.1948
 4671TIP3    H213978   0.155   4.311   5.717 -3.2883 -1.6372  0.1061
 4672TIP3   OH213979   4.151   5.104   4.473 -0.1725  0.2875  0.0133
 4672TIP3    H113980   4.152   5.052   4.393 -0.3511 -0.5086  0.5121
 4672TIP3    H213981   4.202   5.182   4.452  0.0882 -0.0797 -0.7566
 4673TIP3   OH213982   0.232   1.826   4.897 -0.6660 -0.1182  0.1614
 4673TIP3    H113983   0.235   1.921   4.894  0.6079 -0.1405 -0.0566
 4673TIP3    H213984   0.192   1.800   4.814  0.0316  0.2103 -0.2888
 4674TIP3   OH213985   5.611   1.847   1.244  0.2945  0.4055  0.0294
 4674TIP3    H113986   5.603   1.942   1.230  1.8506  0.3758 -1.4615
 4674TIP3    H213987   5.559   1.809   1.173  2.0395  0.2126 -1.2305
 4675TIP3   OH213988   0.044   0.085   5.238 -0.2189  0.6348  0.4036
 4675TIP3    H113989   0.118   0.082   5.299  0.0306 -1.5189  0.0998
 4675TIP3    H213990   0.084   0.102   5.153  0.0611 -1.0096  0.1608
 4676TIP3   OH213991   4.881   5.734   5.514  0.3025 -0.5893  0.2120
 4676TIP3    H113992   4.905   5.703   5.601 -0.2577  1.3777  1.1428
 4676TIP3    H213993   4.883   5.657   5.458 -0.4197 -2.1189  2.2047
 4677TIP3   OH213994   0.949   1.364   2.563 -0.2750 -0.2437 -0.0932
 4677TIP3    H113995   0.914   1.324   2.484 -1.6155 -0.9015  0.7936
 4677TIP3    H213996   0.979   1.290   2.616  2.2212  0.2807 -0.6640
 4678TIP3   OH213997   4.763   4.900   4.224  0.1617  0.0707 -0.1438
 4678TIP3    H113998   4.825   4.837   4.188 -0.0685 -0.1736 -0.1137
 4678TIP3    H213999   4.786   4.983   4.183  1.3724  0.2656  0.8516
 4679TIP3   OH214000   5.716   6.784   4.862  0.3044 -0.2730 -0.0084
 4679TIP3    H114001   5.740   6.756   4.950  0.1356 -0.7606 -0.1152
 4679TIP3    H214002   5.636   6.834   4.873 -0.2156 -1.0934  0.0162
 4680TIP3   OH214003   0.754   2.452   5.320 -0.0717  0.6375  0.3980
 4680TIP3    H114004   0.685   2.481   5.261 -0.3037  0.2464  0.4740
 4680TIP3    H214005   0.820   2.521   5.315 -0.0517  0.5712 -0.3751
 4681TIP3   OH214006   4.694   3.113   3.129  0.1034 -0.1159 -0.2388
 4681TIP3    H114007   4.649   3.030   3.114 -2.2026  0.7904  1.1827
 4681TIP3    H214008   4.771   3.090   3.180 -0.9798 -1.3156  0.9228
 4682TIP3   OH214009   5.012   2.859   1.334  0.2620  0.3417 -0.1222
 4682TIP3    H114010   5.099   2.855   1.375 -0.1801 -0.0835  0.8016
 4682TIP3    H214011   4.956   2.896   1.402 -0.4563 -0.1981 -0.4177
 4683TIP3   OH214012   0.720   2.023   3.579  0.3141 -0.3207 -0.4070
 4683TIP3    H114013   0.787   2.091   3.586  3.4227 -2.8685 -2.4285
 4683TIP3    H214014   0.696   2.023   3.486  0.5136 -2.0001 -0.4936
 4684TIP3   OH214015   6.579   3.356   1.581  0.4257  0.0870 -0.0980
 4684TIP3    H114016   6.650   3.408   1.543  0.1082  0.6988  0.1457
 4684TIP3    H214017   6.555   3.294   1.512  1.7691 -0.7110  0.1064
 4685TIP3   OH214018   6.994   4.759   1.998 -0.0996  0.2143 -0.0245
 4685TIP3    H114019   7.075   4.715   1.973 -0.4293 -0.3038 -0.1947
 4685TIP3    H214020   6.990   4.750   2.093  0.1976  0.5225  0.0216
 4686TIP3   OH214021   1.397   4.956   2.764 -0.3804 -0.0860 -0.2831
 4686TIP3    H114022   1.414   4.866   2.792  1.9733 -0.2267 -1.8834
 4686TIP3    H214023   1.315   4.979   2.807  0.0827 -2.1937  1.9737
 4687TIP3   OH214024   5.792   1.235   3.521  0.2797 -0.0659  0.0656
 4687TIP3    H114025   5.806   1.141   3.534  0.9055  0.1910  1.3517
 4687TIP3    H214026   5.835   1.254   3.437  3.4888 -0.2467  1.5450
 4688TIP3   OH214027   4.766   4.502   4.476 -0.0533  0.3074  0.5438
 4688TIP3    H114028   4.833   4.523   4.542 -0.6721 -0.6261  1.5102
 4688TIP3    H214029   4.719   4.583   4.462  1.3600  1.0334 -0.2803
 4689TIP3   OH214030   4.974   5.667   0.708  0.1501 -0.0723  0.3745
 4689TIP3    H114031   5.039   5.723   0.750  1.5915 -0.1780 -1.5459
 4689TIP3    H214032   4.935   5.617   0.779  1.4179  0.7799  1.7261
 4690TIP3   OH214033   1.976   2.395   0.874 -0.5114  0.0621  0.6170
 4690TIP3    H114034   1.893   2.347   0.866  0.0189 -0.8342  0.3030
 4690TIP3    H214035   2.036   2.350   0.814 -0.0537  1.3004  0.1001
 4691TIP3   OH214036   7.193   5.252   0.451 -0.3931  0.0979  0.2183
 4691TIP3    H114037   7.250   5.327   0.435  1.7111 -1.1173  1.5034
 4691TIP3    H214038   7.201   5.198   0.372  0.1320  0.0069  0.3311
 4692TIP3   OH214039   1.142   2.547   1.829 -0.0955 -0.4126 -0.0707
 4692TIP3    H114040   1.224   2.596   1.829  0.7506 -1.7506 -1.2459
 4692TIP3    H214041   1.117   2.543   1.737 -1.0582 -0.7267  0.1939
 4693TIP3   OH214042   5.401   0.082   2.549 -0.4357  0.3126  0.4955
 4693TIP3    H114043   5.435   0.027   2.478  0.0139  1.6704 -0.3658
 4693TIP3    H214044   5.307   0.063   2.550 -0.6065  0.9430 -1.0913
 4694TIP3   OH214045   6.446   0.294   5.556 -0.3110  0.3607 -0.0126
 4694TIP3    H114046   6.392   0.217   5.574 -0.5016  0.8388  1.6458
 4694TIP3    H214047   6.453   0.297   5.461  0.7339 -2.3907 -0.1123
 4695TIP3   OH214048   0.849   6.657   4.563 -0.2948  0.0615 -0.2624
 4695TIP3    H114049   0.910   6.596   4.520 -0.7747 -0.1903 -0.5970
 4695TIP3    H214050   0.902   6.734   4.583 -0.0238  0.1200 -1.1675
 4696TIP3   OH214051   0.075   3.323   2.781 -0.1301  0.8125 -0.5306
 4696TIP3    H114052   0.162   3.355   2.757 -0.0833  0.7427 -0.4553
 4696TIP3    H214053   0.091   3.238   2.821 -0.3800 -0.0173 -2.1055
 4697TIP3   OH214054   6.170   3.975   0.239 -0.5777  0.1747  0.8277
 4697TIP3    H114055   6.133   4.058   0.269  0.6478  0.9228  0.3553
 4697TIP3    H214056   6.263   3.995   0.223 -0.3556 -1.1834  0.3029
 4698TIP3   OH214057   2.656   4.299   2.213  0.0363 -0.4177  0.5475
 4698TIP3    H114058   2.743   4.285   2.250  0.2304 -0.7714 -0.0192
 4698TIP3    H214059   2.599   4.309   2.289  0.6542  0.3949  0.9200
 4699TIP3   OH214060   1.491   4.741   3.669 -0.4085 -0.1717  0.0980
 4699TIP3    H114061   1.486   4.715   3.761  0.1396  1.7578  0.7044
 4699TIP3    H214062   1.560   4.685   3.633  0.4816  0.1391  1.2574
 4700TIP3   OH214063   1.023   5.522   4.990  0.0230  0.4027  0.2531
 4700TIP3    H114064   1.015   5.436   5.031 -0.4781  0.2868 -0.0837
 4700TIP3    H214065   0.951   5.573   5.028  0.1314  0.5821  0.2195
 4701TIP3   OH214066   3.549   0.855   3.392 -0.1278  0.1060 -0.0705
 4701TIP3    H114067   3.520   0.865   3.301  0.8030 -4.2819 -1.1253
 4701TIP3    H214068   3.485   0.794   3.430  0.9822 -0.2191  1.3305
 4702TIP3   OH214069   6.587   5.193   1.028  0.4011 -0.0075 -0.0918
 4702TIP3    H114070   6.584   5.109   0.984  0.3380 -0.1301  0.1424
 4702TIP3    H214071   6.522   5.247   0.983 -0.1344 -0.3392  0.2744
 4703TIP3   OH214072   4.794   4.522   3.957  0.1636 -0.2238 -0.3593
 4703TIP3    H114073   4.738   4.600   3.952 -0.6262 -0.8102 -1.0014
 4703TIP3    H214074   4.882   4.556   3.973 -0.0428  0.8551 -1.3818
 4704TIP3   OH214075   5.154   5.853   0.835  0.0713 -0.8234  0.2473
 4704TIP3    H114076   5.090   5.885   0.899  0.2091  0.1646 -0.1002
 4704TIP3    H214077   5.151   5.916   0.764 -0.6763 -2.3402 -1.1273
 4705TIP3   OH214078   4.661   4.539   2.792  0.0653  0.3059 -0.4984
 4705TIP3    H114079   4.713   4.562   2.869  2.2926 -1.7870 -1.2205
 4705TIP3    H214080   4.646   4.445   2.800 -1.7437  0.4614 -1.4771
 4706TIP3   OH214081   4.962   0.611   3.610 -0.2445  0.2759 -0.7991
 4706TIP3    H114082   4.969   0.674   3.681 -0.9170 -1.1378  0.5863
 4706TIP3    H214083   4.901   0.651   3.548  1.7906  2.3778 -1.6015
 4707TIP3   OH214084   1.051   4.856   0.065  0.1572 -0.4567 -0.1587
 4707TIP3    H114085   1.021   4.940   0.099  1.0102 -0.4837  0.7072
 4707TIP3    H214086   0.998   4.791   0.112  0.5490 -0.4505  0.3012
 4708TIP3   OH214087   1.106   3.670   3.848  0.2617  0.1037 -0.2569
 4708TIP3    H114088   1.126   3.669   3.942  0.9654  0.9826 -0.3905
 4708TIP3    H214089   1.011   3.686   3.845  0.1961 -0.1464  0.3100
 4709TIP3   OH214090   0.525   3.434   5.809  0.5994 -0.2715 -0.0267
 4709TIP3    H114091   0.432   3.445   5.827  0.8127  0.4662  0.6951
 4709TIP3    H214092   0.560   3.395   5.889  0.7772 -1.3829 -0.6199
 4710TIP3   OH214093   4.561   2.141   1.012  0.0068  0.1106 -0.4351
 4710TIP3    H114094   4.639   2.174   0.968  0.3247  1.8116  1.2666
 4710TIP3    H214095   4.564   2.181   1.099 -2.9083  0.4954 -0.4016
 4711TIP3   OH214096   0.331   1.911   2.997  0.6123  0.2356  0.3023
 4711TIP3    H114097   0.269   1.866   2.940  0.0160 -0.4110  1.4406
 4711TIP3    H214098   0.370   1.842   3.051 -0.0047  1.0012  1.7800
 4712TIP3   OH214099   1.501   3.577   3.571  0.5727 -0.1516  0.2130
 4712TIP3    H114100   1.564   3.516   3.533  0.2089 -0.7475  0.5495
 4712TIP3    H214101   1.510   3.656   3.519  0.9709 -0.5320 -0.3079
 4713TIP3   OH214102   0.712   1.331   0.881 -0.5151  0.4646 -0.0469
 4713TIP3    H114103   0.746   1.252   0.923 -1.4753  0.5083  0.8537
 4713TIP3    H214104   0.763   1.340   0.801  0.3397 -0.4664  0.3791
 4714TIP3   OH214105   5.632   5.795   0.186  0.2460 -0.3276  0.3684
 4714TIP3    H114106   5.635   5.831   0.274  0.8133 -0.6292  0.4774
 4714TIP3    H214107   5.720   5.808   0.151  0.2142 -0.8112  0.0933
 4715TIP3   OH214108   5.294   5.109   5.625  0.4860 -0.0650  0.2666
 4715TIP3    H114109   5.229   5.083   5.690  0.0915 -0.4422 -0.2781
 4715TIP3    H214110   5.245   5.121   5.544  0.6542  2.3029  0.4321
 4716TIP3   OH214111   7.147   5.031   1.972  0.2410 -0.0172 -0.3400
 4716TIP3    H114112   7.133   4.980   2.052 -1.7813 -1.3359 -1.4527
 4716TIP3    H214113   7.166   4.965   1.905  0.5966  0.9578 -1.2248
 4717TIP3   OH214114   4.022   5.596   5.676 -0.0772 -0.2827 -0.0741
 4717TIP3    H114115   4.096   5.558   5.630 -0.4449 -0.9225 -0.1480
 4717TIP3    H214116   3.985   5.523   5.726 -1.5630 -0.3565 -1.2012
 4718TIP3   OH214117   3.743   0.045   4.380 -0.0029  0.1642 -0.3087
 4718TIP3    H114118   3.659   0.091   4.373 -1.0541 -1.5771  0.3492
 4718TIP3    H214119   3.738  -0.000   4.464  0.7189 -1.6158 -1.1822
 4719TIP3   OH214120   4.842   5.547   0.928  0.4569  0.4461  0.4244
 4719TIP3    H114121   4.775   5.583   0.986 -2.9271 -4.0715 -0.0304
 4719TIP3    H214122   4.895   5.491   0.984  1.2827  0.9094  0.1185
 4720TIP3   OH214123   1.377   3.425   2.978 -1.1806 -0.7119  0.3145
 4720TIP3    H114124   1.414   3.339   2.958 -1.6542 -0.8826  0.1579
 4720TIP3    H214125   1.285   3.419   2.951 -0.6717  0.6248 -2.1301
 4721TIP3   OH214126   2.719   5.939   4.977  0.4679  0.0889  0.3878
 4721TIP3    H114127   2.748   5.887   4.902 -0.1179  0.6232 -0.2292
 4721TIP3    H214128   2.790   6.000   4.993  2.1835 -2.2951  2.5619
 4722TIP3   OH214129   2.400   4.498   5.147  0.2726  0.5921 -0.0482
 4722TIP3    H114130   2.338   4.461   5.209  0.9084  0.4309  0.5009
 4722TIP3    H214131   2.430   4.579   5.188  0.9364  0.3239  0.0108
 4723TIP3   OH214132   2.770   0.899   5.281 -0.6992  0.1184  0.7299
 4723TIP3    H114133   2.844   0.926   5.337 -0.0953  1.1479 -0.5119
 4723TIP3    H214134   2.693   0.935   5.325 -0.6936 -2.0582  2.7483
 4724TIP3   OH214135   3.198   1.567   1.460  0.2349  0.4069 -0.0085
 4724TIP3    H114136   3.233   1.603   1.379  1.3962 -1.3341 -0.3375
 4724TIP3    H214137   3.224   1.628   1.528  1.2193  0.7322 -0.6668
 4725TIP3   OH214138   1.933   5.564   1.379  0.1562 -0.1994  0.6709
 4725TIP3    H114139   2.007   5.613   1.344 -0.6890 -0.3777 -1.5216
 4725TIP3    H214140   1.938   5.577   1.473  1.5196  1.8403  0.3752
 4726TIP3   OH214141   2.133   0.966   0.646 -0.0279  0.5187  0.3660
 4726TIP3    H114142   2.076   1.018   0.702 -0.8188  0.4869 -0.4003
 4726TIP3    H214143   2.165   1.027   0.580  0.6494  0.4788  0.6381
 4727TIP3   OH214144   6.177   2.689   5.785 -0.0914 -0.2029  0.1536
 4727TIP3    H114145   6.096   2.727   5.820 -0.8763  0.5553 -2.2727
 4727TIP3    H214146   6.243   2.757   5.799 -0.2799 -0.0895  0.5193
 4728TIP3   OH214147   6.058   4.363   3.239 -0.0092  0.5843 -0.0106
 4728TIP3    H114148   6.108   4.371   3.158 -1.0098  0.2233 -0.6759
 4728TIP3    H214149   6.121   4.326   3.301  0.5742  0.1752 -0.8205
 4729TIP3   OH214150   5.921   0.953   3.259  0.8765  0.3330 -0.3589
 4729TIP3    H114151   6.009   0.962   3.223  0.5223  0.6536 -1.1789
 4729TIP3    H214152   5.931   0.972   3.352  1.4471  1.7348 -0.6833
 4730TIP3   OH214153   5.169   2.215   0.489  0.2208  0.3078 -0.0334
 4730TIP3    H114154   5.131   2.175   0.411  0.4153 -0.7510  0.3964
 4730TIP3    H214155   5.209   2.297   0.458  0.4466 -0.1819 -1.0649
 4731TIP3   OH214156   1.151   5.675   1.506  0.2883  0.2990  0.1493
 4731TIP3    H114157   1.243   5.675   1.478  0.1909 -1.4417 -0.2911
 4731TIP3    H214158   1.127   5.767   1.509  1.9934  0.7865  0.0791
 4732TIP3   OH214159   3.728   2.883   0.593 -0.5417 -0.1724  0.0480
 4732TIP3    H114160   3.717   2.856   0.501  2.0120  0.9714 -0.7047
 4732TIP3    H214161   3.662   2.951   0.606 -0.3047  0.3391 -1.2749
 4733TIP3   OH214162   5.880   0.301   2.753 -0.1347  0.3577  0.4522
 4733TIP3    H114163   5.796   0.276   2.716 -0.3953 -1.1904  1.9609
 4733TIP3    H214164   5.860   0.325   2.844  1.0297 -0.1838  0.8767
 4734TIP3   OH214165   7.032   0.026   5.701  0.2284  0.4849  0.2942
 4734TIP3    H114166   7.062  -0.065   5.698 -0.3336  0.2857  0.6004
 4734TIP3    H214167   7.071   0.067   5.623  0.6608  0.0389  0.2731
 4735TIP3   OH214168   1.442   1.679   0.643  0.2357  0.0741 -0.1502
 4735TIP3    H114169   1.467   1.694   0.734  0.4459 -1.3784  0.0554
 4735TIP3    H214170   1.434   1.766   0.605  2.1109  0.6782  0.7295
 4736TIP3   OH214171   6.161   2.679   0.687 -0.1408 -0.1502  0.0623
 4736TIP3    H114172   6.084   2.728   0.716  0.0091  0.1455 -0.0351
 4736TIP3    H214173   6.212   2.664   0.766 -0.1148 -0.0212  0.0698
 4737TIP3   OH214174   6.848   6.744   4.623  0.3183 -0.3076  0.3945
 4737TIP3    H114175   6.894   6.660   4.622  0.5364 -0.1952 -1.1371
 4737TIP3    H214176   6.775   6.732   4.562  1.2656  1.0661 -1.1128
 4738TIP3   OH214177   5.567   5.104   2.322 -0.2805 -0.6247 -1.1236
 4738TIP3    H114178   5.613   5.106   2.405 -0.8077 -0.6285 -0.8274
 4738TIP3    H214179   5.616   5.164   2.265 -1.1179  1.0343 -0.1764
 4739TIP3   OH214180   3.382   2.735   4.872  0.0199 -0.5351 -0.1088
 4739TIP3    H114181   3.363   2.821   4.835 -1.2546 -0.1094  1.4454
 4739TIP3    H214182   3.467   2.746   4.915  0.2702 -0.3184 -0.6446
 4740TIP3   OH214183   1.482   6.020   1.153 -0.0436 -0.8624 -0.0504
 4740TIP3    H114184   1.410   6.021   1.090  0.3210 -1.8941 -0.4982
 4740TIP3    H214185   1.547   6.080   1.117 -0.7312  0.2327  0.4554
 4741TIP3   OH214186   1.763   1.318   4.527 -0.3627 -0.6961  0.6951
 4741TIP3    H114187   1.835   1.313   4.590  2.1539  0.0371 -1.9306
 4741TIP3    H214188   1.764   1.234   4.482  0.4332  0.1192 -0.8938
 4742TIP3   OH214189   5.352   1.293   0.011 -0.3790  0.3968 -0.3897
 4742TIP3    H114190   5.400   1.211   0.027 -2.1127 -0.9988 -1.9662
 4742TIP3    H214191   5.262   1.273   0.038 -0.9544  1.5894 -1.3831
 4743TIP3   OH214192   0.339   5.783   4.065 -0.3177  0.1637  0.2168
 4743TIP3    H114193   0.390   5.836   4.003 -1.1899 -0.1457 -0.8015
 4743TIP3    H214194   0.321   5.841   4.138 -0.1616  0.8699 -0.2983
 4744TIP3   OH214195   6.744   6.032   2.028  0.5308  0.2596 -0.2500
 4744TIP3    H114196   6.650   6.017   2.038  0.7614 -0.8938  0.3848
 4744TIP3    H214197   6.778   6.030   2.117  1.2052  0.3197 -0.5007
 4745TIP3   OH214198   4.186   5.235   0.753 -0.0376 -0.1019  0.5640
 4745TIP3    H114199   4.244   5.175   0.705  0.1997  0.1212  0.5706
 4745TIP3    H214200   4.182   5.313   0.697  0.1239  0.1030  0.8358
 4746TIP3   OH214201   3.213   5.123   4.041 -0.1412  0.2614 -0.3680
 4746TIP3    H114202   3.254   5.036   4.030  1.0679  0.5273  1.5557
 4746TIP3    H214203   3.232   5.168   3.959  0.9621 -0.6233 -0.6313
 4747TIP3   OH214204   3.827   4.337   1.337  0.1943 -0.2145 -0.2509
 4747TIP3    H114205   3.746   4.299   1.301 -0.7114  1.4671 -0.1022
 4747TIP3    H214206   3.849   4.281   1.411 -0.2956 -1.2426 -0.8502
 4748TIP3   OH214207   5.456   3.658   2.392 -0.1880 -0.0710  0.4193
 4748TIP3    H114208   5.430   3.713   2.318 -0.1722 -0.1478  0.3572
 4748TIP3    H214209   5.387   3.672   2.457 -0.1233  0.1144  0.4508
 4749TIP3   OH214210   1.914   1.844   0.973  0.1737 -0.1008  0.0086
 4749TIP3    H114211   1.887   1.756   1.000  0.2922 -1.1186 -2.8659
 4749TIP3    H214212   2.004   1.852   1.007  0.0412 -0.9435  0.6030
 4750TIP3   OH214213   1.534   3.765   0.841 -0.1257 -0.5877 -0.1983
 4750TIP3    H114214   1.541   3.703   0.768  0.4749 -0.4278 -0.2778
 4750TIP3    H214215   1.513   3.710   0.917 -1.9125 -0.6464 -0.6790
 4751TIP3   OH214216   4.797   3.748   1.889  0.1200  0.1276 -0.4583
 4751TIP3    H114217   4.765   3.782   1.806 -0.3124 -0.3593 -0.5013
 4751TIP3    H214218   4.760   3.659   1.894  0.4486  0.0157  0.0759
 4752TIP3   OH214219   4.103   2.600   1.625  0.2403  0.3578 -0.3938
 4752TIP3    H114220   4.092   2.642   1.539  0.6029 -0.8485 -1.0525
 4752TIP3    H214221   4.171   2.534   1.611  0.3816  0.2139  0.8603
 4753TIP3   OH214222   5.944   1.861   3.848 -0.0289  0.1079 -0.4803
 4753TIP3    H114223   6.007   1.877   3.777  0.9482  0.6199  0.4702
 4753TIP3    H214224   5.861   1.892   3.813  0.5296  0.8472 -1.2192
 4754TIP3   OH214225   1.484   3.625   2.097  0.7705  0.0902 -0.5501
 4754TIP3    H114226   1.545   3.698   2.113  1.4862 -0.9077  1.7973
 4754TIP3    H214227   1.512   3.588   2.013  1.5268  1.4200 -0.9165
 4755TIP3   OH214228   4.929   6.298   4.993 -0.0374  0.2804 -0.1701
 4755TIP3    H114229   5.012   6.264   4.961 -0.5462 -0.4909 -0.6961
 4755TIP3    H214230   4.928   6.276   5.086  1.3710  2.3728  0.4184
 4756TIP3   OH214231   5.914   2.927   5.233  0.1966  0.5172  0.3893
 4756TIP3    H114232   5.949   3.009   5.199 -2.0696  1.0058 -0.9397
 4756TIP3    H214233   5.874   2.950   5.317  1.3096  0.3263  0.9949
 4757TIP3   OH214234   1.226   0.910   4.173  0.2144  0.1033  0.1649
 4757TIP3    H114235   1.280   0.938   4.099  0.6862 -0.9846  0.0681
 4757TIP3    H214236   1.277   0.840   4.214 -0.1300  0.5597  1.4119
 4758TIP3   OH214237   3.707   2.715   3.180  0.1328 -0.2135 -0.1953
 4758TIP3    H114238   3.696   2.734   3.273  0.3984  0.6743 -0.3355
 4758TIP3    H214239   3.619   2.720   3.143  0.2575  1.4949 -0.3481
 4759TIP3   OH214240   5.069   6.466   5.661 -0.1315 -0.3107 -0.0832
 4759TIP3    H114241   5.092   6.439   5.751  0.7792  0.2053 -0.1457
 4759TIP3    H214242   4.985   6.511   5.670 -1.5698 -2.8248  0.0712
 4760TIP3   OH214243   1.938   3.423   3.875 -0.3744 -0.2198 -0.3319
 4760TIP3    H114244   1.904   3.416   3.964  1.2175 -0.5528  0.2704
 4760TIP3    H214245   1.911   3.342   3.832 -0.8095 -0.2291 -0.0498
 4761TIP3   OH214246   2.142   6.195   2.944  0.1228  0.4539  0.1075
 4761TIP3    H114247   2.081   6.254   2.989 -1.1071 -0.4165 -0.3749
 4761TIP3    H214248   2.164   6.128   3.009 -0.4947  0.0213 -0.1246
 4762TIP3   OH214249   0.507   3.707   4.190 -0.1806  0.1031 -0.0982
 4762TIP3    H114250   0.537   3.617   4.175 -0.7969 -0.2712  0.8262
 4762TIP3    H214251   0.500   3.714   4.285  0.3288  1.2944 -0.1303
 4763TIP3   OH214252   2.608   2.194   4.070 -0.2405 -0.1896  0.0572
 4763TIP3    H114253   2.680   2.201   4.008 -1.4318 -0.5530 -1.4536
 4763TIP3    H214254   2.632   2.121   4.127  2.1867  1.9034  1.9318
 4764TIP3   OH214255   5.033   0.841   3.745 -0.3259  1.0390  0.1461
 4764TIP3    H114256   4.993   0.928   3.740 -1.2122  0.5954 -1.0578
 4764TIP3    H214257   5.125   0.856   3.724 -0.7955  1.5028 -1.8480
 4765TIP3   OH214258   1.411   3.306   2.613  0.1630 -0.0901  0.3012
 4765TIP3    H114259   1.390   3.243   2.683  0.5348 -0.1819  0.3299
 4765TIP3    H214260   1.400   3.391   2.654 -1.0057 -0.1161  0.0749
 4766TIP3   OH214261   3.105   2.337   0.949 -0.0239 -0.0988  0.0556
 4766TIP3    H114262   3.060   2.407   0.997 -2.5147 -1.4396 -0.2017
 4766TIP3    H214263   3.103   2.262   1.008  1.4080 -0.3752 -0.2083
 4767TIP3   OH214264   1.640   3.477   0.741 -0.2576 -0.2207 -0.0072
 4767TIP3    H114265   1.644   3.384   0.765 -0.6540 -0.7869 -1.9454
 4767TIP3    H214266   1.702   3.485   0.668  0.1201  1.1481  0.4559
 4768TIP3   OH214267   2.240   5.154   4.592  0.3631  0.2892 -0.2504
 4768TIP3    H114268   2.313   5.176   4.534  0.4876 -0.1265 -0.2601
 4768TIP3    H214269   2.188   5.091   4.542  1.0737 -0.9361  0.4899
 4769TIP3   OH214270   1.239   2.075   1.238  0.1661 -0.4095 -0.4856
 4769TIP3    H114271   1.197   2.121   1.165  0.8611  0.6941 -0.2227
 4769TIP3    H214272   1.166   2.051   1.296 -0.2073  0.6673 -0.4778
 4770TIP3   OH214273   4.431   3.641   0.857  0.2235 -0.3505  0.0672
 4770TIP3    H114274   4.373   3.704   0.900  0.1117  0.4451 -1.2236
 4770TIP3    H214275   4.488   3.609   0.928 -0.0946  0.7550  0.8467
 4771TIP3   OH214276   5.134   3.304   3.684 -0.0920  0.2314 -0.2489
 4771TIP3    H114277   5.143   3.383   3.738  0.0245 -0.7584  1.2326
 4771TIP3    H214278   5.219   3.296   3.641 -0.5209  1.5910 -1.4102
 4772TIP3   OH214279   5.131   6.247   4.238  0.2969 -0.4405  0.4012
 4772TIP3    H114280   5.100   6.335   4.219 -2.5584 -1.3652  0.2482
 4772TIP3    H214281   5.153   6.210   4.153  2.2639  0.3159  0.5356
 4773TIP3   OH214282   4.514   6.023   0.969 -0.3636  0.0690  0.1038
 4773TIP3    H114283   4.561   5.957   1.020  0.0414 -0.3564 -0.8075
 4773TIP3    H214284   4.553   6.106   0.995 -0.2434 -0.1314  0.5763
 4774TIP3   OH214285   3.937   2.830   0.028  0.3123 -0.6249  0.1407
 4774TIP3    H114286   3.856   2.800   0.070  0.0899  0.4668  0.5510
 4774TIP3    H214287   3.940   2.785  -0.056 -1.9157  0.9502 -0.8898
 4775TIP3   OH214288   1.519   2.724   2.789 -0.8848 -0.9091 -0.0748
 4775TIP3    H114289   1.489   2.778   2.862  1.0154 -0.3385  0.3156
 4775TIP3    H214290   1.524   2.635   2.825  0.2866 -0.5866  0.5699
 4776TIP3   OH214291   6.440   5.272   0.196 -0.5603  0.0506 -0.6024
 4776TIP3    H114292   6.394   5.317   0.267  2.0539  0.5662  0.8760
 4776TIP3    H214293   6.395   5.188   0.188 -2.3131  0.8765  0.1009
 4777TIP3   OH214294   2.543   2.972   4.685 -0.2324 -0.1319 -0.2041
 4777TIP3    H114295   2.518   3.060   4.714  0.7891 -0.3872  1.6413
 4777TIP3    H214296   2.563   2.925   4.766 -1.7812 -2.4414 -1.0385
 4778TIP3   OH214297   4.035   6.416   5.369 -0.3953 -0.2150 -0.4697
 4778TIP3    H114298   3.980   6.349   5.408 -0.5271  0.0580 -0.1784
 4778TIP3    H214299   4.084   6.453   5.442  0.4501 -0.7021 -0.7761
 4779TIP3   OH214300   2.477   2.452   4.725  0.5596  0.1412 -0.2234
 4779TIP3    H114301   2.552   2.436   4.669  0.6474  1.5003 -0.5168
 4779TIP3    H214302   2.515   2.466   4.812  0.4653 -1.3558  0.0885
 4780TIP3   OH214303   3.692   2.174   4.340  0.0707  0.1805 -0.8368
 4780TIP3    H114304   3.668   2.259   4.377 -0.4573  0.0193 -0.7997
 4780TIP3    H214305   3.776   2.190   4.296  0.7534  0.3638  0.4715
 4781TIP3   OH214306   3.747   6.070   3.297 -0.2894  0.3141 -0.0323
 4781TIP3    H114307   3.827   6.018   3.288 -0.4393  0.0578  0.1005
 4781TIP3    H214308   3.719   6.056   3.388 -1.3668 -0.8879 -0.5231
 4782TIP3   OH214309   1.385   1.716   0.077  0.8152 -0.4394 -0.5586
 4782TIP3    H114310   1.303   1.681   0.113 -0.0983  0.1506 -1.9684
 4782TIP3    H214311   1.454   1.673   0.128 -0.3706  0.0272  1.5457
 4783TIP3   OH214312   4.035   6.406   1.153 -0.2817 -0.0390 -0.4354
 4783TIP3    H114313   4.121   6.366   1.159  0.5787  1.7172 -0.4774
 4783TIP3    H214314   4.002   6.403   1.243  0.9491  1.5799  0.1119
 4784TIP3   OH214315   5.544   3.887   0.213 -0.2706 -0.2963  0.3008
 4784TIP3    H114316   5.561   3.956   0.149 -0.4599 -0.9436 -0.4706
 4784TIP3    H214317   5.600   3.815   0.185 -1.9998 -1.3964 -0.5105
 4785TIP3   OH214318   0.727   3.959   4.229 -0.3869 -0.4309  0.0204
 4785TIP3    H114319   0.665   3.916   4.171 -0.9766 -0.4445  0.6443
 4785TIP3    H214320   0.760   4.033   4.178 -0.1456 -1.0093 -0.6811
 4786TIP3   OH214321   2.896   6.110   2.908  0.3212 -0.7860  0.4387
 4786TIP3    H114322   2.956   6.156   2.967  0.6328 -0.4011 -0.1674
 4786TIP3    H214323   2.954   6.064   2.847  0.1146  1.8974 -2.0054
 4787TIP3   OH214324   0.658   0.659   3.559  0.1475  0.6578  0.2717
 4787TIP3    H114325   0.708   0.583   3.531  0.0190  0.4282  0.6641
 4787TIP3    H214326   0.713   0.701   3.626 -0.2042  0.3731  0.7451
 4788TIP3   OH214327   3.093   3.254   0.633  0.1385  0.0698  0.0875
 4788TIP3    H114328   3.144   3.174   0.623 -0.0166 -0.1365  0.8928
 4788TIP3    H214329   3.102   3.277   0.725 -2.2071 -0.6226  0.5419
 4789TIP3   OH214330   6.482   6.019   4.333  0.0367  0.2854  0.1755
 4789TIP3    H114331   6.523   5.942   4.293  0.4249  0.1953  0.7321
 4789TIP3    H214332   6.539   6.041   4.407  1.5795  2.8066 -1.5835
 4790TIP3   OH214333   2.736   1.916   3.364  0.0743 -0.7507  0.3031
 4790TIP3    H114334   2.669   1.978   3.336 -0.1618 -0.3683  1.6444
 4790TIP3    H214335   2.694   1.864   3.433  0.8004 -1.2565  0.3814
 4791TIP3   OH214336   4.017   2.496   2.797  0.4923 -0.4691  0.9816
 4791TIP3    H114337   4.035   2.497   2.703 -0.2440 -1.3805  0.8185
 4791TIP3    H214338   3.982   2.584   2.815  0.8082 -0.2242  0.4466
 4792TIP3   OH214339   4.900   6.731   0.187 -0.3825 -0.0026  0.0568
 4792TIP3    H114340   4.928   6.658   0.242  0.4556  1.3015  1.4361
 4792TIP3    H214341   4.981   6.781   0.171 -1.1949  1.5727  0.6317
 4793TIP3   OH214342   0.465   2.215   5.709  0.2748 -0.2295  0.1520
 4793TIP3    H114343   0.511   2.143   5.753 -0.8717  0.8362  3.4338
 4793TIP3    H214344   0.523   2.290   5.720 -0.9138  0.5049  1.8206
 4794TIP3   OH214345   6.572   3.441   2.471 -0.4125 -0.1231  0.6139
 4794TIP3    H114346   6.541   3.506   2.534  1.3730  0.6940  0.7101
 4794TIP3    H214347   6.668   3.447   2.476 -0.1670 -2.7398  0.6091
 4795TIP3   OH214348   0.104   0.979   4.235  0.0181 -0.1320 -0.0019
 4795TIP3    H114349   0.176   1.035   4.265  0.1567 -0.9300  1.2209
 4795TIP3    H214350   0.117   0.897   4.282  0.4920 -1.6511 -2.5553
 4796TIP3   OH214351   5.132   4.700   2.431  0.2254 -0.1131 -1.0260
 4796TIP3    H114352   5.191   4.700   2.506  0.3712 -1.0659 -1.1273
 4796TIP3    H214353   5.053   4.744   2.462 -0.4200 -2.0993  0.2586
 4797TIP3   OH214354   5.128   5.760   1.623 -0.0992 -0.3989  0.2497
 4797TIP3    H114355   5.184   5.704   1.678  0.2033  0.4268  0.7958
 4797TIP3    H214356   5.078   5.698   1.569  1.6335 -1.1498 -0.5645
 4798TIP3   OH214357   6.130   3.548   2.326  0.3087  0.1494  0.0990
 4798TIP3    H114358   6.041   3.528   2.298  0.4382 -0.9868  0.4206
 4798TIP3    H214359   6.119   3.593   2.410  0.0256  0.4563 -0.1003
 4799TIP3   OH214360   4.392   0.241   2.178  0.8581 -0.7201 -0.7408
 4799TIP3    H114361   4.405   0.310   2.242 -0.5527 -1.7275  0.7310
 4799TIP3    H214362   4.475   0.193   2.177  0.4755 -1.5423  1.4597
 4800TIP3   OH214363   3.911   2.551   1.990 -0.3243  0.2407  0.6212
 4800TIP3    H114364   3.855   2.626   1.969 -0.7186  0.0695  1.0469
 4800TIP3    H214365   3.993   2.570   1.945 -0.5799  0.6996  0.3354
 4801TIP3   OH214366   3.967   2.823   1.092 -0.0178  0.5723  0.3706
 4801TIP3    H114367   3.959   2.916   1.115 -1.4413  0.3664  0.8036
 4801TIP3    H214368   3.900   2.809   1.025  1.7621  0.3622 -1.4727
 4802TIP3   OH214369   5.874   6.558   2.973  0.3351 -0.2282  0.3800
 4802TIP3    H114370   5.890   6.631   3.033 -1.1789 -0.6647  1.3635
 4802TIP3    H214371   5.892   6.480   3.025 -0.1578 -0.5997  0.0074
 4803TIP3   OH214372   5.931   3.305   1.257  0.2813  0.4573  0.1588
 4803TIP3    H114373   5.920   3.245   1.331 -1.3158 -1.7328 -1.6892
 4803TIP3    H214374   5.842   3.334   1.238  0.6957  1.1134 -0.8034
 4804TIP3   OH214375   0.444   3.232   4.629  0.1528 -0.2703 -0.3525
 4804TIP3    H114376   0.514   3.291   4.600  0.4413 -0.5884 -0.3082
 4804TIP3    H214377   0.373   3.290   4.655  0.7844  0.0968  0.6124
 4805TIP3   OH214378   5.978   4.660   0.179  0.7546 -0.1339  0.5436
 4805TIP3    H114379   5.896   4.667   0.130  0.7137 -0.2659  0.5930
 4805TIP3    H214380   6.007   4.751   0.190  0.1938 -0.0309  1.2407
 4806TIP3   OH214381   6.756   4.481   3.824  0.9015 -0.0141  0.1615
 4806TIP3    H114382   6.665   4.464   3.800  0.8178  1.4057 -0.6874
 4806TIP3    H214383   6.751   4.517   3.913  0.8139 -1.4795  0.7706
 4807TIP3   OH214384   0.529   4.007   0.042 -0.0987  0.4591 -0.1655
 4807TIP3    H114385   0.554   3.971  -0.043  1.2480 -0.4190  0.5777
 4807TIP3    H214386   0.567   4.094   0.044 -0.3815  0.5949 -0.5645
 4808TIP3   OH214387   4.920   0.098   3.929 -0.9057 -0.1562  0.1478
 4808TIP3    H114388   4.950   0.013   3.961 -1.1016 -1.1631 -2.1508
 4808TIP3    H214389   4.855   0.126   3.993  0.8489 -0.5749  2.2187
 4809TIP3   OH214390   0.116   3.480   2.524 -0.0845 -0.3032 -0.1061
 4809TIP3    H114391   0.046   3.467   2.589  0.1430 -0.8175  0.0438
 4809TIP3    H214392   0.179   3.538   2.569 -0.5584  0.4188 -0.3576
 4810TIP3   OH214393   7.178   2.630   0.032 -0.2190 -0.1419  0.1092
 4810TIP3    H114394   7.126   2.559  -0.004 -1.1981  0.1518  0.8975
 4810TIP3    H214395   7.145   2.709  -0.010 -1.4154  0.2105  1.6272
 4811TIP3   OH214396   5.870   2.170   1.781  0.5505  0.2181 -0.0856
 4811TIP3    H114397   5.892   2.259   1.752 -0.9173  0.5252 -0.3220
 4811TIP3    H214398   5.866   2.119   1.700  0.1545  0.2231 -0.0701
 4812TIP3   OH214399   5.231   0.946   1.380 -0.6059  0.0317 -0.3827
 4812TIP3    H114400   5.232   1.036   1.349 -0.3552  0.4891  0.8911
 4812TIP3    H214401   5.145   0.937   1.424 -1.2662 -0.8210 -1.7923
 4813TIP3   OH214402   6.553   1.520   5.683  0.4169 -0.0584 -0.2649
 4813TIP3    H114403   6.594   1.449   5.633  0.1353  0.9342 -1.9882
 4813TIP3    H214404   6.625   1.578   5.707  0.3362  0.4725 -1.2553
 4814TIP3   OH214405   6.215   1.170   5.701  0.0549 -0.0335  0.2165
 4814TIP3    H114406   6.302   1.196   5.730  0.9462  1.4567 -3.2029
 4814TIP3    H214407   6.155   1.231   5.745  1.1417  1.2599 -0.0209
 4815TIP3   OH214408   3.833   3.911   2.612 -0.0163  0.2006 -0.1733
 4815TIP3    H114409   3.927   3.913   2.631 -0.2728 -0.4400  1.3136
 4815TIP3    H214410   3.805   3.823   2.638 -1.0109  0.3220 -0.7680
 4816TIP3   OH214411   7.152   3.531   1.262  0.0698 -0.1040 -0.0047
 4816TIP3    H114412   7.235   3.550   1.219 -0.3779  0.3222 -0.7063
 4816TIP3    H214413   7.131   3.441   1.236  0.3798 -0.2657  0.2973
 4817TIP3   OH214414   5.583   1.515   1.369  0.8074 -0.0951 -0.0582
 4817TIP3    H114415   5.605   1.555   1.285 -1.2856  2.7533  0.6046
 4817TIP3    H214416   5.664   1.517   1.419  1.1570  2.1143 -0.6067
 4818TIP3   OH214417   4.239   3.174   0.065 -0.5749  0.8461 -0.7624
 4818TIP3    H114418   4.202   3.155  -0.021 -0.1345 -1.3062 -0.5303
 4818TIP3    H214419   4.163   3.182   0.123 -0.8158  0.8160 -1.0732
 4819TIP3   OH214420   0.791   3.849   5.650  0.3391 -0.0405 -0.6867
 4819TIP3    H114421   0.816   3.757   5.648  1.3423  0.2155 -1.8434
 4819TIP3    H214422   0.853   3.889   5.711  1.2355  0.1722 -1.6884
 4820TIP3   OH214423   3.955   4.588   0.991 -0.6107 -0.0479  0.3967
 4820TIP3    H114424   3.873   4.552   0.959 -1.9193  2.2121  0.9943
 4820TIP3    H214425   3.969   4.667   0.940  2.0444 -1.1166 -0.7244
 4821TIP3   OH214426   1.037   3.112   2.538  0.7244  0.2827  0.5084
 4821TIP3    H114427   1.059   3.082   2.627  1.2029  0.6832  0.5259
 4821TIP3    H214428   1.117   3.099   2.488  0.6082  0.5338  0.2571
 4822TIP3   OH214429   2.003   6.359   4.562  0.2859 -0.8245 -0.1460
 4822TIP3    H114430   2.071   6.322   4.619  0.0764 -0.9468  0.0234
 4822TIP3    H214431   1.921   6.338   4.606  0.1269 -0.8650 -0.4617
 4823TIP3   OH214432   3.617   3.804   1.757 -0.2059  0.3739  0.4578
 4823TIP3    H114433   3.673   3.827   1.831 -1.9849  0.8228  1.7489
 4823TIP3    H214434   3.644   3.863   1.687  0.6051  0.9074  1.1964
 4824TIP3   OH214435   0.606   2.604   0.030  0.2053  0.2340  0.3726
 4824TIP3    H114436   0.622   2.697   0.011  1.9162 -0.1571 -0.2543
 4824TIP3    H214437   0.686   2.574   0.072 -0.6246 -0.7925  1.2778
 4825TIP3   OH214438   4.029   6.727   1.543 -0.4186  0.4052  0.4736
 4825TIP3    H114439   4.046   6.719   1.449 -1.7884 -0.9140  0.2975
 4825TIP3    H214440   3.972   6.804   1.550 -0.5814  0.3130  0.1811
 4826TIP3   OH214441   4.793   5.273   1.937  0.1915  0.1653 -0.7008
 4826TIP3    H114442   4.872   5.228   1.906  0.6520  0.5529 -0.1077
 4826TIP3    H214443   4.757   5.215   2.004  0.1238  0.1149 -0.7811
 4827TIP3   OH214444   0.074   6.289   0.392 -0.1399  0.0745 -0.0593
 4827TIP3    H114445   0.144   6.228   0.368  0.9103  0.4934  1.7515
 4827TIP3    H214446   0.058   6.339   0.312 -0.5661 -2.0776 -1.3998
 4828TIP3   OH214447   0.628   3.656   2.611  0.0154  0.3914 -0.3780
 4828TIP3    H114448   0.593   3.621   2.529 -1.2321  1.4067 -0.3061
 4828TIP3    H214449   0.661   3.743   2.588  2.6899 -0.5412 -0.4629
 4829TIP3   OH214450   2.978   3.510   5.397  0.0519 -0.2942  0.0018
 4829TIP3    H114451   2.895   3.554   5.378 -0.8072 -1.6404  0.4946
 4829TIP3    H214452   3.024   3.507   5.312 -1.0690 -0.8669 -0.6014
 4830TIP3   OH214453   0.912   4.744   0.881  0.3471 -0.8715  0.8450
 4830TIP3    H114454   0.852   4.802   0.929 -0.2949 -1.5730  0.9173
 4830TIP3    H214455   0.857   4.671   0.853  0.6306 -0.3572 -1.2282
 4831TIP3   OH214456   2.642   0.759   0.659  0.4808  0.2197  0.1775
 4831TIP3    H114457   2.701   0.685   0.670  0.0080 -0.1884  0.0446
 4831TIP3    H214458   2.559   0.730   0.697  0.2929  0.6853  0.1366
 4832TIP3   OH214459   0.977   6.024   2.692  0.4407  0.0408  0.3282
 4832TIP3    H114460   0.888   6.020   2.729  0.0644 -1.6016 -0.6154
 4832TIP3    H214461   0.979   6.105   2.641 -1.0867 -0.6271 -0.8908
 4833TIP3   OH214462   5.656   0.329   1.194 -0.1464  0.1804 -0.3777
 4833TIP3    H114463   5.748   0.323   1.167 -0.6885 -1.2704 -2.1199
 4833TIP3    H214464   5.610   0.353   1.114 -1.3563  0.2274  0.3222
 4834TIP3   OH214465   4.337   6.750   4.282 -0.3366  0.5120 -0.5919
 4834TIP3    H114466   4.274   6.794   4.225  0.4369 -0.2400 -2.0475
 4834TIP3    H214467   4.423   6.777   4.249  0.1377 -1.0462 -0.6699
 4835TIP3   OH214468   4.461   3.942   3.609  0.3776  0.0771 -0.0231
 4835TIP3    H114469   4.456   4.008   3.677 -1.1891 -0.1611  0.1401
 4835TIP3    H214470   4.408   3.977   3.537 -0.8315 -1.1437  0.2287
 4836TIP3   OH214471   6.886   6.182   3.314  0.4698  0.2660 -0.1047
 4836TIP3    H114472   6.804   6.171   3.362  0.8180 -1.0187  0.2181
 4836TIP3    H214473   6.887   6.275   3.290 -1.4824  0.1231 -0.8719
 4837TIP3   OH214474   3.107   3.443   0.200  0.6511 -0.1337  1.3231
 4837TIP3    H114475   3.190   3.404   0.174  0.7302  0.2793  0.9485
 4837TIP3    H214476   3.123   3.478   0.288  1.1544  0.7588  0.8918
 4838TIP3   OH214477   7.156   0.191   2.142 -0.2752 -0.2113 -0.0933
 4838TIP3    H114478   7.102   0.175   2.064 -1.7056  0.6191  0.6730
 4838TIP3    H214479   7.096   0.235   2.203  1.8163  2.6978  0.0638
 4839TIP3   OH214480   0.727   4.853   0.176  0.0999  0.1811 -0.3524
 4839TIP3    H114481   0.782   4.780   0.206  1.3618  2.0152  2.1985
 4839TIP3    H214482   0.639   4.831   0.206  0.5825 -0.0033  0.9644
 4840TIP3   OH214483   2.910   3.843   0.590 -0.4796 -0.6396  0.0700
 4840TIP3    H114484   2.882   3.934   0.577  0.4581  0.4509  4.2479
 4840TIP3    H214485   2.984   3.833   0.530 -0.1646  1.6171 -0.0316
 4841TIP3   OH214486   0.136   2.963   2.306  0.1830 -0.0100  0.4199
 4841TIP3    H114487   0.205   2.909   2.266 -0.3154 -0.0375 -0.4229
 4841TIP3    H214488   0.148   2.951   2.400  1.2668 -0.0940  0.2831
 4842TIP3   OH214489   1.891   1.763   5.429  0.4977  0.0352 -0.5318
 4842TIP3    H114490   1.847   1.846   5.410 -0.0112 -0.1979 -0.3890
 4842TIP3    H214491   1.827   1.713   5.479  0.3603 -0.8966 -1.5974
 4843TIP3   OH214492   2.421   6.101   1.976  0.1147 -0.3296 -0.3713
 4843TIP3    H114493   2.340   6.113   2.026  0.3512 -0.4441  0.0517
 4843TIP3    H214494   2.474   6.043   2.031  0.5409 -0.1336 -0.5714
 4844TIP3   OH214495   3.114   1.679   3.625 -0.1510  0.1024 -0.1567
 4844TIP3    H114496   3.028   1.711   3.597 -0.4233  0.7935  1.3845
 4844TIP3    H214497   3.145   1.627   3.551 -1.7251  0.1490 -0.8907
 4845TIP3   OH214498   5.087   4.339   5.915  0.2107 -0.0890  0.5450
 4845TIP3    H114499   5.133   4.390   5.848  0.3795 -0.4162  0.4085
 4845TIP3    H214500   5.045   4.268   5.866  1.0630 -0.8432  0.8857
 4846TIP3   OH214501   4.455   6.282   2.382  0.1229  0.1194  0.0413
 4846TIP3    H114502   4.490   6.283   2.471 -1.9439  0.0079  0.9126
 4846TIP3    H214503   4.440   6.374   2.361 -1.0833  0.0686  0.5673
 4847TIP3   OH214504   2.842   0.739   1.356  0.1747  0.1920 -1.1206
 4847TIP3    H114505   2.822   0.674   1.289  0.3271 -1.6996  0.5600
 4847TIP3    H214506   2.885   0.689   1.426  1.1783  2.2876 -0.1327
 4848TIP3   OH214507   3.222   3.058   1.685 -0.2726  0.1454 -0.4266
 4848TIP3    H114508   3.265   3.037   1.768  1.8628 -1.8633 -1.8765
 4848TIP3    H214509   3.288   3.108   1.637 -2.3237  3.3710 -0.1690
 4849TIP3   OH214510   6.175   3.057   3.937  0.6521 -0.6362  0.0231
 4849TIP3    H114511   6.086   3.086   3.957  1.0114 -0.0945  0.9219
 4849TIP3    H214512   6.166   3.004   3.858 -0.1755  1.1527 -1.1468
 4850TIP3   OH214513   4.113   0.423   4.306 -0.1922  0.4243 -0.1503
 4850TIP3    H114514   4.105   0.464   4.392  0.5525  2.0378 -0.7949
 4850TIP3    H214515   4.081   0.334   4.318 -1.3652  1.0173  1.4813
 4851TIP3   OH214516   0.244   0.839   2.125  0.0994  0.2694  0.0481
 4851TIP3    H114517   0.205   0.757   2.156 -1.4183  1.6777  2.0821
 4851TIP3    H214518   0.187   0.867   2.053  1.4231 -1.0737 -1.6156
 4852TIP3   OH214519   6.004   6.781   0.560  0.1645  0.0457 -0.3840
 4852TIP3    H114520   5.919   6.736   0.565  1.3522 -2.3657 -0.2583
 4852TIP3    H214521   6.036   6.759   0.472  0.4716  1.3386 -0.6044
 4853TIP3   OH214522   0.888   3.824   0.693  0.5217  0.3514  0.0095
 4853TIP3    H114523   0.883   3.910   0.736  0.6390 -0.3192  1.4093
 4853TIP3    H214524   0.857   3.762   0.758 -0.3469 -0.6117 -1.2698
 4854TIP3   OH214525   4.303   0.186   4.019 -0.8707  0.0013 -0.3358
 4854TIP3    H114526   4.277   0.257   4.078 -3.3203 -0.2062 -1.0226
 4854TIP3    H214527   4.282   0.106   4.068  0.5095 -0.2450 -0.1246
 4855TIP3   OH214528   3.750   5.301   4.956 -0.2423 -0.2440  0.0899
 4855TIP3    H114529   3.775   5.392   4.942  1.0809 -0.6062 -0.0987
 4855TIP3    H214530   3.812   5.269   5.022 -1.6822 -0.6028  1.3196
 4856TIP3   OH214531   2.427   3.034   3.498  0.0332  0.4936  0.1536
 4856TIP3    H114532   2.332   3.022   3.498  0.0659  0.0492 -0.9912
 4856TIP3    H214533   2.448   3.062   3.409  0.9764  0.5897  0.3875
 4857TIP3   OH214534   4.952   1.052   5.644  0.3297 -0.2218 -0.3075
 4857TIP3    H114535   4.907   1.015   5.721 -1.8310  0.7328 -1.0467
 4857TIP3    H214536   5.045   1.051   5.668 -0.1851 -0.9470  1.8770
 4858TIP3   OH214537   5.978   5.370   0.422  0.0805  0.2720  0.0221
 4858TIP3    H114538   5.896   5.397   0.380 -1.5880 -1.9866  1.5673
 4858TIP3    H214539   5.969   5.399   0.512  0.7847 -0.3634  0.3046
 4859TIP3   OH214540   5.902   4.080   0.432 -0.7541 -0.3182  0.2332
 4859TIP3    H114541   5.944   4.136   0.366 -0.3444 -1.1432 -0.2140
 4859TIP3    H214542   5.884   4.140   0.505 -1.1225  0.5844 -0.5699
 4860TIP3   OH214543   5.446   6.305   1.545 -0.2248 -0.3126  0.4953
 4860TIP3    H114544   5.482   6.289   1.632  1.0476 -0.1566  0.0229
 4860TIP3    H214545   5.480   6.391   1.520 -1.4228  0.1150  0.2476
 4861TIP3   OH214546   2.542   4.713   5.271 -0.0213  0.3977 -0.4166
 4861TIP3    H114547   2.622   4.661   5.275  0.1355  0.7244  0.9496
 4861TIP3    H214548   2.564   4.786   5.213  0.2234 -0.2342 -1.1449
 4862TIP3   OH214549   2.043   5.864   1.771 -0.1567 -0.7272 -0.1036
 4862TIP3    H114550   2.049   5.907   1.685  1.3046 -0.5664  0.0491
 4862TIP3    H214551   2.128   5.821   1.782  0.3896  0.7240  2.0141
 4863TIP3   OH214552   7.071   2.070   5.474  0.3416 -0.3126  0.2680
 4863TIP3    H114553   6.977   2.065   5.456  0.5692  1.3382 -1.8020
 4863TIP3    H214554   7.110   2.005   5.417  0.5081 -0.5103  0.6079
 4864TIP3   OH214555   1.887   3.627   4.544  0.3984 -0.3547  0.6003
 4864TIP3    H114556   1.854   3.538   4.538  2.4435 -1.0925 -1.8745
 4864TIP3    H214557   1.817   3.682   4.509 -0.5562 -1.0555  1.3709
 4865TIP3   OH214558   5.578   0.368   5.763  0.0033  0.1747  0.2067
 4865TIP3    H114559   5.524   0.430   5.715 -0.1635 -0.3780 -0.3262
 4865TIP3    H214560   5.543   0.282   5.741  0.0495 -0.1066  1.1564
 4866TIP3   OH214561   6.960   1.449   3.409  0.6740  0.0901  0.6134
 4866TIP3    H114562   7.051   1.445   3.380 -0.2542  0.6227 -2.8439
 4866TIP3    H214563   6.956   1.525   3.467  2.4770 -0.3039  1.3262
 4867TIP3   OH214564   3.997   2.361   3.786  0.8300  0.2684  0.2901
 4867TIP3    H114565   4.034   2.388   3.871 -0.3069  0.8321  0.6345
 4867TIP3    H214566   4.009   2.438   3.730  0.6261  0.2820  0.2645
 4868TIP3   OH214567   0.744   2.316   1.919  0.0795  0.1434 -0.2767
 4868TIP3    H114568   0.755   2.407   1.947  1.0492  1.1657 -3.6149
 4868TIP3    H214569   0.819   2.270   1.957  0.7030  1.1706 -0.2301
 4869TIP3   OH214570   3.786   1.634   2.206  0.2148 -0.0594  0.7266
 4869TIP3    H114571   3.843   1.557   2.212  0.9882  0.5130  1.0546
 4869TIP3    H214572   3.845   1.707   2.226  0.1124  0.8982 -2.1250
 4870TIP3   OH214573   1.742   3.262   1.361  0.0975  0.0645  0.3996
 4870TIP3    H114574   1.704   3.285   1.446  1.7370  1.4944  0.7878
 4870TIP3    H214575   1.832   3.235   1.381  0.5241  0.4763 -0.8935
 4871TIP3   OH214576   2.951   4.870   0.687  0.3315  0.7552  1.1262
 4871TIP3    H114577   2.969   4.881   0.780  0.8525  1.2370  0.9683
 4871TIP3    H214578   2.919   4.780   0.680  0.6683  0.5839  1.7075
 4872TIP3   OH214579   5.726   4.817   5.247 -0.3595 -0.1402  0.5221
 4872TIP3    H114580   5.668   4.786   5.177 -0.0905  1.4321 -0.4363
 4872TIP3    H214581   5.766   4.896   5.212  1.3448 -0.4324  1.6955
 4873TIP3   OH214582   3.314   1.409   3.286  0.2471  0.3559  0.4078
 4873TIP3    H114583   3.317   1.345   3.215 -2.7770 -0.2830  0.7151
 4873TIP3    H214584   3.326   1.494   3.242 -1.0702 -0.0611 -0.8627
 4874TIP3   OH214585   6.239   0.988   3.757 -0.6472 -0.4762  0.4070
 4874TIP3    H114586   6.281   0.906   3.782 -2.0396 -0.9226  1.4093
 4874TIP3    H214587   6.257   1.047   3.830 -1.3005 -0.5160  0.6079
 4875TIP3   OH214588   4.660   0.777   0.032  0.0987  0.2190 -0.5084
 4875TIP3    H114589   4.565   0.771   0.038 -0.0410  1.8727 -0.5942
 4875TIP3    H214590   4.678   0.774  -0.062  0.2282 -0.9257 -0.4666
 4876TIP3   OH214591   5.758   6.662   0.600  0.2011  0.4287 -0.4049
 4876TIP3    H114592   5.692   6.615   0.651  1.1885  1.0855  1.5708
 4876TIP3    H214593   5.715   6.682   0.517 -2.6646  2.1787  1.3501
 4877TIP3   OH214594   6.277   6.337   0.832  0.1640 -0.4884  1.0851
 4877TIP3    H114595   6.285   6.245   0.808 -1.4929 -0.2779 -0.5235
 4877TIP3    H214596   6.190   6.345   0.871  0.5298  0.3072  1.8000
 4878TIP3   OH214597   5.991   6.173   0.235 -0.2941  0.3807  0.0859
 4878TIP3    H114598   5.978   6.259   0.275  0.1809  0.3586  0.2961
 4878TIP3    H214599   5.988   6.189   0.141  1.6083  0.9286  0.0934
 4879TIP3   OH214600   0.717   1.285   3.899 -0.4072 -0.1182  0.2509
 4879TIP3    H114601   0.725   1.336   3.979  0.9709 -0.1484  0.1635
 4879TIP3    H214602   0.761   1.337   3.832  0.0200 -0.8946 -0.0898
 4880TIP3   OH214603   4.374   3.308   4.459 -0.4529  0.3028 -1.1688
 4880TIP3    H114604   4.429   3.386   4.470 -0.2600  0.1552 -1.0735
 4880TIP3    H214605   4.389   3.281   4.369  0.2515 -0.1961 -0.9159
 4881TIP3   OH214606   5.830   2.956   0.091 -0.2034 -0.6324 -0.7497
 4881TIP3    H114607   5.920   2.959   0.059 -0.7609 -1.4157 -2.5337
 4881TIP3    H214608   5.777   2.983   0.015 -1.4984 -0.5400  0.1516
 4882TIP3   OH214609   1.781   0.619   3.512  0.1956  0.1289 -0.1798
 4882TIP3    H114610   1.846   0.550   3.525  0.5541  0.8093  2.2621
 4882TIP3    H214611   1.824   0.681   3.452  2.4581  1.1921  2.3020
 4883TIP3   OH214612   0.064   2.296   0.475 -0.0650 -0.1024 -0.2118
 4883TIP3    H114613  -0.027   2.322   0.465 -0.1237 -0.6075 -1.1623
 4883TIP3    H214614   0.111   2.347   0.409  0.2474 -0.2737 -0.1276
 4884TIP3   OH214615   3.047   6.634   5.585 -0.0399  0.0268 -0.2110
 4884TIP3    H114616   3.019   6.664   5.499  3.1039  0.0780 -1.3511
 4884TIP3    H214617   3.089   6.549   5.568  0.9100  0.1839  1.1916
 4885TIP3   OH214618   6.332   4.776   5.549  0.2447 -0.1411 -0.3852
 4885TIP3    H114619   6.303   4.846   5.607 -0.9359 -0.7451 -0.2256
 4885TIP3    H214620   6.257   4.717   5.542 -0.2151  0.6150 -3.6226
 4886TIP3   OH214621   2.213   0.393   3.821 -0.3532 -0.0951 -0.0109
 4886TIP3    H114622   2.230   0.390   3.727 -0.0823  1.8754 -0.0506
 4886TIP3    H214623   2.118   0.389   3.828 -0.3770 -0.1853 -0.3708
 4887TIP3   OH214624   0.696   1.397   1.946  0.5076  0.1880  1.1741
 4887TIP3    H114625   0.697   1.448   1.865  2.1814  0.6296  1.4475
 4887TIP3    H214626   0.654   1.454   2.010  0.6537  0.4691  1.0197
 4888TIP3   OH214627   4.231   6.040   0.216 -0.5996 -0.4917  0.4962
 4888TIP3    H114628   4.287   5.976   0.260  0.4028  0.7272  1.0619
 4888TIP3    H214629   4.147   6.034   0.261 -0.3305 -0.9876  0.9401
 4889TIP3   OH214630   1.192   1.627   5.098 -0.2955 -0.0955 -0.0414
 4889TIP3    H114631   1.132   1.660   5.033  0.2988  1.0157 -0.0487
 4889TIP3    H214632   1.150   1.646   5.182 -0.1758  0.2515 -0.0585
 4890TIP3   OH214633   2.343   3.823   1.882 -0.1691  0.4094 -0.5564
 4890TIP3    H114634   2.283   3.749   1.869  0.4022  0.1671 -1.9890
 4890TIP3    H214635   2.308   3.892   1.826 -0.7839  1.3311  0.8846
 4891TIP3   OH214636   0.442   5.249   2.817 -0.2331 -0.3228 -0.2813
 4891TIP3    H114637   0.467   5.175   2.761 -0.5644 -0.7294  0.1002
 4891TIP3    H214638   0.524   5.276   2.858 -0.0297 -0.1753 -0.7785
 4892TIP3   OH214639   2.767   3.016   2.466 -0.0750  0.5954  0.3752
 4892TIP3    H114640   2.774   2.922   2.484  1.7240  0.4008 -0.9830
 4892TIP3    H214641   2.675   3.029   2.442 -0.7393 -0.4724  2.1559
 4893TIP3   OH214642   4.549   5.713   0.063 -0.0752  0.4915  0.9347
 4893TIP3    H114643   4.465   5.757   0.048 -0.4488 -0.2929  0.6844
 4893TIP3    H214644   4.585   5.757   0.140  0.3832  2.4036 -0.2868
 4894TIP3   OH214645   0.801   2.776   3.495  0.1748 -0.2936  0.2146
 4894TIP3    H114646   0.724   2.813   3.537  0.8500  0.0665  1.1825
 4894TIP3    H214647   0.832   2.708   3.555  0.5516 -0.5015 -0.2058
 4895TIP3   OH214648   3.811   6.673   2.513  0.0939 -0.0685 -0.3428
 4895TIP3    H114649   3.755   6.749   2.501 -1.3558 -1.2752 -1.5354
 4895TIP3    H214650   3.810   6.656   2.608 -2.2570 -0.5394 -0.4090
 4896TIP3   OH214651   2.075   6.229   0.020  0.0340 -0.1940  0.2372
 4896TIP3    H114652   2.120   6.283   0.085 -3.1463 -0.6183  3.0840
 4896TIP3    H214653   1.996   6.279  -0.002 -0.9119 -1.8268 -0.2286
 4897TIP3   OH214654   3.376   2.091   4.807 -0.1162 -0.1350  0.3547
 4897TIP3    H114655   3.319   2.065   4.880 -0.5425 -0.0776  0.0491
 4897TIP3    H214656   3.437   2.154   4.845  0.6292 -1.2098  1.0028
 4898TIP3   OH214657   2.566   2.941   1.763  0.1599 -0.2209  0.6821
 4898TIP3    H114658   2.515   2.990   1.828 -1.3034 -0.5773 -0.1613
 4898TIP3    H214659   2.520   2.857   1.756  0.5259 -0.3268 -0.5279
 4899TIP3   OH214660   4.890   5.933   0.643  0.4126 -0.0903  0.1351
 4899TIP3    H114661   4.860   5.992   0.574  2.2678  1.1059  0.2847
 4899TIP3    H214662   4.884   5.846   0.604  2.6738  0.6372 -2.1066
 4900TIP3   OH214663   0.603   3.835   0.510 -0.1524 -0.0248  0.1679
 4900TIP3    H114664   0.529   3.878   0.467  0.2431 -0.4159 -0.9570
 4900TIP3    H214665   0.663   3.906   0.530  0.7290 -0.0238 -2.1422
 4901TIP3   OH214666   4.161   0.314   5.282  0.1065 -0.3671  0.0214
 4901TIP3    H114667   4.088   0.254   5.265 -0.4068  0.0620  0.6518
 4901TIP3    H214668   4.147   0.343   5.372  0.8513  0.0154  0.0208
 4902TIP3   OH214669   0.364   2.792   0.566 -0.0128 -0.1820 -0.1889
 4902TIP3    H114670   0.330   2.834   0.487 -0.7229  0.8802  0.6578
 4902TIP3    H214671   0.448   2.836   0.582  1.7331 -2.5384 -2.0602
 4903TIP3   OH214672   1.742   6.260   4.397  0.1995  0.1851  0.8557
 4903TIP3    H114673   1.832   6.277   4.369 -0.2918  0.6385 -0.5277
 4903TIP3    H214674   1.690   6.325   4.350 -1.0191 -1.0264  0.4706
 4904TIP3   OH214675   6.191   6.119   3.824 -0.0812  0.2683  0.2464
 4904TIP3    H114676   6.104   6.079   3.815 -0.6986  1.7401 -0.6545
 4904TIP3    H214677   6.228   6.116   3.736  0.5007  0.2552  0.4924
 4905TIP3   OH214678   5.222   4.384   0.445  0.2715 -0.1076 -0.0831
 4905TIP3    H114679   5.150   4.444   0.469  1.2732  1.2484 -0.3512
 4905TIP3    H214680   5.250   4.347   0.529 -2.2284 -2.5192 -0.1595
 4906TIP3   OH214681   1.954   6.545   0.622  0.6587  0.2540 -0.0598
 4906TIP3    H114682   1.897   6.474   0.651  1.3768 -1.2686 -2.1789
 4906TIP3    H214683   1.901   6.596   0.561  0.9788 -0.0333 -0.5759
 4907TIP3   OH214684   6.826   4.473   3.121  0.1560  0.0079 -0.2662
 4907TIP3    H114685   6.828   4.462   3.216  0.4062 -1.4895 -0.4245
 4907TIP3    H214686   6.917   4.487   3.096  0.3420 -1.4463 -0.4634
 4908TIP3   OH214687   3.126   6.479   2.043  0.3593 -0.1162  0.2355
 4908TIP3    H114688   3.152   6.532   2.119 -1.6339  0.3391  0.6428
 4908TIP3    H214689   3.202   6.423   2.027  0.2352 -1.5137  3.6733
 4909TIP3   OH214690   3.170   5.371   0.217  0.2756 -0.2843 -0.3937
 4909TIP3    H114691   3.242   5.309   0.214  1.0957  0.2048  3.4134
 4909TIP3    H214692   3.094   5.319   0.244  0.7435  0.0477  1.8099
 4910TIP3   OH214693   6.180   1.402   3.240 -0.2573 -0.0996  0.0559
 4910TIP3    H114694   6.188   1.495   3.260  0.6968  0.0834 -1.0691
 4910TIP3    H214695   6.103   1.373   3.290 -0.8678  1.3916  0.0302
 4911TIP3   OH214696   0.877   4.194   3.089 -0.4800  0.5025  0.2644
 4911TIP3    H114697   0.825   4.184   3.009  2.4938 -1.5630 -1.6299
 4911TIP3    H214698   0.934   4.269   3.071  0.3161 -0.0726  0.3388
 4912TIP3   OH214699   4.826   4.228   4.411 -0.0673  0.0246  0.1334
 4912TIP3    H114700   4.781   4.313   4.422  0.5720  0.2941  0.7143
 4912TIP3    H214701   4.758   4.170   4.378 -0.6293  0.6558  0.1451
 4913TIP3   OH214702   4.070   2.564   3.588 -0.2778 -0.0093 -0.1350
 4913TIP3    H114703   4.162   2.555   3.563 -0.6135 -1.9082 -0.8192
 4913TIP3    H214704   4.025   2.585   3.505 -0.6321 -0.4039 -0.0427
 4914TIP3   OH214705   0.394   4.526   5.686  0.9934 -0.1018 -0.0322
 4914TIP3    H114706   0.306   4.493   5.702  0.8119  0.6739  0.6414
 4914TIP3    H214707   0.383   4.590   5.616  1.0065  0.0336  0.0881
 4915TIP3   OH214708   5.529   3.391   2.452  0.2807  0.2050  0.1215
 4915TIP3    H114709   5.540   3.433   2.537 -0.8152  0.7570  0.0108
 4915TIP3    H214710   5.506   3.462   2.393  0.8817 -0.1977 -0.6180
 4916TIP3   OH214711   4.115   1.789   1.197  0.6595 -0.5064 -0.0569
 4916TIP3    H114712   4.062   1.867   1.216  0.4004 -0.7125  0.0728
 4916TIP3    H214713   4.128   1.792   1.102  2.2684  0.7252  0.1596
 4917TIP3   OH214714   6.936   6.295   4.221 -0.4948  0.1790 -0.0522
 4917TIP3    H114715   6.938   6.373   4.276 -1.7019  0.0747  0.1662
 4917TIP3    H214716   6.843   6.278   4.207 -0.2236  0.1485 -2.0629
 4918TIP3   OH214717   5.565   0.736   3.693 -0.2100  0.0885  0.3600
 4918TIP3    H114718   5.566   0.825   3.660 -0.8832  0.0092  0.0923
 4918TIP3    H214719   5.657   0.710   3.698 -0.0580  0.3564 -0.7802
 4919TIP3   OH214720   0.134   5.383   4.454  0.1704 -0.4844 -0.1952
 4919TIP3    H114721   0.184   5.353   4.530 -0.2771  0.5924  0.5571
 4919TIP3    H214722   0.073   5.448   4.490 -1.6881 -1.6377 -1.0908
 4920TIP3   OH214723   6.402   5.105   3.685 -0.0859  0.6945 -0.8375
 4920TIP3    H114724   6.431   5.094   3.775 -2.3137  1.2278  0.0160
 4920TIP3    H214725   6.419   5.197   3.665 -2.4448  1.4475  0.2341
 4921TIP3   OH214726   2.005   3.782   1.192  0.3029  0.0434  0.5460
 4921TIP3    H114727   1.980   3.797   1.284  2.1056  0.2614  1.0448
 4921TIP3    H214728   2.035   3.691   1.191  0.8988  0.2370  0.3400
 4922TIP3   OH214729   2.902   5.827   4.470  0.1756 -0.0695 -0.6831
 4922TIP3    H114730   2.870   5.889   4.405 -0.1797 -0.8109 -1.2203
 4922TIP3    H214731   2.826   5.776   4.496 -0.3059  1.8531  2.2556
 4923TIP3   OH214732   6.298   0.533   3.857 -0.7575 -0.5530 -0.3808
 4923TIP3    H114733   6.218   0.503   3.814 -1.5704 -0.4573  0.9856
 4923TIP3    H214734   6.368   0.485   3.815 -1.6397 -1.3976 -0.9236
 4924TIP3   OH214735   0.366   0.558   0.001 -0.4373 -0.3101  0.1161
 4924TIP3    H114736   0.399   0.471   0.023 -0.8571 -0.3952  0.4296
 4924TIP3    H214737   0.330   0.591   0.083 -1.6268 -0.4430 -0.3293
 4925TIP3   OH214738   5.464   6.132   3.556 -0.4312  0.6298 -0.1342
 4925TIP3    H114739   5.384   6.122   3.608 -0.7078  0.6625 -0.5471
 4925TIP3    H214740   5.488   6.224   3.567  0.6372  0.1942  1.5376
 4926TIP3   OH214741   4.944   2.211   2.962 -0.1307  0.2207 -0.7682
 4926TIP3    H114742   4.949   2.304   2.939  1.6003  0.8528  1.7053
 4926TIP3    H214743   5.035   2.185   2.975 -0.6649 -1.4824 -0.2196
 4927TIP3   OH214744   6.464   3.094   5.471 -0.1335  0.1867  0.0209
 4927TIP3    H114745   6.516   3.125   5.397 -0.8083  1.1500 -0.0632
 4927TIP3    H214746   6.442   3.003   5.448 -0.7690  0.6303 -1.2183
 4928TIP3   OH214747   0.514   0.542   5.256  0.3514  0.2810  0.1169
 4928TIP3    H114748   0.546   0.483   5.188 -0.2122  0.2192 -0.0998
 4928TIP3    H214749   0.513   0.629   5.215 -0.1960  0.2101 -0.0310
 4929TIP3   OH214750   4.177   4.400   3.309  0.1060 -0.3498 -0.2430
 4929TIP3    H114751   4.229   4.434   3.382 -2.8593  1.0091  1.4584
 4929TIP3    H214752   4.189   4.463   3.239 -1.3745  1.6286  1.1526
 4930TIP3   OH214753   0.927   5.482   4.055 -0.2149  0.3595 -0.2318
 4930TIP3    H114754   0.997   5.510   3.996  0.6205  1.9680  1.4299
 4930TIP3    H214755   0.893   5.402   4.015  0.8336  0.9425 -2.4449
 4931TIP3   OH214756   2.067   3.380   2.286  0.0003  0.4849 -0.3018
 4931TIP3    H114757   2.010   3.454   2.264  0.0129 -0.0766 -2.4352
 4931TIP3    H214758   2.007   3.311   2.314 -0.2320  0.4967 -0.7579
 4932TIP3   OH214759   1.280   3.734   1.992  0.6086  0.2795 -0.0446
 4932TIP3    H114760   1.305   3.811   1.940 -0.3819 -0.9034 -2.4519
 4932TIP3    H214761   1.356   3.717   2.048  2.1991  1.0908 -1.8383
 4933TIP3   OH214762   4.185   6.369   3.779  1.0100 -0.5301 -0.3708
 4933TIP3    H114763   4.154   6.299   3.837  1.1836 -0.4158 -0.1381
 4933TIP3    H214764   4.208   6.440   3.839  1.7318 -0.6152 -0.5447
 4934TIP3   OH214765   5.515   3.679   4.998 -0.3311 -0.0440  0.3074
 4934TIP3    H114766   5.569   3.754   5.022  0.6904 -0.9810  1.0107
 4934TIP3    H214767   5.574   3.604   5.003 -1.4448 -0.9614  0.0680
 4935TIP3   OH214768   2.534   5.302   1.260 -0.4761  0.8114 -0.1830
 4935TIP3    H114769   2.593   5.364   1.216 -0.9225  1.8457  0.6362
 4935TIP3    H214770   2.501   5.350   1.336 -2.0142  0.0863 -0.3571
 4936TIP3   OH214771   0.250   4.052   3.315 -0.4993 -0.0118 -0.3479
 4936TIP3    H114772   0.203   3.982   3.360  0.2622 -1.4567 -1.6704
 4936TIP3    H214773   0.226   4.041   3.223  0.6702  0.6192 -0.7483
 4937TIP3   OH214774   4.757   2.109   5.083 -0.0154  0.0794  0.0641
 4937TIP3    H114775   4.734   2.146   5.168 -0.1582 -1.4323  0.7055
 4937TIP3    H214776   4.717   2.169   5.019 -2.2079 -0.2058  1.0846
 4938TIP3   OH214777   0.743   3.544   1.817 -0.6883 -0.5654 -0.1617
 4938TIP3    H114778   0.769   3.558   1.726  0.0676 -2.3081 -0.2579
 4938TIP3    H214779   0.732   3.632   1.853  0.0411  0.1667 -1.6403
 4939TIP3   OH214780   6.157   6.375   3.995 -0.1141  0.0286  0.3268
 4939TIP3    H114781   6.149   6.302   3.934 -1.2802  0.3731  0.0478
 4939TIP3    H214782   6.143   6.337   4.081  2.5260 -0.6496  0.5458
 4940TIP3   OH214783   5.921   6.424   3.396 -0.4845  0.5640 -0.1507
 4940TIP3    H114784   5.826   6.428   3.395 -0.4727  1.6797 -1.8925
 4940TIP3    H214785   5.942   6.354   3.458 -2.4244  0.1360  0.0830
 4941TIP3   OH214786   6.727   2.659   4.467  0.0279 -0.0580 -0.0614
 4941TIP3    H114787   6.770   2.728   4.415 -2.1374  0.6149 -1.0558
 4941TIP3    H214788   6.641   2.694   4.487 -0.4008 -1.7043  1.1535
 4942TIP3   OH214789   2.692   3.139   1.259  0.0163  0.1207  0.3446
 4942TIP3    H114790   2.671   3.068   1.320  1.0298  1.2222  2.0758
 4942TIP3    H214791   2.722   3.094   1.180 -1.3220 -1.3655  0.6274
 4943TIP3   OH214792   0.966   3.658   5.347 -0.1822  0.0773 -0.1521
 4943TIP3    H114793   0.961   3.598   5.422  0.1534 -0.5953 -0.6624
 4943TIP3    H214794   1.057   3.688   5.348 -0.3562  0.6047  0.1158
 4944TIP3   OH214795   3.641   5.547   2.770 -0.2136  0.2210 -0.3094
 4944TIP3    H114796   3.696   5.472   2.748 -1.3840 -1.0191  0.7629
 4944TIP3    H214797   3.571   5.545   2.705 -0.1015  0.5693 -0.4448
 4945TIP3   OH214798   5.563   6.403   2.159  0.0772 -0.1529 -0.1883
 4945TIP3    H114799   5.519   6.437   2.082 -3.5449 -1.5078  1.0628
 4945TIP3    H214800   5.521   6.447   2.233  1.8816 -0.4813  1.1270
 4946TIP3   OH214801   7.025   6.187   1.734 -0.6022 -0.0755  0.1615
 4946TIP3    H114802   7.079   6.224   1.664  0.3832 -2.2213 -0.2986
 4946TIP3    H214803   7.041   6.244   1.810  0.8912  0.4020 -0.4770
 4947TIP3   OH214804   0.125   6.010   3.053 -0.0608  0.2051  0.5990
 4947TIP3    H114805   0.169   5.963   3.124  0.7645 -0.6695 -0.4727
 4947TIP3    H214806   0.052   6.056   3.096  2.7254  3.0309  2.7653
 4948TIP3   OH214807   1.603   1.965   3.016  0.1117 -0.1393 -0.1890
 4948TIP3    H114808   1.556   2.019   3.080  1.7337 -1.1390  1.9928
 4948TIP3    H214809   1.538   1.901   2.986 -0.8755  0.8023 -0.1087
 4949TIP3   OH214810   0.579   1.330   0.017 -0.6341  0.3926  0.4092
 4949TIP3    H114811   0.624   1.403   0.058  0.3349 -0.1007  0.2490
 4949TIP3    H214812   0.525   1.292   0.086  1.1033 -0.5370  1.3076
 4950TIP3   OH214813   3.681   4.820   3.930  0.3156  0.1497 -0.0394
 4950TIP3    H114814   3.733   4.786   4.003 -0.8830 -0.6176  0.5095
 4950TIP3    H214815   3.613   4.873   3.972  0.2278  0.5475 -0.6722
 4951TIP3   OH214816   0.114   5.171   5.220  0.3078 -0.2942  0.3403
 4951TIP3    H114817   0.171   5.248   5.218 -0.0153  0.0656  2.8316
 4951TIP3    H214818   0.037   5.198   5.170  1.2059  0.0718 -0.9258
 4952TIP3   OH214819   5.064   0.007   0.489  0.0895 -0.0636 -0.2260
 4952TIP3    H114820   5.089   0.085   0.439 -1.3249  0.4914 -0.0947
 4952TIP3    H214821   5.055  -0.062   0.423 -0.4242  0.3252 -0.5588
 4953TIP3   OH214822   3.803   2.646   4.083  0.1834 -0.5037 -0.2073
 4953TIP3    H114823   3.837   2.661   4.171  1.3209 -2.8074 -0.1720
 4953TIP3    H214824   3.854   2.704   4.027 -1.0830  1.5607  0.6768
 4954TIP3   OH214825   1.380   2.327   1.246 -0.4533 -0.3789  0.4765
 4954TIP3    H114826   1.285   2.331   1.243 -0.4831 -0.8943  0.7967
 4954TIP3    H214827   1.402   2.247   1.199 -0.1622 -0.1328  0.1850
 4955TIP3   OH214828   6.727   3.240   5.097  0.1922 -0.0076 -0.2797
 4955TIP3    H114829   6.663   3.217   5.164  1.3576 -0.6647  0.6576
 4955TIP3    H214830   6.702   3.327   5.068 -0.3124  0.3128  1.0574
 4956TIP3   OH214831   1.830   1.208   2.931 -0.0997  0.1462  0.5046
 4956TIP3    H114832   1.752   1.178   2.885 -0.0190 -0.1542  0.5603
 4956TIP3    H214833   1.841   1.145   3.003 -0.1251  0.5081  0.8287
 4957TIP3   OH214834   0.365   2.454   4.410  0.6113 -0.2232 -0.2176
 4957TIP3    H114835   0.424   2.445   4.336  0.6182 -1.2467 -0.1032
 4957TIP3    H214836   0.387   2.539   4.449  0.8446  0.1559 -1.1678
 4958TIP3   OH214837   1.264   2.961   2.457 -0.0131 -0.4431  0.2475
 4958TIP3    H114838   1.266   2.872   2.420 -0.9081 -1.7134  2.9443
 4958TIP3    H214839   1.330   2.959   2.527 -2.2717 -0.1519  2.5319
 4959TIP3   OH214840   1.067   2.825   4.149 -0.4945  0.5433  0.4976
 4959TIP3    H114841   1.088   2.830   4.242  0.6169  0.5144  0.2651
 4959TIP3    H214842   1.028   2.738   4.137 -1.4420  0.8804  1.0767
 4960TIP3   OH214843   3.663   0.816   3.096 -0.0071  0.0482 -0.3657
 4960TIP3    H114844   3.666   0.721   3.086  1.9173  0.1588 -1.4511
 4960TIP3    H214845   3.743   0.837   3.146 -1.7570  0.9189  2.3047
 4961TIP3   OH214846   2.073   2.211   3.990  0.0986  0.6359 -0.1302
 4961TIP3    H114847   2.033   2.185   3.907 -1.3133 -2.9111  1.4051
 4961TIP3    H214848   2.000   2.249   4.040  0.2639  0.3546  0.3354
 4962TIP3   OH214849   0.408   0.343   3.243 -0.3494 -0.6039 -0.0251
 4962TIP3    H114850   0.456   0.273   3.198  1.0827  1.4316 -1.8802
 4962TIP3    H214851   0.476   0.403   3.274 -1.4914 -0.3888  2.2782
 4963TIP3   OH214852   5.660   4.539   3.262  0.4224 -0.2858  0.1869
 4963TIP3    H114853   5.704   4.460   3.293 -1.6833 -1.1065  1.3096
 4963TIP3    H214854   5.717   4.573   3.193  2.8437 -1.1231  1.6725
 4964TIP3   OH214855   3.512   5.358   1.481 -0.4932  0.4218  0.4250
 4964TIP3    H114856   3.574   5.323   1.417  0.6392 -0.0897  1.7209
 4964TIP3    H214857   3.427   5.354   1.438 -0.0086 -1.3892 -0.4941
 4965TIP3   OH214858   6.001   6.736   5.558  0.1235 -0.1281 -0.1675
 4965TIP3    H114859   6.017   6.818   5.510  0.9408  0.1488  0.5407
 4965TIP3    H214860   5.909   6.741   5.584  0.5780  1.4021  1.3474
 4966TIP3   OH214861   5.593   5.550   3.502 -0.2731 -0.7225 -0.5573
 4966TIP3    H114862   5.516   5.494   3.491 -0.5960 -0.4029  0.0085
 4966TIP3    H214863   5.640   5.510   3.575 -0.3393 -0.4404 -0.3598
 4967TIP3   OH214864   1.485   0.619   4.987 -0.3468  0.2563  0.0736
 4967TIP3    H114865   1.467   0.713   4.985 -1.2447  0.0899 -1.3465
 4967TIP3    H214866   1.400   0.579   5.005 -0.2531 -0.3192 -0.6958
 4968TIP3   OH214867   4.341   0.055   4.838 -0.1765  0.2401 -0.0828
 4968TIP3    H114868   4.349   0.053   4.933  0.2324 -0.7957 -0.1323
 4968TIP3    H214869   4.376  -0.028   4.809  0.7208  0.9923 -1.2283
 4969TIP3   OH214870   2.819   5.248   4.742  0.6598 -0.5057  0.5428
 4969TIP3    H114871   2.891   5.302   4.774  1.1141 -1.4833  1.2244
 4969TIP3    H214872   2.802   5.281   4.653  0.6860  0.9556  1.0450
 4970TIP3   OH214873   5.821   3.017   3.754 -0.1567 -0.8507 -0.4474
 4970TIP3    H114874   5.729   2.991   3.762 -0.9376  2.0076  2.3679
 4970TIP3    H214875   5.820   3.091   3.694 -0.2015  0.6886  1.3480
 4971TIP3   OH214876   3.743   5.097   1.024  0.1830 -0.2798  0.3051
 4971TIP3    H114877   3.836   5.072   1.021  0.3782  0.3420  0.9003
 4971TIP3    H214878   3.741   5.175   1.080 -0.7001 -0.2756  0.2797
 4972TIP3   OH214879   6.052   4.009   1.448  0.0728 -0.0119  0.1965
 4972TIP3    H114880   5.979   4.017   1.510 -0.6850 -1.3476 -0.4694
 4972TIP3    H214881   6.118   3.959   1.496 -0.1569 -0.2824  0.2411
 4973TIP3   OH214882   6.764   1.851   5.156  0.2035 -0.3140  0.3416
 4973TIP3    H114883   6.792   1.896   5.236 -0.6969  0.0356  0.4754
 4973TIP3    H214884   6.752   1.922   5.093  1.0886 -0.6065 -0.1645
 4974TIP3   OH214885   1.892   2.568   1.798 -0.2894  0.7589  0.7869
 4974TIP3    H114886   1.963   2.628   1.775 -0.7546  1.0223 -0.0077
 4974TIP3    H214887   1.818   2.626   1.817 -0.6567  0.4498  0.3161
 4975TIP3   OH214888   4.373   2.188   0.688  0.7974  0.1634 -0.0236
 4975TIP3    H114889   4.285   2.216   0.662  0.4348  0.7721  1.7007
 4975TIP3    H214890   4.428   2.265   0.673  0.5726  0.5419  0.9941
 4976TIP3   OH214891   0.883   4.714   0.562 -0.4056 -0.0868 -0.2406
 4976TIP3    H114892   0.832   4.640   0.596 -0.4245  0.2572  0.5116
 4976TIP3    H214893   0.957   4.722   0.622  0.1144 -0.0867 -0.8704
 4977TIP3   OH214894   1.702   5.251   3.159 -0.2300 -0.0940 -0.2831
 4977TIP3    H114895   1.676   5.339   3.187  0.2851  0.1762 -0.6329
 4977TIP3    H214896   1.622   5.199   3.166 -0.3186  0.1661  0.8394
 4978TIP3   OH214897   4.494   0.408   1.920 -0.1562  0.2757 -0.3031
 4978TIP3    H114898   4.587   0.386   1.925  0.4237  2.3820 -0.6484
 4978TIP3    H214899   4.476   0.454   2.002 -1.0369 -0.5248 -0.0338
 4979TIP3   OH214900   1.145   6.029   4.860 -0.3757 -0.7020 -0.0717
 4979TIP3    H114901   1.178   5.958   4.804 -0.8210 -1.0622  0.1087
 4979TIP3    H214902   1.051   6.010   4.867 -0.9883  1.1956 -1.9459
 4980TIP3   OH214903   2.499   5.206   1.672 -0.2769 -0.7761 -0.3474
 4980TIP3    H114904   2.565   5.269   1.700 -0.6657 -1.6802  3.1602
 4980TIP3    H214905   2.544   5.121   1.676 -0.6739 -1.0783 -1.6871
 4981TIP3   OH214906   6.973   3.265   3.442 -0.5580  0.2083  0.3255
 4981TIP3    H114907   7.037   3.196   3.459  1.7947  2.1273 -0.1591
 4981TIP3    H214908   7.001   3.304   3.359 -3.5523 -0.0461 -0.9635
 4982TIP3   OH214909   3.901   2.514   0.400 -0.0296  0.3732 -0.2149
 4982TIP3    H114910   3.943   2.449   0.456  0.5655  2.1124  1.4766
 4982TIP3    H214911   3.818   2.474   0.375  0.1370 -0.8778  1.0941
 4983TIP3   OH214912   1.615   5.798   3.210 -0.1414  0.1178  0.3721
 4983TIP3    H114913   1.604   5.707   3.237 -0.4133 -0.6626 -2.0847
 4983TIP3    H214914   1.703   5.801   3.171 -1.1325  0.1476 -2.0248
 4984TIP3   OH214915   3.826   3.338   5.807  0.6252  0.5147  0.3995
 4984TIP3    H114916   3.882   3.413   5.789  1.3219 -0.2521 -0.7774
 4984TIP3    H214917   3.745   3.355   5.759  1.2556 -0.0333 -0.9045
 4985TIP3   OH214918   2.366   4.711   0.725 -0.0254  0.0853  0.6029
 4985TIP3    H114919   2.387   4.698   0.633 -0.3858 -0.3649  0.5838
 4985TIP3    H214920   2.410   4.793   0.748 -0.4900  0.5633 -0.1506
 4986TIP3   OH214921   1.376   0.867   0.879 -0.1819  0.2868 -0.1891
 4986TIP3    H114922   1.336   0.907   0.802 -0.2368  1.7722  0.5724
 4986TIP3    H214923   1.303   0.832   0.929 -0.2161  0.0132 -0.4291
 4987TIP3   OH214924   6.426   2.613   4.808  0.1701  0.1722 -0.1804
 4987TIP3    H114925   6.521   2.621   4.809  0.0668  1.9768  0.9873
 4987TIP3    H214926   6.400   2.631   4.899 -1.3327  0.9779 -0.7300
 4988TIP3   OH214927   5.031   1.203   1.879  0.6060 -0.5888 -0.3431
 4988TIP3    H114928   4.963   1.140   1.854  0.2784 -0.7436  0.8971
 4988TIP3    H214929   5.041   1.192   1.973  0.9537  0.8268 -0.1930
 4989TIP3   OH214930   5.898   2.559   3.044 -0.0650 -0.6911  0.1144
 4989TIP3    H114931   5.921   2.481   3.095  0.1286 -0.4769  0.3552
 4989TIP3    H214932   5.807   2.578   3.069 -0.1024 -0.8207  0.0773
 4990TIP3   OH214933   4.529   3.005   1.470 -0.1098 -0.2442 -0.1085
 4990TIP3    H114934   4.476   3.075   1.432 -0.3454 -1.7837 -2.8926
 4990TIP3    H214935   4.616   3.017   1.431  0.0850 -0.9626  0.1015
 4991TIP3   OH214936   6.663   3.979   5.294  0.5704 -0.2371 -0.1516
 4991TIP3    H114937   6.749   3.966   5.333  0.4975  0.7419  0.3867
 4991TIP3    H214938   6.621   4.044   5.351  0.5195  1.3970 -1.9365
 4992TIP3   OH214939   3.008   5.783   2.870  0.1526  0.2479 -0.2233
 4992TIP3    H114940   3.045   5.759   2.785  1.2764 -0.2605  0.3765
 4992TIP3    H214941   3.073   5.842   2.909 -0.1974  0.2334  0.4052
 4993TIP3   OH214942   4.345   1.275   2.573  0.2953 -0.0499 -0.1954
 4993TIP3    H114943   4.434   1.273   2.608 -0.0637 -0.0680  0.7548
 4993TIP3    H214944   4.317   1.184   2.571  0.4277 -0.0832 -0.8646
 4994TIP3   OH214945   3.850   2.099   4.128  0.0842  0.6892 -0.4102
 4994TIP3    H114946   3.858   2.016   4.174  4.1551  0.8941 -0.3662
 4994TIP3    H214947   3.858   2.076   4.035  0.3701  0.9695 -0.4571
 4995TIP3   OH214948   0.654   2.174   1.483 -0.2155 -0.3295 -0.1144
 4995TIP3    H114949   0.560   2.176   1.463 -0.4243 -0.3841  0.7942
 4995TIP3    H214950   0.686   2.261   1.459 -0.5289 -0.2627 -0.2898
 4996TIP3   OH214951   5.004   5.410   2.144  0.1622 -0.5848 -0.1960
 4996TIP3    H114952   4.935   5.361   2.099 -1.8527  0.3104  1.7690
 4996TIP3    H214953   5.035   5.473   2.078 -2.2542  0.2777 -0.6056
 4997TIP3   OH214954   4.419   4.095   5.074  0.3486 -0.3508 -0.3558
 4997TIP3    H114955   4.348   4.124   5.131  1.7557  0.3754  1.1511
 4997TIP3    H214956   4.435   4.004   5.100  0.1803 -0.4072 -0.4534
 4998TIP3   OH214957   3.484   5.437   3.007 -0.5310  0.0904  0.4605
 4998TIP3    H114958   3.507   5.470   2.919 -2.0693  0.7142  0.2657
 4998TIP3    H214959   3.530   5.353   3.013  0.5598  0.5866 -0.4705
 4999TIP3   OH214960   0.269   5.198   0.966 -0.3003  0.0381 -0.1454
 4999TIP3    H114961   0.266   5.287   1.002 -2.0044  0.0750 -0.3347
 4999TIP3    H214962   0.330   5.152   1.024  3.3764  2.1047 -1.9717
 5000TIP3   OH214963   4.449   1.741   2.469 -0.2253  0.2252 -0.5017
 5000TIP3    H114964   4.480   1.675   2.407  2.6947  0.2588  0.7522
 5000TIP3    H214965   4.382   1.696   2.520 -0.4371 -0.7737 -1.6211
 5001TIP3   OH214966   5.213   5.891   2.054  1.3810 -0.1535 -0.0259
 5001TIP3    H114967   5.279   5.951   2.088  0.9862  0.7115 -0.7431
 5001TIP3    H214968   5.141   5.948   2.026  1.1148 -0.9402 -0.9994
 5002TIP3   OH214969   1.895   1.517   1.362  0.3999 -0.3567  0.2331
 5002TIP3    H114970   1.807   1.478   1.370  1.0026 -1.7842  0.1745
 5002TIP3    H214971   1.906   1.568   1.442 -0.0797 -1.0301  0.7424
 5003TIP3   OH214972   0.674   6.427   3.676 -0.3802  0.5064  0.0456
 5003TIP3    H114973   0.665   6.421   3.772  0.0838  1.9314  0.2042
 5003TIP3    H214974   0.602   6.483   3.649 -0.5999 -0.0221 -0.4691
 5004TIP3   OH214975   4.436   4.318   5.773  0.0821  0.0811  0.1429
 5004TIP3    H114976   4.459   4.385   5.838  0.3042  2.6729 -2.3880
 5004TIP3    H214977   4.353   4.282   5.804  0.8400  0.2006  2.5146
 5005TIP3   OH214978   1.418   6.124   4.160 -0.1504 -0.5668  0.5414
 5005TIP3    H114979   1.447   6.207   4.198 -0.6285  0.2352 -0.7911
 5005TIP3    H214980   1.378   6.148   4.077 -1.0979 -2.0530  0.5270
 5006TIP3   OH214981   0.910   5.862   0.788 -0.1313  0.2925 -0.0309
 5006TIP3    H114982   0.863   5.839   0.868 -0.0301  0.3574  0.0487
 5006TIP3    H214983   0.844   5.903   0.732 -0.0853  0.7479  0.2377
 5007TIP3   OH214984   4.471   2.797   3.610 -0.0888  0.2765  0.1042
 5007TIP3    H114985   4.473   2.783   3.516  0.0080 -0.0862  0.1586
 5007TIP3    H214986   4.386   2.765   3.638 -0.9576  2.2112 -0.1306
 5008TIP3   OH214987   1.573   4.008   2.230  0.3004 -0.3922 -0.1748
 5008TIP3    H114988   1.615   4.049   2.305 -0.5310  1.4237 -0.6370
 5008TIP3    H214989   1.495   3.965   2.266 -0.1320  0.5292  0.0249
 5009TIP3   OH214990   3.495   3.165   5.530  0.5152  0.1122 -0.1376
 5009TIP3    H114991   3.447   3.090   5.495  0.6343  0.5869 -1.3525
 5009TIP3    H214992   3.574   3.171   5.476 -0.7054  2.6560 -1.8664
 5010TIP3   OH214993   3.879   6.151   4.919  0.0046  0.5360 -0.1223
 5010TIP3    H114994   3.888   6.240   4.954 -0.0435  0.5247 -0.0816
 5010TIP3    H214995   3.865   6.164   4.825  1.3108  0.5319 -0.3453
 5011TIP3   OH214996   2.451   5.931   2.643  0.6092  0.2685 -0.0927
 5011TIP3    H114997   2.492   5.910   2.560 -1.0739  0.2730 -0.9599
 5011TIP3    H214998   2.368   5.972   2.620 -0.4468 -0.7797  1.5530
 5012TIP3   OH214999   1.533   3.954   4.937 -0.3218 -0.1104 -0.3780
 5012TIP3    H115000   1.587   3.884   4.974 -0.8512 -0.5421 -0.4152
 5012TIP3    H215001   1.524   4.017   5.009 -0.2510 -0.3142 -0.1882
 5013TIP3   OH215002   0.450   2.529   2.051 -0.0130  0.1351  0.5634
 5013TIP3    H115003   0.484   2.474   1.981 -0.9872  0.5982 -0.3012
 5013TIP3    H215004   0.424   2.468   2.120  1.1944 -0.3046  0.6478
 5014TIP3   OH215005   6.517   5.935   0.409 -0.5497  0.6062  0.1219
 5014TIP3    H115006   6.606   5.971   0.415 -1.0890  2.5983 -2.2639
 5014TIP3    H215007   6.489   5.927   0.500  2.0785 -0.2263  0.9569
 5015TIP3   OH215008   3.264   5.734   5.754  0.1428  0.5392  0.7651
 5015TIP3    H115009   3.346   5.693   5.779 -0.0879 -0.2193  0.2981
 5015TIP3    H215010   3.219   5.751   5.836 -0.5451 -1.7799  0.9231
 5016TIP3   OH215011   3.663   3.723   2.229  0.0624  0.5191  0.0993
 5016TIP3    H115012   3.737   3.687   2.276 -1.0570 -1.3679  0.5306
 5016TIP3    H215013   3.590   3.718   2.291 -0.8887  0.3124 -0.9983
 5017TIP3   OH215014   2.542   1.400   4.633  0.0233 -0.1329 -0.6776
 5017TIP3    H115015   2.510   1.479   4.591  2.4872  0.7661 -1.0370
 5017TIP3    H215016   2.628   1.384   4.594  1.1778 -0.9050  1.9074
 5018TIP3   OH215017   2.363   6.023   2.340 -0.2765  0.1807  0.2353
 5018TIP3    H115018   2.458   6.014   2.348 -0.1487  0.1238 -1.1451
 5018TIP3    H215019   2.335   5.943   2.297 -0.9014  0.3695  0.2871
 5019TIP3   OH215020   6.983   2.708   5.560  1.1679 -0.6594  0.4096
 5019TIP3    H115021   6.919   2.704   5.489  1.9243 -1.0411 -0.2629
 5019TIP3    H215022   7.030   2.625   5.555  0.3568 -1.2848  2.2160
 5020TIP3   OH215023   4.096   2.256   2.913  0.1931 -0.5216  0.4257
 5020TIP3    H115024   4.074   2.344   2.883  0.5633 -0.3083  0.7707
 5020TIP3    H215025   4.013   2.208   2.910  0.0698 -0.2763 -0.1547
 5021TIP3   OH215026   6.031   5.789   1.726 -0.3401 -0.4290  0.3332
 5021TIP3    H115027   5.969   5.850   1.765 -0.2877 -0.4885  0.5121
 5021TIP3    H215028   5.985   5.752   1.651  0.1789  0.9767 -0.7147
 5022TIP3   OH215029   1.269   0.972   3.412 -0.0077 -0.5152  0.5433
 5022TIP3    H115030   1.231   0.997   3.496  1.5291  1.5260  0.7355
 5022TIP3    H215031   1.194   0.957   3.355 -1.0800 -0.7031  1.9464
 5023TIP3   OH215032   3.184   4.793   3.531 -0.5289 -0.2428 -0.3460
 5023TIP3    H115033   3.141   4.831   3.609 -1.1198 -1.6528  0.0499
 5023TIP3    H215034   3.130   4.822   3.458 -0.9651 -0.2973 -0.0508
 5024TIP3   OH215035   2.469   2.787   0.089 -0.5036 -0.1744 -0.3245
 5024TIP3    H115036   2.384   2.829   0.077 -1.2534 -1.2570  1.0534
 5024TIP3    H215037   2.492   2.804   0.180  0.6708 -0.0700 -0.6252
 5025TIP3   OH215038   3.157   3.046   1.099 -0.1168 -0.2484 -0.0156
 5025TIP3    H115039   3.088   2.982   1.115 -2.2521  1.5885 -1.3317
 5025TIP3    H215040   3.164   3.050   1.004  1.0591  0.3902  0.0901
 5026TIP3   OH215041   0.409   6.485   0.589  0.0242 -0.2904  0.0386
 5026TIP3    H115042   0.344   6.497   0.658 -0.1435 -0.1288 -0.1463
 5026TIP3    H215043   0.361   6.500   0.508  0.2189 -0.4825 -0.1149
 5027TIP3   OH215044   6.343   4.106   0.465 -0.0785 -0.2590  0.1180
 5027TIP3    H115045   6.258   4.112   0.507  0.0393 -0.2657  0.3620
 5027TIP3    H215046   6.403   4.083   0.536  0.2636  0.5808  0.1181
 5028TIP3   OH215047   5.851   1.304   1.187 -0.1306 -0.3334  0.8372
 5028TIP3    H115048   5.818   1.226   1.232  0.3060  0.2933  2.2913
 5028TIP3    H215049   5.773   1.354   1.165 -0.4008 -1.0458  0.1123
 5029TIP3   OH215050   2.778   5.715   3.894  0.1289 -0.4373 -0.0228
 5029TIP3    H115051   2.687   5.731   3.921  0.2336  0.9821 -0.4274
 5029TIP3    H215052   2.829   5.778   3.944  0.4959  1.1869 -2.2573
 5030TIP3   OH215053   0.228   4.149   2.245  0.8432 -0.5975  0.0742
 5030TIP3    H115054   0.260   4.216   2.185  0.4941 -1.1653 -0.7834
 5030TIP3    H215055   0.156   4.106   2.196  0.9490 -1.4679  0.6576
 5031TIP3   OH215056   4.668   3.949   5.372  0.1441 -0.0158 -0.5068
 5031TIP3    H115057   4.597   4.012   5.389 -0.3231 -0.9783  1.3813
 5031TIP3    H215058   4.733   3.999   5.323 -0.9469  1.4570 -0.5355
 5032TIP3   OH215059   0.433   2.505   1.025  0.2540 -0.8092  0.0932
 5032TIP3    H115060   0.526   2.505   1.046  0.0841  1.0534  1.0628
 5032TIP3    H215061   0.391   2.462   1.099  0.2346 -0.3444  0.3567
 5033TIP3   OH215062   3.683   3.286   3.153 -0.9368  0.1067  0.4107
 5033TIP3    H115063   3.635   3.219   3.202  2.2108 -2.1820  0.7050
 5033TIP3    H215064   3.748   3.318   3.215 -0.3096  1.1144 -0.7258
 5034TIP3   OH215065   1.439   5.519   2.142 -0.2913  0.3388  0.3461
 5034TIP3    H115066   1.493   5.486   2.069 -0.2117  0.5906  0.2901
 5034TIP3    H215067   1.480   5.482   2.220 -0.3245  0.1385  0.2693
 5035TIP3   OH215068   2.510   1.009   2.816 -0.3240 -0.2178  0.2416
 5035TIP3    H115069   2.422   0.996   2.850 -1.6324 -0.3784 -2.8659
 5035TIP3    H215070   2.507   1.095   2.774  1.6783  0.7021  1.8294
 5036TIP3   OH215071   2.536   6.759   4.506 -0.0323 -0.1714  0.1092
 5036TIP3    H115072   2.593   6.723   4.574  0.2842  1.2683  0.6262
 5036TIP3    H215073   2.488   6.829   4.549 -1.7116 -0.9097 -0.5062
 5037TIP3   OH215074   5.622   1.847   4.902  0.3436  0.3371  0.7418
 5037TIP3    H115075   5.568   1.769   4.890  0.0343  0.8511 -1.6150
 5037TIP3    H215076   5.634   1.882   4.814  2.7348  1.4583  1.4365
 5038TIP3   OH215077   0.443   3.355   5.560 -0.7282  0.6442 -0.0843
 5038TIP3    H115078   0.456   3.383   5.651  0.2920 -0.0819  0.0144
 5038TIP3    H215079   0.515   3.395   5.512 -0.3718 -0.2072 -0.2803
 5039TIP3   OH215080   6.741   6.431   3.644  0.3177  0.1767  0.3866
 5039TIP3    H115081   6.792   6.350   3.645  1.1792  0.7010 -0.2864
 5039TIP3    H215082   6.706   6.438   3.733  2.6624  0.5719  1.3332
 5040TIP3   OH215083   1.126   1.757   4.614  0.0459 -0.2819 -0.2214
 5040TIP3    H115084   1.101   1.702   4.689  0.2963  0.8291  0.7181
 5040TIP3    H215085   1.045   1.770   4.565 -0.5978  0.6884  1.0413
 5041TIP3   OH215086   7.157   0.775   1.159  0.1260  0.3015  0.3340
 5041TIP3    H115087   7.063   0.762   1.144 -0.1359  1.4821  0.7975
 5041TIP3    H215088   7.174   0.864   1.126  1.0380  0.1718  0.4320
 5042TIP3   OH215089   4.039   4.326   5.185  0.5261 -0.2291 -0.1664
 5042TIP3    H115090   3.947   4.339   5.207  0.6093 -1.5236  1.0703
 5042TIP3    H215091   4.082   4.407   5.213  0.1159 -0.5478  1.5014
 5043TIP3   OH215092   1.653   1.029   4.699  0.1447 -0.1367 -0.1569
 5043TIP3    H115093   1.632   1.044   4.607  1.2137  0.9660 -0.2498
 5043TIP3    H215094   1.746   1.049   4.706  0.1865 -0.6894  1.0749
 5044TIP3   OH215095   1.950   0.195   1.975  0.2987  0.1360  0.1549
 5044TIP3    H115096   1.996   0.200   2.059  0.2009 -0.3000  0.2376
 5044TIP3    H215097   2.011   0.149   1.917 -0.0281 -0.4708  0.2731
 5045TIP3   OH215098   5.121   4.147   3.963 -0.4948  0.1869  0.0063
 5045TIP3    H115099   5.053   4.208   3.994 -0.7053  0.0568 -0.1995
 5045TIP3    H215100   5.083   4.060   3.976 -1.6739  0.1489 -3.0161
 5046TIP3   OH215101   2.517   4.915   4.347 -0.2147 -0.2985 -0.1161
 5046TIP3    H115102   2.487   4.845   4.289  0.3751 -0.2721 -0.4626
 5046TIP3    H215103   2.602   4.941   4.311  0.0015 -0.0469  0.5620
 5047TIP3   OH215104   7.168   1.659   0.299 -0.3511 -0.3084 -0.4511
 5047TIP3    H115105   7.175   1.575   0.344 -0.4757 -0.7175 -1.1867
 5047TIP3    H215106   7.220   1.648   0.219 -0.6637  0.1938 -0.7279
 5048TIP3   OH215107   0.071   2.329   0.747  0.0237 -0.4376  0.1380
 5048TIP3    H115108   0.103   2.305   0.660 -0.4618  0.2041 -0.2251
 5048TIP3    H215109   0.096   2.420   0.757 -1.0634 -0.1285  0.1300
 5049TIP3   OH215110   4.407   2.826   1.779  0.2038  0.5255 -0.1454
 5049TIP3    H115111   4.370   2.871   1.702  1.1932  0.0907 -0.8970
 5049TIP3    H215112   4.335   2.822   1.841 -1.5581 -1.7024 -2.1515
 5050TIP3   OH215113   1.878   1.855   3.496  0.1315 -0.2856  0.5390
 5050TIP3    H115114   1.883   1.766   3.531 -0.4439 -0.5210  0.0446
 5050TIP3    H215115   1.786   1.867   3.473  0.2710  0.3000  0.2553
 5051TIP3   OH215116   1.606   0.769   4.136 -0.3662 -0.2444  0.0105
 5051TIP3    H115117   1.672   0.772   4.206  0.1795 -1.7887 -0.3876
 5051TIP3    H215118   1.641   0.824   4.067 -0.1311  0.0092  0.3315
 5052TIP3   OH215119   2.193   1.378   5.620 -0.0874 -0.1676 -0.2956
 5052TIP3    H115120   2.159   1.464   5.647  2.0336  0.6482 -0.0262
 5052TIP3    H215121   2.176   1.374   5.526 -0.4140  0.4511 -0.2698
 5053TIP3   OH215122   6.364   2.298   1.541  0.1785 -0.0788  0.4031
 5053TIP3    H115123   6.331   2.372   1.592  2.5343  0.9923  0.5376
 5053TIP3    H215124   6.389   2.233   1.606  1.3661  0.4975  0.5662
 5054TIP3   OH215125   5.112   0.722   3.987 -0.1177 -0.1460  0.3899
 5054TIP3    H115126   5.035   0.675   4.019  0.9695 -2.3521 -0.0725
 5054TIP3    H215127   5.079   0.774   3.914 -1.3922  0.0098  1.0324
 5055TIP3   OH215128   1.777   0.926   3.665 -0.5372  0.2712 -0.4028
 5055TIP3    H115129   1.854   0.891   3.620  0.0425  0.3952  0.4765
 5055TIP3    H215130   1.704   0.878   3.627  0.0097 -0.1539 -0.9459
 5056TIP3   OH215131   4.854   2.006   5.468 -0.1008  0.3045  0.3153
 5056TIP3    H115132   4.805   2.050   5.538 -1.5914 -0.3245 -0.3013
 5056TIP3    H215133   4.908   1.941   5.514 -0.1634  0.7160  0.9774
 5057TIP3   OH215134   6.014   5.659   0.308 -0.0441  0.0624  0.2308
 5057TIP3    H115135   5.922   5.636   0.300  0.5408 -2.4007 -0.1748
 5057TIP3    H215136   6.043   5.672   0.217  0.1878  0.0479  0.3021
 5058TIP3   OH215137   5.480   5.407   2.443  0.5927 -0.1850  0.2480
 5058TIP3    H115138   5.522   5.483   2.402  1.0975 -0.3028  0.5376
 5058TIP3    H215139   5.425   5.370   2.374 -0.0763  0.7492  0.2592
 5059TIP3   OH215140   2.578   3.779   0.542 -0.4178  0.1670  0.0384
 5059TIP3    H115141   2.496   3.828   0.550 -0.7065 -0.3764  0.4845
 5059TIP3    H215142   2.626   3.800   0.622 -0.2483  0.2541 -0.0864
 5060TIP3   OH215143   4.171   4.853   0.542  0.0512 -0.2597 -0.2421
 5060TIP3    H115144   4.145   4.766   0.513  2.1576 -1.7231  1.8231
 5060TIP3    H215145   4.111   4.875   0.613  0.2897 -0.6304  0.0790
 5061TIP3   OH215146   4.474   6.535   5.354 -0.3011  0.0291 -0.4462
 5061TIP3    H115147   4.547   6.584   5.314 -0.8653  2.0829  0.8401
 5061TIP3    H215148   4.498   6.443   5.344  2.9346  0.6123  0.6654
 5062TIP3   OH215149   4.923   1.928   0.675 -0.3027 -0.1253 -0.3164
 5062TIP3    H115150   4.928   1.833   0.663  1.2076 -0.4048  1.8713
 5062TIP3    H215151   4.830   1.948   0.670 -0.7771 -1.9356  0.4264
 5063TIP3   OH215152   6.420   3.757   3.632 -0.2800  0.2861  0.5569
 5063TIP3    H115153   6.475   3.819   3.680 -0.6488  1.3760 -0.3577
 5063TIP3    H215154   6.478   3.684   3.611 -0.1774 -0.3637  2.8414
 5064TIP3   OH215155   0.127   3.071   5.574  0.0938  0.0753 -0.0733
 5064TIP3    H115156   0.102   2.979   5.586  0.7595  0.0242  1.1180
 5064TIP3    H215157   0.088   3.116   5.649 -0.1025  0.7497 -0.5730
 5065TIP3   OH215158   2.052   1.698   0.253  0.2059  0.1685 -0.4328
 5065TIP3    H115159   2.105   1.647   0.315 -0.9336 -0.8402 -0.2451
 5065TIP3    H215160   2.100   1.693   0.171 -0.8975 -3.2023 -1.0482
 5066TIP3   OH215161   6.301   1.843   4.562 -0.3857 -0.1979  0.1587
 5066TIP3    H115162   6.281   1.833   4.469  1.6705 -0.9037 -0.2723
 5066TIP3    H215163   6.244   1.914   4.592 -0.7680  0.3597 -1.7499
 5067TIP3   OH215164   4.822   0.202   0.818 -0.0433 -0.0101 -0.1098
 5067TIP3    H115165   4.907   0.196   0.774  0.2834  1.6694  0.2310
 5067TIP3    H215166   4.836   0.264   0.890 -1.3511 -0.3635  0.4845
 5068TIP3   OH215167   3.700   6.207   1.626  0.0307  0.7303  0.0452
 5068TIP3    H115168   3.656   6.272   1.681  0.2584 -0.5285  1.8133
 5068TIP3    H215169   3.637   6.137   1.617  0.6218  0.1741  0.1579
 5069TIP3   OH215170   4.469   2.639   1.194  0.1856  0.9878  0.2055
 5069TIP3    H115171   4.390   2.585   1.186 -0.7542  2.2967  0.4479
 5069TIP3    H215172   4.532   2.583   1.239 -1.2094  0.5385  1.6699
 5070TIP3   OH215173   5.417   1.353   3.699  0.1938 -0.0444 -0.3153
 5070TIP3    H115174   5.333   1.382   3.735  0.4403 -1.1372  1.2207
 5070TIP3    H215175   5.468   1.327   3.775  0.4286 -3.3511 -1.4448
 5071TIP3   OH215176   3.162   1.306   0.155  0.3219  0.1392  0.0750
 5071TIP3    H115177   3.145   1.252   0.233  1.2897  1.0763  0.9664
 5071TIP3    H215178   3.147   1.246   0.082  1.7028 -1.4823  1.0336
 5072TIP3   OH215179   5.139   0.204   4.617 -0.7235 -0.1678  0.0161
 5072TIP3    H115180   5.098   0.290   4.624  0.3919  0.3874 -0.0118
 5072TIP3    H215181   5.107   0.169   4.534 -0.0673  0.8537 -0.6966
 5073TIP3   OH215182   1.337   2.130   5.006  0.1765  0.4321  0.0732
 5073TIP3    H115183   1.291   2.139   4.922  0.2280  0.0228 -0.0018
 5073TIP3    H215184   1.338   2.036   5.023 -0.3438  0.5504  0.8229
 5074TIP3   OH215185   3.967   6.741   4.735  0.5176  0.3258  0.2323
 5074TIP3    H115186   4.008   6.654   4.733  1.0284  0.5447  1.0186
 5074TIP3    H215187   4.030   6.796   4.781 -0.2592  0.8815  0.6428
 5075TIP3   OH215188   5.753   4.004   2.639  0.0380 -0.0673  0.1309
 5075TIP3    H115189   5.711   3.960   2.565  1.0354 -1.6843  0.4462
 5075TIP3    H215190   5.683   4.018   2.702 -0.6261  0.3445 -0.6861
 5076TIP3   OH215191   5.461   4.393   1.010  0.1859 -0.4131 -0.2530
 5076TIP3    H115192   5.450   4.482   1.043  1.2085  0.0283 -1.0206
 5076TIP3    H215193   5.373   4.356   1.007 -0.1173  0.1378  1.2390
 5077TIP3   OH215194   2.344   2.799   2.663 -0.0989 -0.0650 -0.1247
 5077TIP3    H115195   2.342   2.881   2.713  3.0336 -0.3544  0.6799
 5077TIP3    H215196   2.257   2.792   2.625 -0.3665  3.9419 -0.7236
 5078TIP3   OH215197   1.432   5.238   2.377 -0.0579  0.3069 -0.6214
 5078TIP3    H115198   1.350   5.266   2.419  0.4400  1.3079 -0.2988
 5078TIP3    H215199   1.481   5.195   2.446  0.2582  0.9075 -0.4665
 5079TIP3   OH215200   1.103   3.081   3.872 -0.2320 -0.8560 -0.2142
 5079TIP3    H115201   1.008   3.084   3.882 -0.5373  0.5232 -2.6584
 5079TIP3    H215202   1.135   3.141   3.940 -1.3524  0.7059 -0.9762
 5080TIP3   OH215203   0.728   3.186   4.524 -0.0431 -0.7253 -0.1156
 5080TIP3    H115204   0.778   3.264   4.547  0.2595 -1.0316  0.2757
 5080TIP3    H215205   0.653   3.219   4.475  0.0706 -0.1907  0.0668
 5081TIP3   OH215206   2.342   1.498   1.639  0.2493 -0.4978  0.1816
 5081TIP3    H115207   2.293   1.563   1.588  1.9969  0.9528  0.2292
 5081TIP3    H215208   2.327   1.524   1.730  0.2919 -0.6824  0.2417
 5082TIP3   OH215209   3.118   4.105   0.825  0.2172 -0.2437  0.8121
 5082TIP3    H115210   3.205   4.132   0.855  0.5638  2.4510 -2.0755
 5082TIP3    H215211   3.057   4.155   0.880  0.7484  2.1183 -0.5937
 5083TIP3   OH215212   0.461   0.018   2.277 -0.1897  0.6743 -0.6203
 5083TIP3    H115213   0.479   0.096   2.328 -2.3120  0.1096  1.1012
 5083TIP3    H215214   0.366   0.010   2.276 -0.0659 -1.5240 -1.2952
 5084TIP3   OH215215   6.373   6.430   3.365 -0.1912 -0.4101 -0.0038
 5084TIP3    H115216   6.425   6.426   3.284 -0.4945 -1.3440 -0.1706
 5084TIP3    H215217   6.408   6.360   3.419  1.6441  1.7063  1.7308
 5085TIP3   OH215218   2.205   2.368   5.626  0.1248  0.2531 -0.6059
 5085TIP3    H115219   2.120   2.331   5.603  1.0741 -2.2276 -0.4178
 5085TIP3    H215220   2.188   2.422   5.703 -1.1818 -0.6584 -0.2250
 5086TIP3   OH215221   2.771   5.071   3.023 -0.1428  0.0300 -0.8794
 5086TIP3    H115222   2.745   5.037   3.109 -1.6710  0.1597 -1.2585
 5086TIP3    H215223   2.780   4.994   2.968 -2.2548  0.0833 -1.3817
 5087TIP3   OH215224   1.631   2.649   3.256 -0.4349 -0.3872  0.3428
 5087TIP3    H115225   1.706   2.591   3.248  0.0750  0.4456 -1.5348
 5087TIP3    H215226   1.564   2.610   3.200 -0.1205  0.7101 -0.8539
 5088TIP3   OH215227   0.017   5.921   1.846 -0.5389  0.1573 -0.0118
 5088TIP3    H115228   0.049   5.831   1.846 -2.1189 -0.4319 -0.5436
 5088TIP3    H215229   0.039   5.954   1.759  0.4459  0.4604  0.3366
 5089TIP3   OH215230   4.511   5.651   4.629 -0.3206 -0.4771  0.2214
 5089TIP3    H115231   4.579   5.674   4.566  2.2653 -0.2871  2.8670
 5089TIP3    H215232   4.558   5.612   4.702 -3.2429 -1.5811  1.6687
 5090TIP3   OH215233   1.107   5.808   5.077  0.1470 -0.4316  0.8741
 5090TIP3    H115234   1.066   5.867   5.141  0.7160 -1.1245  1.9126
 5090TIP3    H215235   1.049   5.811   5.001  0.8397  2.4902  0.3399
 5091TIP3   OH215236   5.221   4.524   5.731  0.5719 -0.0889  0.1030
 5091TIP3    H115237   5.274   4.447   5.711  0.4425 -0.0565 -0.3738
 5091TIP3    H215238   5.250   4.590   5.669 -0.4945 -0.2842 -0.6425
 5092TIP3   OH215239   4.261   6.307   0.699  0.5012 -0.0020  0.1288
 5092TIP3    H115240   4.251   6.213   0.685 -0.3262  0.2738 -1.3536
 5092TIP3    H215241   4.268   6.316   0.794 -1.2833 -1.4054  0.4649
 5093TIP3   OH215242   0.876   1.846   1.851  0.5422  0.1362 -0.0667
 5093TIP3    H115243   0.938   1.790   1.804  2.0061  0.3579  1.4925
 5093TIP3    H215244   0.891   1.934   1.815 -0.3700 -0.1206 -1.1339
 5094TIP3   OH215245   4.632   2.283   4.891  0.2776 -0.1065 -0.0493
 5094TIP3    H115246   4.559   2.239   4.934 -0.1848  0.3884 -0.3172
 5094TIP3    H215247   4.631   2.249   4.802  1.7956 -1.8195  0.5291
 5095TIP3   OH215248   6.933   0.939   2.450  0.5150  0.0746 -0.1391
 5095TIP3    H115249   6.842   0.917   2.429  0.9605 -2.3724  0.2690
 5095TIP3    H215250   6.930   1.033   2.471 -1.7863  0.1923 -0.7054
 5096TIP3   OH215251   5.895   4.031   1.707  0.0442 -0.4728 -0.7273
 5096TIP3    H115252   5.853   3.947   1.723 -0.8309 -0.0116 -0.5776
 5096TIP3    H215253   5.956   4.041   1.781 -1.7340  0.2108  0.7158
 5097TIP3   OH215254   1.688   6.057   5.804 -0.4047  0.5207  0.1387
 5097TIP3    H115255   1.642   5.988   5.757 -0.6162  0.9605 -0.3035
 5097TIP3    H215256   1.628   6.084   5.874  0.0752 -0.4207  0.9459
 5098TIP3   OH215257   4.608   6.276   1.060 -0.1975 -0.2171 -0.2902
 5098TIP3    H115258   4.661   6.356   1.062  1.3429 -1.1919  0.2491
 5098TIP3    H215259   4.585   6.262   1.152 -2.3012  0.7210 -0.6257
 5099TIP3   OH215260   7.061   0.064   0.191 -0.2493 -0.1371 -0.0870
 5099TIP3    H115261   7.141   0.012   0.201  0.2838  0.6571 -0.1976
 5099TIP3    H215262   7.023   0.066   0.279 -0.2313 -0.6225 -0.0615
 5100TIP3   OH215263   2.692   4.894   2.621 -0.3851  0.2211  0.2353
 5100TIP3    H115264   2.737   4.918   2.702  2.8868  2.4051 -1.9868
 5100TIP3    H215265   2.666   4.977   2.582  0.9206 -0.4603 -2.3348
 5101TIP3   OH215266   3.165   3.594   3.483 -0.1005 -0.0620 -0.2624
 5101TIP3    H115267   3.083   3.595   3.434 -0.6375  1.6151  0.5759
 5101TIP3    H215268   3.234   3.598   3.417 -0.7528  0.2049 -0.9310
 5102TIP3   OH215269   1.761   0.069   2.246  0.0628  0.0306  0.4081
 5102TIP3    H115270   1.717  -0.008   2.211  3.1504 -0.7430 -2.3660
 5102TIP3    H215271   1.717   0.143   2.204 -0.2100 -0.5216 -0.2950
 5103TIP3   OH215272   4.234   2.084   4.930 -0.2519 -0.4286 -0.0788
 5103TIP3    H115273   4.298   2.013   4.922  0.7673  0.5093 -0.4465
 5103TIP3    H215274   4.272   2.157   4.881 -1.0547  0.5290  0.6754
 5104TIP3   OH215275   2.796   5.603   0.385 -0.4187 -0.0578  0.1619
 5104TIP3    H115276   2.783   5.664   0.313 -0.0263  1.7903  1.5690
 5104TIP3    H215277   2.890   5.583   0.382 -0.8392 -2.0979 -1.3800
 5105TIP3   OH215278   5.441   0.868   5.845 -0.5882  0.0844  0.3345
 5105TIP3    H115279   5.502   0.861   5.772  0.0731  0.2409  0.8513
 5105TIP3    H215280   5.450   0.959   5.874 -0.3881 -0.1345  0.9828
 5106TIP3   OH215281   1.995   0.000   4.021  0.9587  0.1214 -0.3655
 5106TIP3    H115282   1.914   0.011   3.971 -0.2976 -1.2345  1.2552
 5106TIP3    H215283   1.966  -0.005   4.112  2.7511 -1.5212  0.1671
 5107TIP3   OH215284   6.506   2.618   5.114  0.0230 -0.3583 -0.0364
 5107TIP3    H115285   6.443   2.685   5.141 -0.8733 -2.0496  2.4468
 5107TIP3    H215286   6.463   2.535   5.135  2.8822 -1.6103  1.3717
 5108TIP3   OH215287   1.172   6.338   0.500 -0.3305 -0.6136 -0.2756
 5108TIP3    H115288   1.107   6.380   0.556  0.9414  0.3833  0.4988
 5108TIP3    H215289   1.161   6.245   0.516  0.6425 -0.3437  2.4542
 5109TIP3   OH215290   2.577   1.333   1.019 -0.1657  0.2638 -0.0967
 5109TIP3    H115291   2.566   1.405   0.957 -1.5343 -0.2993 -0.5585
 5109TIP3    H215292   2.510   1.269   0.992  0.6772 -0.9447  0.6132
 5110TIP3   OH215293   5.624   1.652   4.521 -0.0408  0.2709  0.0994
 5110TIP3    H115294   5.626   1.671   4.427  0.6024 -2.3852 -0.5015
 5110TIP3    H215295   5.709   1.613   4.540 -0.1449  0.8027  1.8141
 5111TIP3   OH215296   5.014   5.294   5.840  0.0810 -0.2162 -0.0001
 5111TIP3    H115297   5.065   5.233   5.894  0.0807  0.3110  0.6106
 5111TIP3    H215298   5.079   5.339   5.787  0.3297  0.8218  1.1461
 5112TIP3   OH215299   3.105   5.165   5.073  0.5821 -0.0372  0.1755
 5112TIP3    H115300   3.144   5.106   5.008  1.9564  0.0096  0.9207
 5112TIP3    H215301   3.139   5.135   5.157  1.0017  1.5557  0.6140
 5113TIP3   OH215302   7.120   5.519   0.277 -0.0569  0.0826  0.1141
 5113TIP3    H115303   7.027   5.533   0.295 -0.7707 -2.4187 -1.1517
 5113TIP3    H215304   7.127   5.531   0.182  1.5489  2.9905  0.4994
 5114TIP3   OH215305   4.475   3.130   3.397  0.3626 -0.0243 -0.0997
 5114TIP3    H115306   4.544   3.194   3.378 -0.6253  0.8869 -0.7377
 5114TIP3    H215307   4.464   3.133   3.492  1.2446 -0.2297  0.0113
 5115TIP3   OH215308   0.927   2.155   0.247 -0.0114 -0.2076 -0.2089
 5115TIP3    H115309   0.916   2.108   0.330  3.3819 -0.3149  0.3040
 5115TIP3    H215310   1.013   2.196   0.253 -1.1984  2.9836 -2.2115
 5116TIP3   OH215311   0.966   6.441   2.287  0.1956  0.1317 -0.0599
 5116TIP3    H115312   0.873   6.461   2.296  0.3088  0.2621  1.0111
 5116TIP3    H215313   0.992   6.410   2.374  0.8035 -1.4225 -0.7731
 5117TIP3   OH215314   0.289   5.871   4.966  0.0079  0.1311  0.2936
 5117TIP3    H115315   0.212   5.830   4.927 -0.2164  0.2481  0.6067
 5117TIP3    H215316   0.321   5.805   5.028 -0.7990  0.7102  1.3579
 5118TIP3   OH215317   7.101   5.630   0.748 -0.0288  0.1261 -0.1271
 5118TIP3    H115318   7.152   5.548   0.747 -0.0248  0.1308 -0.4636
 5118TIP3    H215319   7.019   5.606   0.792 -0.9639 -0.6400 -2.1832
 5119TIP3   OH215320   0.278   1.388   3.435  0.9545 -0.0948 -0.2132
 5119TIP3    H115321   0.289   1.315   3.496 -0.4567 -0.1482  0.0046
 5119TIP3    H215322   0.291   1.466   3.489 -0.0312 -0.1493  0.1301
 5120TIP3   OH215323   2.037   6.099   2.320  0.3083  0.2071 -0.7564
 5120TIP3    H115324   1.989   6.114   2.239 -0.5408 -0.7703 -0.4475
 5120TIP3    H215325   2.104   6.034   2.297 -1.9303 -2.5377 -0.0328
 5121TIP3   OH215326   0.276   1.938   5.500 -0.0318 -0.2994  0.1965
 5121TIP3    H115327   0.228   1.993   5.562  0.1658 -1.0101  0.9994
 5121TIP3    H215328   0.231   1.854   5.504 -1.2249  0.1548 -2.0737
 5122TIP3   OH215329   3.898   2.798   2.808 -0.1764 -0.2510 -0.5558
 5122TIP3    H115330   3.807   2.783   2.780 -0.8037  0.2939  1.0625
 5122TIP3    H215331   3.925   2.876   2.759 -0.3261 -0.7961 -1.5482
 5123TIP3   OH215332   3.648   6.462   4.864 -0.2050  0.5300 -0.1486
 5123TIP3    H115333   3.717   6.432   4.924  1.1867  1.2136 -1.3487
 5123TIP3    H215334   3.695   6.511   4.797 -1.8264  0.5565 -1.3067
 5124TIP3   OH215335   3.610   4.078   3.972 -0.5996  0.0997  0.1130
 5124TIP3    H115336   3.515   4.090   3.979 -0.3096  2.1938  1.5808
 5124TIP3    H215337   3.639   4.151   3.918  0.4363  1.2695  2.1333
 5125TIP3   OH215338   0.838   2.514   3.944  0.6599  0.2651  0.4135
 5125TIP3    H115339   0.783   2.438   3.929  0.8216 -0.0427  1.2991
 5125TIP3    H215340   0.896   2.518   3.868 -1.1219  1.1095 -0.9545
 5126TIP3   OH215341   1.559   1.213   4.904 -0.0823 -0.2305 -0.2311
 5126TIP3    H115342   1.538   1.294   4.857  4.3281  1.1931 -0.2214
 5126TIP3    H215343   1.584   1.151   4.836 -0.1098 -0.4172 -0.0723
 5127TIP3   OH215344   4.491   4.980   2.911  0.1524  0.1329  0.1557
 5127TIP3    H115345   4.444   4.929   2.845  0.5229  0.5200 -0.4091
 5127TIP3    H215346   4.455   5.068   2.903 -1.3780 -0.2627  1.9649
 5128TIP3   OH215347   1.269   0.736   2.648  0.5993 -0.3288 -0.6458
 5128TIP3    H115348   1.184   0.770   2.677  0.2021 -1.7816  0.0414
 5128TIP3    H215349   1.252   0.699   2.561  0.9570  0.9250 -1.2605
 5129TIP3   OH215350   0.629   0.830   1.318 -0.0386 -0.3062 -0.3896
 5129TIP3    H115351   0.557   0.889   1.342  2.0242  1.8087  1.0031
 5129TIP3    H215352   0.643   0.846   1.225 -0.2983  0.5217 -0.2923
 5130TIP3   OH215353   4.841   0.340   1.524  0.4498  0.1173  0.0470
 5130TIP3    H115354   4.761   0.298   1.554  1.1979 -1.0771  0.4554
 5130TIP3    H215355   4.813   0.400   1.455 -0.8153 -0.0685  0.3745
 5131TIP3   OH215356   2.402   5.310   4.185 -0.0150  0.5325  0.1636
 5131TIP3    H115357   2.460   5.366   4.133  0.2141  0.4461  0.3233
 5131TIP3    H215358   2.314   5.344   4.168 -0.3581 -1.4914 -2.8671
 5132TIP3   OH215359   6.159   1.847   2.634  0.0458 -0.0039  1.1227
 5132TIP3    H115360   6.091   1.786   2.606 -1.3550  2.4095 -1.2181
 5132TIP3    H215361   6.235   1.825   2.580 -0.6771  0.6416 -0.2281
 5133TIP3   OH215362   0.059   5.022   3.522  0.0084  0.1051 -0.4966
 5133TIP3    H115363   0.046   5.086   3.592  1.3453  1.5297 -1.4833
 5133TIP3    H215364  -0.025   5.020   3.476 -0.3589  0.3929  0.1386
 5134TIP3   OH215365   0.421   0.994   2.285  0.1119 -0.0135 -0.1132
 5134TIP3    H115366   0.429   1.088   2.268  0.6913 -0.2701 -1.4235
 5134TIP3    H215367   0.346   0.966   2.233 -1.6188  0.1045  2.1680
 5135TIP3   OH215368   2.998   0.927   5.487 -0.0894 -0.0096  0.0084
 5135TIP3    H115369   2.998   1.010   5.534  0.7279  0.4625 -0.7763
 5135TIP3    H215370   3.091   0.904   5.480 -0.3066 -1.0171  0.2547
 5136TIP3   OH215371   5.838   2.861   2.298  0.0923  0.1074 -0.2765
 5136TIP3    H115372   5.832   2.766   2.308 -1.9576 -0.0742 -2.4144
 5136TIP3    H215373   5.768   2.896   2.352 -0.4666  0.2374 -1.0711
 5137TIP3   OH215374   4.673   0.431   2.794  0.3719  0.2238 -0.7187
 5137TIP3    H115375   4.740   0.494   2.818  0.6735 -0.5675  0.6363
 5137TIP3    H215376   4.615   0.479   2.735  1.1264  1.4485 -0.5071
 5138TIP3   OH215377   6.501   0.492   0.778 -0.2157 -0.1585 -0.1674
 5138TIP3    H115378   6.539   0.442   0.851  0.8586  0.4111 -0.3285
 5138TIP3    H215379   6.564   0.561   0.760 -0.9007  0.2578 -1.0569
 5139TIP3   OH215380   2.658   3.998   4.599  0.0148 -0.3457  0.0885
 5139TIP3    H115381   2.605   3.976   4.676 -0.3011 -1.3365 -0.4029
 5139TIP3    H215382   2.721   4.063   4.631 -0.1805 -0.6682  1.1617
 5140TIP3   OH215383   0.317   5.493   2.756 -0.2958 -0.3094 -0.4016
 5140TIP3    H115384   0.222   5.504   2.755 -0.3849 -0.8774  0.8316
 5140TIP3    H215385   0.331   5.399   2.765  0.3797 -0.1686  0.1356
 5141TIP3   OH215386   3.426   6.020   2.131  0.0874  0.5495  0.2960
 5141TIP3    H115387   3.357   5.989   2.071  1.2956 -0.1867 -0.7768
 5141TIP3    H215388   3.487   6.068   2.074  0.7935  0.6353  1.1085
 5142TIP3   OH215389   5.078   3.769   2.119  0.1558 -0.3568  1.1681
 5142TIP3    H115390   4.992   3.760   2.160  0.1309 -1.2093  0.9484
 5142TIP3    H215391   5.110   3.679   2.111  0.7543 -0.0991  0.5852
 5143TIP3   OH215392   3.575   4.828   1.835 -1.0109 -0.3997  0.2768
 5143TIP3    H115393   3.483   4.842   1.854 -1.3032 -0.5302 -0.9796
 5143TIP3    H215394   3.619   4.844   1.918 -1.9578  1.6732  0.4449
 5144TIP3   OH215395   1.947   2.111   5.713  0.3263 -0.4206  0.7217
 5144TIP3    H115396   1.872   2.146   5.762 -0.9938 -1.3149 -0.5593
 5144TIP3    H215397   1.952   2.168   5.636  0.8867 -0.4525  0.7340
 5145TIP3   OH215398   1.366   1.021   5.294 -0.2040 -0.1221  0.1867
 5145TIP3    H115399   1.357   1.096   5.352 -1.1282 -1.3666  1.7304
 5145TIP3    H215400   1.301   1.037   5.225 -0.0079  0.7491  0.1957
 5146TIP3   OH215401   5.072   4.926   0.772 -0.4931  0.1316  0.3029
 5146TIP3    H115402   5.069   5.020   0.793 -1.2909  1.2034 -3.7988
 5146TIP3    H215403   5.159   4.912   0.736 -0.8315 -0.3961 -0.3150
 5147TIP3   OH215404   0.560   0.988   5.025 -0.0362  0.9210 -0.4369
 5147TIP3    H115405   0.518   1.056   5.077  1.9629  1.8458  0.0763
 5147TIP3    H215406   0.583   1.031   4.943 -0.1903  0.4051 -0.7527
 5148TIP3   OH215407   1.915   2.372   2.620  0.3635  0.7010 -0.5218
 5148TIP3    H115408   1.942   2.334   2.537 -0.5123 -0.4763 -0.2992
 5148TIP3    H215409   1.820   2.368   2.619  0.3521 -0.1873  0.8931
 5149TIP3   OH215410   6.757   1.381   5.484 -0.1277 -0.0275  0.3352
 5149TIP3    H115411   6.722   1.300   5.446  0.6779 -0.4012  0.3707
 5149TIP3    H215412   6.824   1.351   5.546  0.4239  0.6753  0.0957
 5150TIP3   OH215413   1.838   0.049   0.894 -0.6748  0.1193 -0.3723
 5150TIP3    H115414   1.783   0.043   0.973  0.3813 -1.6408  0.2845
 5150TIP3    H215415   1.905   0.114   0.917 -1.4261  0.9609 -0.5195
 5151TIP3   OH215416   4.770   4.375   0.223 -0.7013  0.3727 -0.0350
 5151TIP3    H115417   4.828   4.362   0.298 -0.8484  0.3031  0.0670
 5151TIP3    H215418   4.711   4.300   0.224 -0.7226  0.3857 -0.2044
 5152TIP3   OH215419   4.632   4.979   1.039 -0.3778  0.3204 -0.1053
 5152TIP3    H115420   4.693   4.958   0.969 -0.8473  0.2534 -0.4991
 5152TIP3    H215421   4.685   5.025   1.104  0.8564 -2.5655  1.0894
 5153TIP3   OH215422   0.724   4.854   1.302 -0.3815  0.2064 -0.9656
 5153TIP3    H115423   0.770   4.938   1.302 -1.0805  0.6120  0.1116
 5153TIP3    H215424   0.794   4.789   1.295  0.5398  0.7730  1.7210
 5154TIP3   OH215425   6.662   3.969   3.420 -0.1187 -0.2368 -0.6861
 5154TIP3    H115426   6.757   3.956   3.422 -0.1915 -0.8446  0.8000
 5154TIP3    H215427   6.647   4.033   3.351  1.5181  0.9506  0.0019
 5155TIP3   OH215428   4.581   1.522   0.164  0.9840 -0.2917  0.0197
 5155TIP3    H115429   4.502   1.555   0.206  0.8697  0.2432 -0.5885
 5155TIP3    H215430   4.584   1.429   0.188 -1.2402 -1.0081 -1.9643
 5156TIP3   OH215431   0.010   6.320   2.192  0.1988 -0.5402  0.1834
 5156TIP3    H115432   0.053   6.406   2.190  0.6701 -0.7340  1.2588
 5156TIP3    H215433   0.079   6.259   2.216 -0.3498 -1.0802  0.4195
 5157TIP3   OH215434   3.417   2.175   0.546  0.6404  0.0028 -0.0729
 5157TIP3    H115435   3.438   2.093   0.590  0.7562  0.2535  0.3390
 5157TIP3    H215436   3.341   2.209   0.594  1.0430  0.4991  0.2225
 5158TIP3   OH215437   2.893   2.837   3.797  0.0706  0.0360 -0.7597
 5158TIP3    H115438   2.942   2.919   3.808 -0.8792  0.4786  0.4229
 5158TIP3    H215439   2.924   2.781   3.867  0.1132 -0.3168 -1.0589
 5159TIP3   OH215440   1.520   4.507   2.220  0.6402 -0.0994 -0.3777
 5159TIP3    H115441   1.455   4.577   2.230 -0.0151 -0.7389 -0.0677
 5159TIP3    H215442   1.495   4.462   2.140  1.2248  0.1823 -0.7221
 5160TIP3   OH215443   5.859   2.079   1.498  0.5136  0.6442 -0.0971
 5160TIP3    H115444   5.907   2.153   1.461  1.7651 -0.0599  0.0304
 5160TIP3    H215445   5.767   2.099   1.484  0.8609  1.8985 -0.6646
 5161TIP3   OH215446   2.833   6.247   5.459 -0.4359  0.0664 -0.2283
 5161TIP3    H115447   2.906   6.201   5.501 -0.0898 -1.4991 -2.3941
 5161TIP3    H215448   2.797   6.184   5.396 -3.5005  0.8966  0.5220
 5162TIP3   OH215449   7.148   3.895   0.869  0.2466 -0.5197  0.3811
 5162TIP3    H115450   7.174   3.861   0.783 -1.2792  0.4495 -0.5036
 5162TIP3    H215451   7.064   3.852   0.888 -0.0434  0.2084  0.7973
 5163TIP3   OH215452   4.253   1.122   4.166  0.1928 -0.4471 -0.0437
 5163TIP3    H115453   4.280   1.039   4.205  1.9306 -1.0353 -2.2721
 5163TIP3    H215454   4.309   1.188   4.208  0.4334 -0.7273  0.0726
 5164TIP3   OH215455   0.804   3.025   0.791 -0.4435  0.4658 -0.0794
 5164TIP3    H115456   0.871   3.034   0.723 -1.7386  0.0309 -1.4598
 5164TIP3    H215457   0.841   2.962   0.853  1.1020  1.4861  0.0896
 5165TIP3   OH215458   4.562   3.870   3.864 -0.6233  0.4442 -0.5858
 5165TIP3    H115459   4.506   3.808   3.910 -0.6661  1.5678  0.9736
 5165TIP3    H215460   4.522   3.878   3.777 -0.7251 -1.5120 -0.7642
 5166TIP3   OH215461   5.030   2.291   0.874  0.3584  0.0350 -0.2149
 5166TIP3    H115462   5.051   2.284   0.968 -1.4212 -0.2406  0.1959
 5166TIP3    H215463   5.079   2.220   0.834 -1.2357 -1.8657  0.9930
 5167TIP3   OH215464   5.213   3.045   5.594 -0.9462 -0.0030 -0.3351
 5167TIP3    H115465   5.250   3.050   5.682 -0.8083 -0.3961 -0.3681
 5167TIP3    H215466   5.237   2.958   5.563  0.8627  0.8724 -1.5839
 5168TIP3   OH215467   3.060   4.458   1.079 -0.6242  0.0520 -0.2386
 5168TIP3    H115468   2.968   4.460   1.103 -0.8238 -0.0332 -0.9803
 5168TIP3    H215469   3.062   4.485   0.987 -0.0030 -0.8091 -0.4944
 5169TIP3   OH215470   1.204   2.803   2.700 -0.1721 -0.1604  0.0934
 5169TIP3    H115471   1.208   2.864   2.773  2.2338  0.9297 -0.8263
 5169TIP3    H215472   1.155   2.850   2.633  0.7478  0.3913 -0.2254
 5170TIP3   OH215473   3.960   6.789   0.139  0.1050 -0.4363  0.3803
 5170TIP3    H115474   3.963   6.777   0.044  1.3342 -2.4001  0.6085
 5170TIP3    H215475   3.994   6.707   0.175  1.6796  1.0219  2.4681
 5171TIP3   OH215476   0.562   5.132   3.177 -0.1675 -0.4133 -0.4246
 5171TIP3    H115477   0.473   5.111   3.205 -0.4315  1.4508  0.2760
 5171TIP3    H215478   0.618   5.081   3.235 -0.7696 -0.1517  0.4090
 5172TIP3   OH215479   4.529   4.531   5.312  0.5363 -0.7756 -0.5615
 5172TIP3    H115480   4.463   4.494   5.370 -1.1073  0.2673 -1.7111
 5172TIP3    H215481   4.556   4.612   5.355  1.3552 -1.3487  0.0584
 5173TIP3   OH215482   4.611   4.361   1.971 -0.2911 -0.2280  0.0272
 5173TIP3    H115483   4.574   4.279   1.938 -0.6061 -0.4578  0.9147
 5173TIP3    H215484   4.552   4.429   1.938 -1.3446 -0.5620  1.1303
 5174TIP3   OH215485   0.896   6.632   4.920 -0.2097  0.0598 -0.1465
 5174TIP3    H115486   0.952   6.559   4.949 -0.9369 -0.4729 -0.0521
 5174TIP3    H215487   0.846   6.655   4.998  1.5119  2.1051  0.4419
 5175TIP3   OH215488   1.304   6.570   0.537  0.3010 -0.0113  0.2391
 5175TIP3    H115489   1.259   6.488   0.516 -0.4133 -0.5050  3.2601
 5175TIP3    H215490   1.237   6.637   0.525 -0.3765 -0.3915  1.6153
 5176TIP3   OH215491   2.848   5.710   1.178 -0.3038  0.2198  0.8275
 5176TIP3    H115492   2.759   5.698   1.212 -0.7267  0.2141 -0.2267
 5176TIP3    H215493   2.839   5.695   1.084  0.7235  0.7304  0.6384
 5177TIP3   OH215494   1.091   2.708   4.724 -0.5779 -0.7625 -0.0840
 5177TIP3    H115495   1.167   2.665   4.687  0.1992  0.5875 -0.1254
 5177TIP3    H215496   1.016   2.659   4.689  0.2188 -1.1790 -1.2801
 5178TIP3   OH215497   3.755   6.392   5.856  0.2639 -0.0647 -0.0879
 5178TIP3    H115498   3.742   6.306   5.814 -1.9336  0.1635  0.0383
 5178TIP3    H215499   3.784   6.371   5.945 -0.2764 -0.6694 -0.0484
 5179TIP3   OH215500   7.118   0.849   3.997 -0.4326 -0.1798  0.0268
 5179TIP3    H115501   7.089   0.937   4.022  0.6402  0.3524 -0.5279
 5179TIP3    H215502   7.066   0.790   4.052 -0.6990  0.8198  0.8777
 5180TIP3   OH215503   5.932   3.966   0.102  0.0824  0.6212 -0.1762
 5180TIP3    H115504   6.012   3.950   0.152 -0.3568  0.5901  0.5371
 5180TIP3    H215505   5.960   3.966   0.011  0.7976  0.0581  0.0363
 5181TIP3   OH215506   3.360   0.922   0.097 -0.0980 -0.5037  0.0559
 5181TIP3    H115507   3.418   0.880   0.160  1.5504  2.6477  0.8316
 5181TIP3    H215508   3.272   0.905   0.131  0.6963  0.4225  2.8802
 5182TIP3   OH215509   3.061   1.553   5.576  0.3767 -0.5106 -0.2302
 5182TIP3    H115510   3.097   1.514   5.656 -2.4334  1.3766  2.1658
 5182TIP3    H215511   2.969   1.567   5.595 -0.3322  0.5199 -3.6961
 5183TIP3   OH215512   5.893   5.354   1.934  0.1522  0.3436  0.2570
 5183TIP3    H115513   5.896   5.262   1.908 -0.4085 -0.0002  1.3641
 5183TIP3    H215514   5.835   5.395   1.870  0.2849 -0.0976 -0.1485
 5184TIP3   OH215515   4.836   2.627   2.060 -0.2785  0.4453 -0.2579
 5184TIP3    H115516   4.786   2.623   1.979 -1.0645  2.7956  0.0375
 5184TIP3    H215517   4.788   2.689   2.115  1.7426  1.0481  0.9264
 5185TIP3   OH215518   1.852   5.531   3.747 -0.3536  0.2722 -0.3976
 5185TIP3    H115519   1.932   5.568   3.784 -0.9675  0.7742  0.4759
 5185TIP3    H215520   1.880   5.486   3.668  1.0757 -1.1875  0.8811
 5186TIP3   OH215521   2.900   4.510   4.100 -0.1618 -0.0637 -0.0061
 5186TIP3    H115522   2.850   4.571   4.156  1.6822  3.6665 -2.0184
 5186TIP3    H215523   2.850   4.508   4.018 -0.1959 -1.3541  0.0376
 5187TIP3   OH215524   6.217   5.221   2.557  0.0210 -0.2163  0.2301
 5187TIP3    H115525   6.264   5.258   2.482  1.4434 -1.2800  0.5588
 5187TIP3    H215526   6.143   5.175   2.519 -1.1679  1.9688 -0.2635
 5188TIP3   OH215527   4.352   4.299   0.048  0.1625 -0.3384  0.1724
 5188TIP3    H115528   4.367   4.264  -0.040  1.3902 -1.9412  0.9631
 5188TIP3    H215529   4.259   4.321   0.050  0.4586  1.4841 -2.0878
 5189TIP3   OH215530   5.196   2.880   3.081 -0.3607 -0.0756 -0.4884
 5189TIP3    H115531   5.150   2.882   3.166  0.6485 -0.0021  0.0675
 5189TIP3    H215532   5.127   2.857   3.018 -1.4626  1.3995  0.1230
 5190TIP3   OH215533   4.409   4.629   3.221 -0.3726  0.8274 -0.3274
 5190TIP3    H115534   4.333   4.631   3.163  0.9517 -0.4687 -2.2286
 5190TIP3    H215535   4.484   4.649   3.164  0.9704 -0.2142  0.9762
 5191TIP3   OH215536   6.937   5.821   0.596 -0.3403 -0.5650 -0.0414
 5191TIP3    H115537   6.987   5.751   0.637  1.0392 -0.0430 -0.7527
 5191TIP3    H215538   6.991   5.899   0.609 -0.4386 -0.1712 -1.7630
 5192TIP3   OH215539   6.469   5.755   0.932 -0.0633  0.0417  0.4094
 5192TIP3    H115540   6.375   5.767   0.919 -0.3785 -0.8870  1.6136
 5192TIP3    H215541   6.497   5.704   0.856 -0.5922  0.0841  0.1792
 5193TIP3   OH215542   5.720   0.711   1.866  0.3196 -0.3621  0.2115
 5193TIP3    H115543   5.738   0.618   1.857 -1.1454 -0.5229 -1.6567
 5193TIP3    H215544   5.631   0.722   1.833  0.4584  1.6956  0.3709
 5194TIP3   OH215545   2.327   1.117   0.504 -0.1920  0.2813  0.3046
 5194TIP3    H115546   2.352   1.142   0.415 -2.1458 -0.6776 -0.5856
 5194TIP3    H215547   2.248   1.169   0.522 -0.6470 -0.5929  0.8946
 5195TIP3   OH215548   0.487   3.710   5.340  0.1144 -0.4087  0.2187
 5195TIP3    H115549   0.579   3.685   5.348  0.0171 -0.7286  0.3229
 5195TIP3    H215550   0.483   3.758   5.257  0.2672 -0.8777 -0.0604
 5196TIP3   OH215551   4.729   1.944   0.227 -0.1170  0.5860  0.0652
 5196TIP3    H115552   4.724   2.035   0.254 -0.0985  0.3518  0.8693
 5196TIP3    H215553   4.678   1.896   0.292 -0.6044  0.0853 -0.6647
 5197TIP3   OH215554   5.456   2.729   3.991 -0.0771 -0.2300  0.2117
 5197TIP3    H115555   5.508   2.724   3.911 -0.7841 -0.0494 -0.2689
 5197TIP3    H215556   5.372   2.689   3.968 -0.9778  1.5209  0.2752
 5198TIP3   OH215557   6.138   1.357   4.062  0.8219  0.2446 -0.3007
 5198TIP3    H115558   6.220   1.383   4.021  1.3809  1.1889  1.3035
 5198TIP3    H215559   6.133   1.412   4.141 -0.8820 -0.4682  0.1197
 5199TIP3   OH215560   1.967   2.907   3.494  0.0043  0.1436  0.2256
 5199TIP3    H115561   1.900   2.865   3.440  0.5358 -0.3263 -0.0776
 5199TIP3    H215562   1.924   2.919   3.579 -0.3087 -0.5860  0.1776
 5200TIP3   OH215563   3.442   3.843   4.107  0.0672 -0.2979 -0.2016
 5200TIP3    H115564   3.510   3.862   4.172  0.0502  0.8912 -0.5197
 5200TIP3    H215565   3.490   3.829   4.025 -0.1050  2.5274 -0.8939
 5201TIP3   OH215566   3.291   5.039   5.681  0.6875 -1.3122 -0.9057
 5201TIP3    H115567   3.324   4.977   5.745  0.5624  1.2616  1.8430
 5201TIP3    H215568   3.364   5.099   5.666 -0.0132 -0.5729 -1.4416
 5202TIP3   OH215569   5.788   4.282   3.283 -0.5230  0.2734 -0.0951
 5202TIP3    H115570   5.822   4.196   3.308 -0.7648  0.5903  1.3949
 5202TIP3    H215571   5.856   4.319   3.226 -0.4439 -0.9115 -0.8055
 5203TIP3   OH215572   4.707   2.327   2.824 -0.7618  0.1697  0.5080
 5203TIP3    H115573   4.768   2.290   2.887 -1.4805  0.8836  1.6699
 5203TIP3    H215574   4.718   2.274   2.745  1.5981  0.5169  0.5491
 5204TIP3   OH215575   1.792   3.665   2.484  0.6088  0.3652  0.2130
 5204TIP3    H115576   1.783   3.719   2.563  0.7709 -0.4474  0.8015
 5204TIP3    H215577   1.771   3.576   2.514 -1.2493  0.3174 -1.0818
 5205TIP3   OH215578   5.283   0.574   2.436 -0.1347  0.1492 -0.2173
 5205TIP3    H115579   5.224   0.589   2.362 -0.0319 -0.9827 -0.5600
 5205TIP3    H215580   5.271   0.649   2.493 -0.7229  0.7081 -1.0622
 5206TIP3   OH215581   5.675   1.509   5.539  0.3126 -0.1395 -0.3460
 5206TIP3    H115582   5.684   1.596   5.579  2.4416 -0.1762 -0.6417
 5206TIP3    H215583   5.705   1.448   5.606  0.5614 -0.5033 -0.7846
 5207TIP3   OH215584   6.751   1.025   3.417  0.2207  0.2501  0.3418
 5207TIP3    H115585   6.758   1.120   3.412 -1.6524  0.3811 -0.3111
 5207TIP3    H215586   6.734   1.007   3.509  1.3122  0.4592  0.6032
 5208TIP3   OH215587   1.043   5.648   3.563  0.6534 -0.3660 -0.3590
 5208TIP3    H115588   1.114   5.601   3.518  0.3186 -0.8862 -0.3595
 5208TIP3    H215589   0.971   5.650   3.499  1.0575  1.2120 -0.8012
 5209TIP3   OH215590   1.797   4.346   3.948  0.3093  0.3816 -0.4853
 5209TIP3    H115591   1.880   4.308   3.918  0.6640  1.3946 -0.8320
 5209TIP3    H215592   1.731   4.280   3.926  1.0732 -0.6679  0.2809
 5210TIP3   OH215593   6.931   2.246   3.329 -0.2597  0.1319 -0.1240
 5210TIP3    H115594   6.839   2.231   3.306 -0.1359 -1.0045  0.0739
 5210TIP3    H215595   6.955   2.171   3.384  1.0458 -0.0908 -0.9494
 5211TIP3   OH215596   1.184   4.215   2.068  0.3236  0.0119 -0.0119
 5211TIP3    H115597   1.253   4.274   2.038  0.7334  0.2252  1.3103
 5211TIP3    H215598   1.106   4.271   2.075  0.5031  0.2178  0.3997
 5212TIP3   OH215599   6.626   2.338   3.926  0.2341 -0.0120 -0.1191
 5212TIP3    H115600   6.586   2.286   3.996 -1.8186 -0.1112 -1.2804
 5212TIP3    H215601   6.669   2.273   3.870  0.5927 -0.0915  0.2480
 5213TIP3   OH215602   4.607   5.418   3.030 -0.1432  0.4463 -0.0063
 5213TIP3    H115603   4.585   5.507   3.005  2.9601  1.5907  0.9170
 5213TIP3    H215604   4.648   5.380   2.953  1.8412  1.1328  0.6548
 5214TIP3   OH215605   1.927   0.299   3.795 -0.0443  0.0529  0.2501
 5214TIP3    H115606   1.895   0.231   3.855 -1.8885  0.0383 -0.6577
 5214TIP3    H215607   1.865   0.372   3.806 -1.0946 -0.3362 -2.2897
 5215TIP3   OH215608   4.298   1.291   4.463  0.7724 -0.4286  0.2166
 5215TIP3    H115609   4.226   1.351   4.484  0.9802  0.5346 -1.6784
 5215TIP3    H215610   4.256   1.205   4.454 -0.1503  0.1150 -0.8346
 5216TIP3   OH215611   1.663   6.522   3.494  0.5358 -0.1750 -0.3900
 5216TIP3    H115612   1.754   6.548   3.477  0.7433 -0.3443  0.4116
 5216TIP3    H215613   1.616   6.547   3.415  1.3631 -0.4868 -0.9979
 5217TIP3   OH215614   4.484   0.440   2.342  0.1787 -0.3002  0.2850
 5217TIP3    H115615   4.504   0.498   2.269  0.8804 -2.1481 -1.0510
 5217TIP3    H215616   4.566   0.397   2.363 -0.1198 -0.1788  1.8854
 5218TIP3   OH215617   6.116   2.099   4.582 -0.4117  0.3731 -0.1133
 5218TIP3    H115618   6.103   2.126   4.491 -2.2535  1.8953  0.5263
 5218TIP3    H215619   6.028   2.079   4.614  0.3363 -1.3919  1.0137
 5219TIP3   OH215620   1.960   1.336   4.713 -0.3205 -0.0902  0.3765
 5219TIP3    H115621   2.048   1.370   4.694 -0.7677  0.0830 -1.6101
 5219TIP3    H215622   1.974   1.244   4.735  0.5668  0.4991  2.5606
 5220TIP3   OH215623   3.629   2.512   2.211  0.2861 -0.1550 -0.4774
 5220TIP3    H115624   3.627   2.607   2.218  1.7526 -0.1767  0.6093
 5220TIP3    H215625   3.716   2.492   2.178  1.0428 -1.2296  1.9621
 5221TIP3   OH215626   3.521   1.576   4.991  0.0380 -0.1887  0.1561
 5221TIP3    H115627   3.551   1.509   4.929 -1.0158 -0.3505 -0.2054
 5221TIP3    H215628   3.427   1.582   4.975 -0.1887  0.0377  1.4942
 5222TIP3   OH215629   6.323   2.929   5.887 -0.1615  0.0045  0.0434
 5222TIP3    H115630   6.374   2.981   5.825  1.8400 -0.8699  0.8713
 5222TIP3    H215631   6.233   2.960   5.876  0.6006  1.9954 -1.1096
 5223TIP3   OH215632   0.250   2.185   5.271 -0.1499  0.5186  0.3720
 5223TIP3    H115633   0.247   2.218   5.360  0.9585  0.0881  0.5881
 5223TIP3    H215634   0.323   2.123   5.271  0.8618  1.6256 -1.1989
 5224TIP3   OH215635   2.927   1.084   3.465  0.3487  0.0277  0.3437
 5224TIP3    H115636   2.994   1.143   3.431  0.3343 -0.3524 -0.3586
 5224TIP3    H215637   2.975   1.018   3.514  0.3193  0.9936  1.7375
 5225TIP3   OH215638   7.029   2.366   5.307  0.0269 -0.4294 -0.5680
 5225TIP3    H115639   7.046   2.449   5.263 -2.2033 -0.4868 -1.6831
 5225TIP3    H215640   7.070   2.376   5.393  0.5103  1.4912 -0.9620
 5226TIP3   OH215641   6.792   3.608   3.290  0.0425  0.2935  0.0166
 5226TIP3    H115642   6.842   3.634   3.213 -0.7480 -0.8247 -0.8918
 5226TIP3    H215643   6.857   3.608   3.361  1.1468 -0.3092 -0.9661
 5227TIP3   OH215644   3.456   3.426   2.570 -0.0329  0.3277  0.3839
 5227TIP3    H115645   3.473   3.332   2.577  1.1865  0.6504  2.4388
 5227TIP3    H215646   3.365   3.436   2.600 -0.2319 -0.2028 -0.0308
 5228TIP3   OH215647   1.980   6.073   5.798  0.1771  0.1537 -0.0249
 5228TIP3    H115648   2.011   6.158   5.831 -0.7478  0.6563 -0.3876
 5228TIP3    H215649   1.885   6.077   5.811 -0.2212  0.3006 -2.5329
 5229TIP3   OH215650   1.948   2.395   4.182 -0.3513 -0.5859  0.2126
 5229TIP3    H115651   1.868   2.354   4.216 -1.1931  0.1232 -0.8402
 5229TIP3    H215652   1.988   2.436   4.259 -1.6057  0.0052  0.5835
 5230TIP3   OH215653   3.338   6.184   0.461  0.0079  0.4009 -0.6712
 5230TIP3    H115654   3.265   6.210   0.516 -0.7969  1.1077 -2.0075
 5230TIP3    H215655   3.320   6.092   0.439 -0.0355  0.3287 -0.3347
 5231TIP3   OH215656   5.735   6.670   5.119  0.2414  0.1170  0.4009
 5231TIP3    H115657   5.750   6.728   5.193 -1.1021 -0.0784  0.8648
 5231TIP3    H215658   5.727   6.583   5.157 -3.0395  0.3082  0.4645
 5232TIP3   OH215659   4.192   4.820   5.342  0.7386  0.5657 -0.5266
 5232TIP3    H115660   4.224   4.860   5.422  0.1662  0.4627 -0.2371
 5232TIP3    H215661   4.184   4.892   5.280 -2.5699  1.4376  0.6945
 5233TIP3   OH215662   2.015   0.629   5.032 -0.0661  0.5087 -0.0256
 5233TIP3    H115663   1.986   0.539   5.042  0.8758  0.2825  0.8518
 5233TIP3    H215664   2.109   0.626   5.050  0.1060  1.5520 -0.6741
 5234TIP3   OH215665   6.022   0.854   5.714 -0.4882  0.2553 -0.3289
 5234TIP3    H115666   6.032   0.926   5.776 -0.3227  0.2945 -0.3999
 5234TIP3    H215667   5.943   0.808   5.743 -0.5240  0.3910 -0.2090
 5235TIP3   OH215668   0.767   1.666   1.369  0.4282  0.3484  0.1829
 5235TIP3    H115669   0.756   1.753   1.408 -0.9113 -0.2797  1.2524
 5235TIP3    H215670   0.687   1.619   1.392  1.4409 -1.4074  0.2498
 5236TIP3   OH215671   3.698   3.749   0.589 -0.2942 -0.0384 -0.0668
 5236TIP3    H115672   3.782   3.708   0.569  0.4879  2.0553 -1.4873
 5236TIP3    H215673   3.686   3.737   0.683 -0.1555 -3.4064 -0.3773
 5237TIP3   OH215674   2.881   1.561   5.069 -0.1213 -0.1979  0.5514
 5237TIP3    H115675   2.839   1.561   4.984 -0.8917  0.5049  0.9139
 5237TIP3    H215676   2.813   1.591   5.130  0.3690 -0.8194  1.4299
 5238TIP3   OH215677   1.572   5.240   5.369 -1.1702  0.8928 -0.8125
 5238TIP3    H115678   1.506   5.177   5.397  0.2960 -0.6590 -0.6405
 5238TIP3    H215679   1.589   5.293   5.447  0.7934 -1.5104  0.5418
 5239TIP3   OH215680   0.182   5.398   2.392  0.6257  0.0746 -0.0973
 5239TIP3    H115681   0.221   5.313   2.413 -1.8040 -1.0387  0.3035
 5239TIP3    H215682   0.159   5.391   2.299 -1.8289 -0.7877  0.4870
 5240TIP3   OH215683   1.947   0.836   1.521 -0.1899  0.2730  0.4827
 5240TIP3    H115684   1.945   0.904   1.588  1.3067 -0.0321  0.8692
 5240TIP3    H215685   1.857   0.804   1.516 -0.7109  1.5958  0.9916
 5241TIP3   OH215686   0.237   6.231   1.459  0.0258  0.0406  0.0368
 5241TIP3    H115687   0.261   6.290   1.387  0.4847  1.6086  1.4088
 5241TIP3    H215688   0.320   6.207   1.499 -0.2800  0.1311  0.7441
 5242TIP3   OH215689   0.904   5.273   5.055  0.2519  0.1515 -0.5069
 5242TIP3    H115690   0.928   5.252   5.145 -0.0212  0.7314 -0.2943
 5242TIP3    H215691   0.816   5.311   5.062 -0.2575 -0.8411 -1.1378
 5243TIP3   OH215692   2.311   1.839   5.803 -0.5399 -0.0939 -0.4513
 5243TIP3    H115693   2.219   1.816   5.796 -0.2700 -0.9706 -1.3647
 5243TIP3    H215694   2.353   1.794   5.730  0.3644  1.6595 -1.0737
 5244TIP3   OH215695   5.070   1.717   2.592 -0.1554  1.0823 -0.2652
 5244TIP3    H115696   5.141   1.690   2.533  0.1585  0.6332  0.3079
 5244TIP3    H215697   5.112   1.773   2.656  0.1540 -0.9081  1.3727
 5245TIP3   OH215698   5.844   2.872   4.529  0.2147  0.0793  0.3020
 5245TIP3    H115699   5.840   2.783   4.493 -0.5080  0.2391 -0.0291
 5245TIP3    H215700   5.886   2.861   4.614  1.1191 -0.4314 -0.1880
 5246TIP3   OH215701   3.694   3.505   5.639 -0.1659 -0.2461  0.2003
 5246TIP3    H115702   3.747   3.584   5.628  0.9295 -1.0320 -0.3103
 5246TIP3    H215703   3.616   3.521   5.585 -1.3237  1.6169  2.2628
 5247TIP3   OH215704   2.170   2.469   3.781  0.4347 -0.1210  0.1279
 5247TIP3    H115705   2.149   2.389   3.828  1.4004 -1.3226 -1.3905
 5247TIP3    H215706   2.193   2.532   3.850 -1.3919 -0.7842  1.3948
 5248TIP3   OH215707   1.609   5.692   1.814  0.1612  0.2101 -0.5010
 5248TIP3    H115708   1.684   5.742   1.782  2.1866 -0.9174  2.0734
 5248TIP3    H215709   1.602   5.617   1.754  0.0241  1.1362 -1.6803
 5249TIP3   OH215710   6.492   1.307   3.616  0.0754 -0.2367  0.8199
 5249TIP3    H115711   6.454   1.374   3.672 -0.1703  1.4762 -1.2643
 5249TIP3    H215712   6.554   1.260   3.673 -1.0834  0.5304  2.8042
 5250TIP3   OH215713   2.576   0.870   5.564  0.2612  0.2214  0.1440
 5250TIP3    H115714   2.546   0.871   5.655 -1.2539 -1.0261 -0.3040
 5250TIP3    H215715   2.537   0.948   5.525  0.0312  0.1850  0.3000
 5251TIP3   OH215716   5.697   3.880   5.048  0.2443  0.0748  0.9552
 5251TIP3    H115717   5.735   3.967   5.034  0.3185 -0.2983 -1.6953
 5251TIP3    H215718   5.761   3.820   5.012 -0.7127 -0.9373  0.8887
 5252TIP3   OH215719   3.042   0.495   0.952  0.0599 -0.1409  0.2914
 5252TIP3    H115720   3.092   0.552   0.893 -0.5774  1.1809  0.9849
 5252TIP3    H215721   2.960   0.478   0.905 -0.2743  0.5703  0.5987
 5253TIP3   OH215722   5.774   6.257   1.046 -0.2147 -0.1482 -0.3432
 5253TIP3    H115723   5.695   6.272   1.097  0.0773 -1.9117  0.6750
 5253TIP3    H215724   5.757   6.176   0.998  0.5659  0.0565 -0.9995
 5254TIP3   OH215725   3.055   5.423   5.099  0.0061 -0.3093 -0.2360
 5254TIP3    H115726   3.129   5.478   5.075 -0.4066 -0.3764 -1.8134
 5254TIP3    H215727   3.089   5.334   5.094  0.1560 -0.2900  0.3619
 5255TIP3   OH215728   4.987   1.817   4.440  0.1599 -0.1755  0.4524
 5255TIP3    H115729   4.911   1.875   4.434  0.6339  0.4601  0.5175
 5255TIP3    H215730   4.959   1.737   4.396 -0.4882  0.1149  0.3198
 5256TIP3   OH215731   6.473   3.244   1.846  0.2106 -0.0090 -0.6350
 5256TIP3    H115732   6.525   3.274   1.771  0.7683  0.7955  0.0614
 5256TIP3    H215733   6.515   3.161   1.872 -0.2940 -0.5582 -1.5047
 5257TIP3   OH215734   1.684   5.600   3.950 -0.0928  0.2195  0.8159
 5257TIP3    H115735   1.740   5.555   3.886 -0.2964  0.0922  0.7258
 5257TIP3    H215736   1.696   5.693   3.931 -0.4145  0.1730  0.3659
 5258TIP3   OH215737   1.676   2.258   5.362 -0.1078  0.4747 -0.0315
 5258TIP3    H115738   1.693   2.348   5.390 -1.2486  0.2045  1.7064
 5258TIP3    H215739   1.601   2.265   5.302  0.0099  0.7125 -0.1515
 5259TIP3   OH215740   5.019   0.411   2.126  0.0838 -0.1327  0.4975
 5259TIP3    H115741   5.048   0.335   2.177 -0.0155 -0.1386  0.5439
 5259TIP3    H215742   4.925   0.415   2.140  0.1808  0.3872  1.0070
 5260TIP3   OH215743   0.234   2.361   5.865 -0.0116  0.3072 -0.3054
 5260TIP3    H115744   0.297   2.329   5.801 -1.8743 -0.7199 -1.7491
 5260TIP3    H215745   0.219   2.286   5.923 -0.1671  0.4204 -0.1994
 5261TIP3   OH215746   3.782   1.556   3.564  0.0944 -0.4387  0.1221
 5261TIP3    H115747   3.703   1.551   3.510  0.9645  0.1447 -1.2580
 5261TIP3    H215748   3.784   1.472   3.611 -1.3399 -0.4510  0.1937
 5262TIP3   OH215749   1.496   3.721   0.063  0.5528  0.4258  0.4645
 5262TIP3    H115750   1.571   3.780   0.057 -0.6206  1.9386 -0.1479
 5262TIP3    H215751   1.448   3.736  -0.019 -0.8202  0.0914  1.1850
 5263TIP3   OH215752   1.568   0.414   3.560  0.1809 -0.4975 -0.1496
 5263TIP3    H115753   1.634   0.478   3.587 -0.9291  1.0889 -1.0861
 5263TIP3    H215754   1.492   0.433   3.615 -0.4660 -0.3787 -1.0597
 5264TIP3   OH215755   5.046   5.408   1.077  0.1712 -0.1787 -0.0675
 5264TIP3    H115756   5.137   5.432   1.095  0.3690 -1.4493  0.7280
 5264TIP3    H215757   5.016   5.366   1.157 -1.1836  0.3702 -0.2614
 5265TIP3   OH215758   5.681   1.207   0.004 -0.2814 -0.1784  0.1699
 5265TIP3    H115759   5.733   1.133  -0.027 -1.4803 -1.0278  0.1282
 5265TIP3    H215760   5.698   1.210   0.099 -0.2818 -0.5553  0.1852
 5266TIP3   OH215761   1.347   3.326   3.603  0.1760 -0.3475 -0.1726
 5266TIP3    H115762   1.279   3.391   3.622 -2.2850 -2.7353 -0.1438
 5266TIP3    H215763   1.393   3.314   3.686  0.1002  0.6979  0.0331
 5267TIP3   OH215764   5.301   6.483   3.137 -0.2599 -0.7461 -0.0029
 5267TIP3    H115765   5.377   6.474   3.080  0.2153  2.0552  0.0476
 5267TIP3    H215766   5.281   6.577   3.136 -4.2500 -1.4096 -0.6842
 5268TIP3   OH215767   5.635   1.475   1.990 -0.2540  0.1862 -0.1302
 5268TIP3    H115768   5.666   1.385   1.985  1.6830  0.8505 -1.5199
 5268TIP3    H215769   5.646   1.500   2.082 -1.1159 -1.0586  0.3342
 5269TIP3   OH215770   5.623   5.959   1.189  0.4584  0.5298  0.2917
 5269TIP3    H115771   5.602   6.039   1.237 -1.1334  1.0289 -1.1435
 5269TIP3    H215772   5.675   5.907   1.250  1.0446  2.4116  1.4439
 5270TIP3   OH215773   5.885   3.715   1.486 -0.0192 -0.1755 -0.4192
 5270TIP3    H115774   5.906   3.804   1.513 -1.5411  0.2735 -0.6043
 5270TIP3    H215775   5.931   3.659   1.549  3.1160  0.6052 -1.8494
 5271TIP3   OH215776   4.095   5.307   3.532 -0.2524  0.3142  0.0964
 5271TIP3    H115777   4.177   5.355   3.544 -1.7221  2.7879  0.9962
 5271TIP3    H215778   4.088   5.295   3.438  0.1026  2.0830 -0.1842
 5272TIP3   OH215779   3.821   3.983   4.125 -0.6307 -0.1837  0.3787
 5272TIP3    H115780   3.748   4.029   4.083 -1.1221 -1.2581  0.0215
 5272TIP3    H215781   3.779   3.923   4.186 -0.0700 -1.1265 -0.1483
 5273TIP3   OH215782   0.696   0.038   4.266  0.3352  0.0065 -0.5823
 5273TIP3    H115783   0.679   0.131   4.256  1.5966  0.3669  0.3861
 5273TIP3    H215784   0.791   0.031   4.274  0.3931 -1.5155 -2.0271
 5274TIP3   OH215785   3.212   3.320   3.325  0.2477  0.2772  0.4958
 5274TIP3    H115786   3.246   3.240   3.285  0.1891  0.1300  0.7355
 5274TIP3    H215787   3.272   3.389   3.297  1.4099 -0.1500  1.7856
 5275TIP3   OH215788   2.141   2.637   5.719  0.3799  0.2927 -0.4695
 5275TIP3    H115789   2.119   2.646   5.626 -0.2274  3.2167 -0.1524
 5275TIP3    H215790   2.227   2.679   5.728  0.7487 -0.5720  0.1913
 5276TIP3   OH215791   0.140   1.077   3.292  0.1584  0.2284  0.8127
 5276TIP3    H115792   0.111   1.050   3.380 -0.1088 -0.0222  0.6530
 5276TIP3    H215793   0.071   1.043   3.234 -0.5126  1.8048  0.6545
 5277TIP3   OH215794   5.974   5.347   0.751  0.5827 -0.3467 -0.3768
 5277TIP3    H115795   5.991   5.436   0.721  0.1194 -0.2077 -0.2227
 5277TIP3    H215796   5.889   5.351   0.794  0.5918 -0.8476 -0.3027
 5278TIP3   OH215797   7.003   1.810   2.838 -0.4396 -0.4433 -0.2520
 5278TIP3    H115798   7.031   1.832   2.927  0.2180 -1.2635 -0.2384
 5278TIP3    H215799   6.923   1.760   2.850 -0.8461  0.2239 -0.1737
 5279TIP3   OH215800   4.374   3.612   1.216 -0.2536 -0.3102  0.3596
 5279TIP3    H115801   4.415   3.698   1.211 -0.5403  0.0530  3.0660
 5279TIP3    H215802   4.440   3.553   1.179  0.2181  0.9623 -0.9254
 5280TIP3   OH215803   0.870   6.000   0.039 -0.3642 -0.3904 -0.6698
 5280TIP3    H115804   0.911   5.999  -0.047 -0.2561 -0.4214 -0.6187
 5280TIP3    H215805   0.936   5.962   0.097 -0.3670 -0.1997 -0.5433
 5281TIP3   OH215806   0.640   2.853   1.889 -0.2547  0.2440 -0.1777
 5281TIP3    H115807   0.722   2.839   1.843  0.6695 -0.1282  1.5131
 5281TIP3    H215808   0.580   2.887   1.822  1.8833  2.7320 -0.9989
 5282TIP3   OH215809   2.229   5.205   1.812  0.8295 -0.5399  0.1662
 5282TIP3    H115810   2.215   5.113   1.834  0.4805 -0.2235  1.3535
 5282TIP3    H215811   2.306   5.206   1.756 -0.2437 -1.7344 -1.4174
 5283TIP3   OH215812   3.146   5.939   4.553  0.0973  0.0368 -0.2296
 5283TIP3    H115813   3.211   5.967   4.489 -0.5997  1.9947 -0.1498
 5283TIP3    H215814   3.079   5.894   4.502  0.0724  0.6384 -0.7347
 5284TIP3   OH215815   0.822   6.123   1.591  0.0851 -0.0368  0.6740
 5284TIP3    H115816   0.782   6.088   1.512  1.9236 -1.1958  0.1962
 5284TIP3    H215817   0.821   6.218   1.579  0.5661 -0.2034 -0.8776
 5285TIP3   OH215818   4.446   4.275   1.617  0.1964 -0.0278 -0.3402
 5285TIP3    H115819   4.512   4.344   1.612 -0.8278  1.0564  0.3773
 5285TIP3    H215820   4.478   4.216   1.685  1.2009 -0.4252 -1.1267
 5286TIP3   OH215821   0.762   3.031   4.275 -0.1647  0.9104  0.2526
 5286TIP3    H115822   0.786   2.960   4.335  0.9298  0.5280 -0.6089
 5286TIP3    H215823   0.699   3.084   4.324 -1.2375 -0.8183  0.8103
 5287TIP3   OH215824   4.659   3.324   0.399  0.5652 -0.0651  0.3361
 5287TIP3    H115825   4.610   3.358   0.325  1.2204 -0.6632 -0.3793
 5287TIP3    H215826   4.751   3.335   0.374  0.8076 -2.2372  0.1323
 5288TIP3   OH215827   6.204   3.877   4.432  0.1339  0.3842  0.1093
 5288TIP3    H115828   6.163   3.829   4.360 -0.6956  0.1900  0.7008
 5288TIP3    H215829   6.168   3.837   4.511  0.6579  0.9242  0.6284
 5289TIP3   OH215830   6.498   1.063   3.183  0.1095  0.7337  0.6129
 5289TIP3    H115831   6.449   1.087   3.262 -0.8167  0.8030  0.0302
 5289TIP3    H215832   6.535   1.146   3.152 -1.1103  1.0502 -0.0682
 5290TIP3   OH215833   3.995   4.178   3.296 -0.0429  0.3694 -0.5132
 5290TIP3    H115834   4.027   4.098   3.337  1.1782  0.3209 -1.5005
 5290TIP3    H215835   4.071   4.236   3.293 -0.1133  0.4247 -2.5358
 5291TIP3   OH215836   5.115   3.372   4.605 -0.0214 -0.5896  0.3402
 5291TIP3    H115837   5.081   3.364   4.694  0.1380  0.4696  0.5107
 5291TIP3    H215838   5.152   3.286   4.586 -0.5615 -1.0010  1.0835
 5292TIP3   OH215839   5.932   0.168   2.027 -0.0516  0.0172  0.0932
 5292TIP3    H115840   5.993   0.136   1.961 -0.8571 -2.8177  0.5652
 5292TIP3    H215841   5.981   0.161   2.109  0.0466  0.8742  0.1088
 5293TIP3   OH215842   2.223   2.704   3.955 -0.4229 -0.7326  0.0023
 5293TIP3    H115843   2.225   2.765   3.881  0.7244 -0.5349  0.1697
 5293TIP3    H215844   2.131   2.686   3.970 -0.7421  0.4314 -0.4928
 5294TIP3   OH215845   0.341   0.343   2.647  0.7234 -1.1044 -0.3077
 5294TIP3    H115846   0.318   0.302   2.731  3.0260  0.3431  1.1405
 5294TIP3    H215847   0.409   0.406   2.670  0.3573  0.4146 -3.0861
 5295TIP3   OH215848   3.464   6.664   5.711 -0.2941  0.4242 -0.3119
 5295TIP3    H115849   3.477   6.701   5.623  1.7298 -1.1064 -0.7337
 5295TIP3    H215850   3.539   6.695   5.761  0.1419 -1.0787  0.0073
 5296TIP3   OH215851   0.997   1.681   2.122 -0.0156 -0.0691  0.1365
 5296TIP3    H115852   0.926   1.703   2.182  0.3264  2.6643 -0.3393
 5296TIP3    H215853   0.982   1.736   2.045  1.0467 -1.5289 -1.1901
 5297TIP3   OH215854   3.375   2.450   4.709  0.6804  0.6946 -0.2816
 5297TIP3    H115855   3.430   2.386   4.754  0.4124  0.7564  0.1358
 5297TIP3    H215856   3.374   2.527   4.767 -0.2551  0.5127 -0.0330
 5298TIP3   OH215857   1.749   2.655   1.123  0.0230  0.1148  0.8745
 5298TIP3    H115858   1.722   2.563   1.122  0.2165  0.0310 -1.0472
 5298TIP3    H215859   1.701   2.694   1.196 -1.3659 -1.1440  0.6765
 5299TIP3   OH215860   2.233   1.870   4.911 -0.6237 -0.3161  0.1649
 5299TIP3    H115861   2.205   1.948   4.958 -1.9713 -1.1212  0.7856
 5299TIP3    H215862   2.194   1.879   4.824  1.4933  0.9586 -0.7092
 5300TIP3   OH215863   2.220   0.895   1.060  0.4829  0.2469  0.3643
 5300TIP3    H115864   2.146   0.922   1.005 -0.1982 -1.4012  0.4246
 5300TIP3    H215865   2.185   0.897   1.149  1.1970  1.6207  0.6426
 5301TIP3   OH215866   4.072   3.020   0.315  0.2508  0.4754 -0.0484
 5301TIP3    H115867   4.138   2.992   0.378 -0.8979 -2.3626  0.0485
 5301TIP3    H215868   4.084   2.961   0.240 -1.3499  0.7335 -0.5537
 5302TIP3   OH215869   2.246   2.029   1.996 -0.2217  0.0961  0.1929
 5302TIP3    H115870   2.211   1.941   1.984  0.5739 -0.1573 -0.4132
 5302TIP3    H215871   2.221   2.076   1.916  1.0535 -0.1816 -0.3902
 5303TIP3   OH215872   6.332   0.054   4.460 -0.2313  0.0747  0.0803
 5303TIP3    H115873   6.238   0.068   4.449 -0.5311 -1.7133  0.1437
 5303TIP3    H215874   6.340   0.010   4.544  0.6736  0.1780  0.0614
 5304TIP3   OH215875   6.148   3.346   1.128 -0.4583 -0.5739 -0.1798
 5304TIP3    H115876   6.070   3.347   1.184 -0.1389  1.0685  0.2897
 5304TIP3    H215877   6.198   3.270   1.158  0.2009  0.7924  2.5194
 5305TIP3   OH215878   5.547   2.694   3.716 -0.0758 -0.1728 -0.3835
 5305TIP3    H115879   5.485   2.639   3.668  2.3047 -3.0528 -0.5046
 5305TIP3    H215880   5.618   2.709   3.653  0.1678  1.5528  0.2649
 5306TIP3   OH215881   7.133   4.366   3.369 -0.5182  1.3025  0.0196
 5306TIP3    H115882   7.189   4.386   3.444  0.1208  0.5134 -0.2455
 5306TIP3    H215883   7.193   4.344   3.299 -1.1629 -0.5638  0.0146
 5307TIP3   OH215884   1.970   1.746   1.543  0.1012  0.1119 -0.0330
 5307TIP3    H115885   1.975   1.804   1.618 -2.7521  0.0385  0.3255
 5307TIP3    H215886   1.967   1.805   1.467  3.2596  0.1810 -0.2528
 5308TIP3   OH215887   3.579   1.141   2.625  0.5633 -0.4006  0.4422
 5308TIP3    H115888   3.603   1.228   2.655  0.7841  0.5371 -2.2345
 5308TIP3    H215889   3.657   1.109   2.578 -0.7919 -0.3057 -2.0637
 5309TIP3   OH215890   2.854   6.430   2.716  0.6139 -0.1919  0.2314
 5309TIP3    H115891   2.933   6.436   2.770  1.4037 -1.7329 -0.7018
 5309TIP3    H215892   2.876   6.479   2.636  1.2328 -1.8747 -0.6759
 5310TIP3   OH215893   5.263   5.881   1.386 -0.2411  0.1142  0.6950
 5310TIP3    H115894   5.206   5.864   1.461 -0.6078  1.5796  0.7762
 5310TIP3    H215895   5.203   5.913   1.318  0.2946  0.3192  0.3155
 5311TIP3   OH215896   5.972   4.271   1.962  0.4597 -0.2763  0.4442
 5311TIP3    H115897   5.999   4.304   2.047 -0.9295  0.0043  0.8113
 5311TIP3    H215898   5.969   4.349   1.906 -0.7667 -0.0825  0.7483
 5312TIP3   OH215899   0.958   2.649   5.310 -0.4346  0.1303  0.4506
 5312TIP3    H115900   0.956   2.741   5.285 -3.4983 -0.1650 -0.8645
 5312TIP3    H215901   1.045   2.619   5.284 -0.2201  2.0767 -1.3737
 5313TIP3   OH215902   5.096   4.636   4.385  0.4810  0.2191  0.2169
 5313TIP3    H115903   5.190   4.654   4.385  0.1251  2.8379 -2.2541
 5313TIP3    H215904   5.087   4.551   4.342  1.6803  0.7586 -1.1677
 5314TIP3   OH215905   5.195   3.566   4.400 -0.1910 -0.0141 -0.2312
 5314TIP3    H115906   5.168   3.530   4.485  0.2391  2.2164  0.9410
 5314TIP3    H215907   5.139   3.522   4.336 -0.8623 -1.4120  1.2503
 5315TIP3   OH215908   6.712   4.136   4.566 -0.0006  0.2467  0.7293
 5315TIP3    H115909   6.744   4.135   4.657 -0.2688 -0.4023  0.8240
 5315TIP3    H215910   6.631   4.187   4.570 -1.7681 -2.3779  1.5022
 5316TIP3   OH215911   1.207   5.971   3.498  0.3687  0.8729 -0.8527
 5316TIP3    H115912   1.213   6.065   3.482 -0.8422  1.0561 -0.3556
 5316TIP3    H215913   1.202   5.963   3.593  0.1906  0.3221 -0.9028
 5317TIP3   OH215914   3.106   2.679   4.870 -0.4090  0.6610 -0.9783
 5317TIP3    H115915   3.109   2.630   4.788 -0.1557 -1.9930  0.5242
 5317TIP3    H215916   3.197   2.703   4.888 -0.3036  0.1956 -0.8852
 5318TIP3   OH215917   1.698   5.408   2.593  0.1640 -0.1513 -0.1171
 5318TIP3    H115918   1.654   5.478   2.544 -1.2394 -0.2150  1.0015
 5318TIP3    H215919   1.650   5.329   2.570  0.8533 -0.5334 -0.2730
 5319TIP3   OH215920   0.048   6.564   2.524  0.3700  0.5044  0.5498
 5319TIP3    H115921  -0.026   6.595   2.471 -1.3688  0.0001  2.5399
 5319TIP3    H215922   0.057   6.471   2.500 -0.3936  0.2829  1.0773
 5320TIP3   OH215923   7.112   0.822   5.126 -0.0690  0.3180  0.2412
 5320TIP3    H115924   7.103   0.891   5.192 -0.3076 -0.4248  1.0148
 5320TIP3    H215925   7.203   0.828   5.097  0.0031  0.7367  0.5437
 5321TIP3   OH215926   3.893   0.867   2.374 -0.6870  0.6792  0.5043
 5321TIP3    H115927   3.975   0.916   2.367 -1.5403  2.0240 -0.6886
 5321TIP3    H215928   3.850   0.903   2.451 -1.8213  2.7423 -0.9864
 5322TIP3   OH215929   6.246   1.967   0.931  0.1761  0.0049  0.3433
 5322TIP3    H115930   6.179   2.025   0.894  0.0610 -0.4203 -0.1241
 5322TIP3    H215931   6.294   2.022   0.992  0.3318  0.7164 -0.3966
 5323TIP3   OH215932   5.619   6.493   4.171 -0.2374 -0.1638  0.2190
 5323TIP3    H115933   5.637   6.402   4.147  0.1833  0.4231 -1.8651
 5323TIP3    H215934   5.564   6.486   4.250  1.3882 -2.1637  1.2840
 5324TIP3   OH215935   3.660   4.061   1.050  0.2595 -0.2153  0.4143
 5324TIP3    H115936   3.571   4.061   1.088 -0.6418 -1.3021 -1.5552
 5324TIP3    H215937   3.669   4.148   1.012 -0.6842 -0.6533 -0.8768
 5325TIP3   OH215938   4.294   6.367   0.983 -0.1058 -0.1211 -0.4723
 5325TIP3    H115939   4.307   6.314   1.061 -1.7759  1.5060  1.0251
 5325TIP3    H215940   4.356   6.440   0.993  0.0839 -0.2093 -0.9808
 5326TIP3   OH215941   6.186   1.428   0.894  0.2270  0.2020  0.0745
 5326TIP3    H115942   6.151   1.393   0.975 -2.6285  1.3526 -0.5376
 5326TIP3    H215943   6.232   1.508   0.920  0.0298  0.1268  0.6589
 5327TIP3   OH215944   5.679   0.797   4.927  0.1132  0.5868 -0.5413
 5327TIP3    H115945   5.625   0.753   4.992  0.2994  0.6356 -0.3534
 5327TIP3    H215946   5.745   0.844   4.978  0.2812  0.5965 -0.7663
 5328TIP3   OH215947   6.835   1.415   3.110 -0.0178  0.0296  0.6299
 5328TIP3    H115948   6.828   1.419   3.014  0.4349  1.2333  0.6304
 5328TIP3    H215949   6.893   1.489   3.133  2.4238 -2.0202  1.5810
 5329TIP3   OH215950   5.450   0.773   1.758 -0.3441  0.0301 -0.1177
 5329TIP3    H115951   5.476   0.810   1.673  2.0769 -0.5847  0.2901
 5329TIP3    H215952   5.385   0.835   1.792 -0.0922  1.2028 -1.6666
 5330TIP3   OH215953   4.733   6.513   0.995  0.3055  0.3591  0.8140
 5330TIP3    H115954   4.817   6.499   1.039 -0.1089 -2.2837  0.9107
 5330TIP3    H215955   4.749   6.484   0.905  0.4058  3.1954 -0.1701
 5331TIP3   OH215956   0.394   4.251   0.253 -0.0560 -0.3547 -0.0582
 5331TIP3    H115957   0.422   4.162   0.276  0.8163 -0.6176 -1.9319
 5331TIP3    H215958   0.419   4.304   0.329  0.6050 -1.4997  0.5641
 5332TIP3   OH215959   4.815   3.677   3.988 -0.2563 -0.2871  0.3938
 5332TIP3    H115960   4.765   3.677   4.070 -0.5607  1.4925  0.2569
 5332TIP3    H215961   4.870   3.755   3.994 -1.1339  0.5507 -1.5551
 5333TIP3   OH215962   1.326   3.081   4.150  0.1368  0.0016 -0.0771
 5333TIP3    H115963   1.403   3.033   4.183  0.3597  0.6262  0.3306
 5333TIP3    H215964   1.254   3.050   4.205 -0.5002 -2.5844 -2.1356
 5334TIP3   OH215965   3.191   2.873   2.825 -0.1607  0.6953 -0.0994
 5334TIP3    H115966   3.145   2.799   2.866  1.0860 -0.3512 -0.5166
 5334TIP3    H215967   3.121   2.927   2.789 -1.2052  0.6888  1.7837
 5335TIP3   OH215968   3.748   3.857   1.984 -0.2769 -0.0433 -0.1039
 5335TIP3    H115969   3.839   3.855   2.013 -0.3357 -2.0988  0.0624
 5335TIP3    H215970   3.701   3.805   2.049 -0.9089 -2.2166 -2.1544
 5336TIP3   OH215971   2.473   2.927   4.259 -0.0900  0.0653 -0.1671
 5336TIP3    H115972   2.472   2.878   4.177  0.2658  0.9681 -0.7278
 5336TIP3    H215973   2.413   3.000   4.244 -0.7785 -0.3025  0.7271
 5337TIP3   OH215974   0.048   5.779   0.917 -0.8760 -0.2408  0.2789
 5337TIP3    H115975   0.009   5.852   0.964 -1.4453 -0.2124 -0.2153
 5337TIP3    H215976  -0.026   5.738   0.871 -0.1796  0.6212 -1.7677
 5338TIP3   OH215977   5.258   5.909   4.096  0.2713 -0.0528  0.5245
 5338TIP3    H115978   5.344   5.889   4.059  2.0478  1.0643  3.6708
 5338TIP3    H215979   5.236   5.994   4.059  1.3433  0.4216  0.9279
 5339TIP3   OH215980   3.885   5.874   4.005  0.1218  0.5787 -0.0788
 5339TIP3    H115981   3.916   5.784   4.014  1.1980  0.8809 -0.6410
 5339TIP3    H215982   3.849   5.896   4.091 -3.0711 -1.4267 -0.7403
 5340TIP3   OH215983   6.918   5.549   3.183  0.2234 -0.0653  0.5740
 5340TIP3    H115984   6.916   5.640   3.154  0.6236 -1.0500 -2.9835
 5340TIP3    H215985   6.899   5.497   3.105  2.0454 -3.1376  1.9323
 5341TIP3   OH215986   0.975   5.908   3.725 -0.5860 -0.5238 -0.6184
 5341TIP3    H115987   1.026   5.836   3.689 -0.6020 -0.7886 -0.1247
 5341TIP3    H215988   1.040   5.966   3.764 -0.5451 -0.0900 -1.3227
 5342TIP3   OH215989   2.308   2.985   5.693 -0.3461 -0.4320  0.3248
 5342TIP3    H115990   2.286   3.022   5.778 -0.0188 -0.0678  0.2537
 5342TIP3    H215991   2.377   3.042   5.659 -2.0847  0.8873 -1.2187
 5343TIP3   OH215992   1.781   5.338   0.224 -0.4155  0.2037 -0.2235
 5343TIP3    H115993   1.796   5.352   0.317  0.9148  1.0637 -0.5253
 5343TIP3    H215994   1.697   5.380   0.206 -2.0737 -2.3227  1.0487
 5344TIP3   OH215995   0.489   0.614   4.375 -0.0720 -0.1075  0.2888
 5344TIP3    H115996   0.562   0.650   4.426 -0.3964 -2.4006  2.6302
 5344TIP3    H215997   0.492   0.520   4.393 -2.7525 -0.4709 -0.6965
 5345TIP3   OH215998   6.869   6.494   3.074  0.0868  0.3003 -0.1377
 5345TIP3    H115999   6.959   6.523   3.088 -0.6543  2.0162  1.5917
 5345TIP3    H216000   6.815   6.566   3.107 -1.9136 -1.9297  1.8711
 5346TIP3   OH216001   3.100   4.707   1.307  0.6419 -0.2753  0.2422
 5346TIP3    H116002   3.149   4.782   1.343 -1.8707  1.4125  0.4119
 5346TIP3    H216003   3.105   4.641   1.376 -0.2138  1.1767  1.7683
 5347TIP3   OH216004   5.091   3.950   1.902 -0.5882 -0.5194 -0.1184
 5347TIP3    H116005   5.057   3.897   1.973  0.4748 -2.2939 -0.8638
 5347TIP3    H216006   5.022   4.013   1.883 -0.3222  1.0754  3.4636
 5348TIP3   OH216007   6.014   3.206   0.765  0.4072  0.4687  0.3060
 5348TIP3    H116008   5.928   3.247   0.763 -0.3380 -0.8252  2.6730
 5348TIP3    H216009   6.072   3.272   0.803 -0.0585  0.5366  0.9134
 5349TIP3   OH216010   5.125   6.519   5.014  0.0033 -0.0055  0.0650
 5349TIP3    H116011   5.068   6.513   4.938  0.2018  0.6630 -0.1473
 5349TIP3    H216012   5.107   6.440   5.065 -1.6065  0.5121  0.3474
 5350TIP3   OH216013   3.756   1.396   1.548 -0.1219 -0.9157 -0.1218
 5350TIP3    H116014   3.849   1.411   1.563 -0.3474 -0.2291  0.7356
 5350TIP3    H216015   3.744   1.302   1.561  0.1716 -0.7559  1.5578
 5351TIP3   OH216016   1.005   4.416   2.123  0.3611  0.2567 -0.0490
 5351TIP3    H116017   1.029   4.458   2.040  2.2882 -0.7203 -0.0435
 5351TIP3    H216018   1.039   4.475   2.190  0.8125 -0.0325 -0.0133
 5352TIP3   OH216019   3.264   1.366   3.777 -0.3700  0.4136 -0.1651
 5352TIP3    H116020   3.357   1.383   3.790 -0.7464  0.6167  3.1569
 5352TIP3    H216021   3.261   1.305   3.703  2.4209  0.0706 -0.1069
 5353TIP3   OH216022   0.673   3.242   0.941 -0.0061  0.0831  0.0997
 5353TIP3    H116023   0.722   3.166   0.910  0.5711 -0.5086  2.2962
 5353TIP3    H216024   0.736   3.314   0.938  0.0166  0.0539 -0.1620
 5354TIP3   OH216025   5.231   4.257   1.016 -0.0697 -0.5239 -0.0757
 5354TIP3    H116026   5.162   4.320   0.995  0.0698  0.2879  1.6550
 5354TIP3    H216027   5.203   4.219   1.100  2.2961  1.0222  1.5301
 5355TIP3   OH216028   6.321   4.655   4.068 -0.0638  0.0526 -0.1430
 5355TIP3    H116029   6.298   4.636   3.977  0.2040  1.8239 -0.6037
 5355TIP3    H216030   6.240   4.687   4.107  0.1855  0.7132 -0.1658
 5356TIP3   OH216031   0.428   6.478   0.290 -0.3801 -0.0840 -0.1263
 5356TIP3    H116032   0.368   6.411   0.257 -1.0787  0.9986 -1.1228
 5356TIP3    H216033   0.437   6.540   0.218 -0.1362  1.1454  0.9301
 5357TIP3   OH216034   0.087   2.964   4.003  0.1055  0.3512  0.0439
 5357TIP3    H116035   0.145   2.967   4.079  2.1801  1.1142 -1.4628
 5357TIP3    H216036   0.128   2.900   3.944 -0.2837  1.2798 -1.2804
 5358TIP3   OH216037   1.117   1.262   1.909 -0.1014 -0.0783  0.1580
 5358TIP3    H116038   1.065   1.312   1.971  1.0004 -1.2830  2.1574
 5358TIP3    H216039   1.208   1.279   1.934  0.3309 -1.8712 -0.0416
 5359TIP3   OH216040   6.664   0.042   5.584 -0.5171  0.7334  0.0304
 5359TIP3    H116041   6.681   0.023   5.492 -2.7713  0.1556 -0.3312
 5359TIP3    H216042   6.592  -0.016   5.607  0.9009 -0.1551  2.6098
 5360TIP3   OH216043   3.113   0.448   1.848  0.2567  0.3912 -0.2918
 5360TIP3    H116044   3.113   0.507   1.773 -2.1449 -1.1201 -1.5931
 5360TIP3    H216045   3.030   0.466   1.893 -0.1319 -1.3658 -0.2388
 5361TIP3   OH216046   2.273   1.446   0.731  0.4443 -0.8376  0.0236
 5361TIP3    H116047   2.363   1.464   0.705  0.4227 -0.0167  0.4935
 5361TIP3    H216048   2.279   1.364   0.781  0.6668 -1.7299 -1.4214
 5362TIP3   OH216049   5.220   5.032   1.903  0.3773  0.2763  0.3577
 5362TIP3    H116050   5.313   5.016   1.920  0.7852  2.9163  0.9512
 5362TIP3    H216051   5.177   5.013   1.986  0.1492 -2.1061 -0.2345
 5363TIP3   OH216052   0.224   3.595   5.769 -0.2132 -0.4692  0.2757
 5363TIP3    H116053   0.244   3.626   5.857 -0.2079  1.7939 -0.4621
 5363TIP3    H216054   0.298   3.625   5.716 -1.6837  0.9959 -1.0507
 5364TIP3   OH216055   0.148   2.097   3.175  0.3906 -0.3435 -0.1987
 5364TIP3    H116056   0.096   2.068   3.099  1.5534  0.0470 -1.1861
 5364TIP3    H216057   0.091   2.083   3.250  0.0048 -2.9205 -0.8771
 5365TIP3   OH216058   5.783   2.904   0.917 -0.3256 -0.2564 -0.0139
 5365TIP3    H116059   5.850   2.964   0.949 -0.4162  0.4443 -1.1054
 5365TIP3    H216060   5.826   2.818   0.916 -0.2405 -0.2638  1.6889
 5366TIP3   OH216061   0.490   4.227   1.078 -0.0905 -0.3475 -0.0211
 5366TIP3    H116062   0.477   4.309   1.126 -1.9802 -0.1299 -0.8195
 5366TIP3    H216063   0.441   4.239   0.997 -1.2698 -2.6568  0.2787
 5367TIP3   OH216064   0.431   6.552   3.195 -0.4873 -0.2734  0.5242
 5367TIP3    H116065   0.445   6.597   3.112 -0.0531 -0.8312  0.2937
 5367TIP3    H216066   0.419   6.623   3.259  0.0225  0.1669  0.1383
 5368TIP3   OH216067   1.841   2.003   2.920 -0.2999  0.0498  0.1062
 5368TIP3    H116068   1.908   1.972   2.982  0.5637  0.0639 -0.7991
 5368TIP3    H216069   1.759   1.968   2.954 -0.0869  1.3293  2.1286
 5369TIP3   OH216070   1.657   5.555   1.322  0.0434  0.1594  0.4182
 5369TIP3    H116071   1.752   5.551   1.314 -0.0423  1.0540 -1.5035
 5369TIP3    H216072   1.624   5.509   1.245 -1.0897 -0.0604  1.0204
 5370TIP3   OH216073   6.346   4.132   5.149  0.1163 -0.9441  0.1492
 5370TIP3    H116074   6.305   4.192   5.210 -0.6213  1.5224 -2.5466
 5370TIP3    H216075   6.418   4.182   5.110 -0.3625 -1.8047 -2.0099
 5371TIP3   OH216076   2.655   5.364   3.694 -0.5145 -0.2721 -0.3524
 5371TIP3    H116077   2.636   5.339   3.785  1.0312  0.0176  0.0752
 5371TIP3    H216078   2.750   5.364   3.689 -0.5443  1.4804 -1.4971
 5372TIP3   OH216079   2.582   5.283   4.857  0.1347  0.0487 -0.0828
 5372TIP3    H116080   2.649   5.257   4.793  0.6121 -1.2975  0.9302
 5372TIP3    H216081   2.503   5.236   4.830  0.0230  0.3527 -0.3051
 5373TIP3   OH216082   7.103   5.339   2.344 -0.0253  0.1929  0.2002
 5373TIP3    H116083   7.149   5.421   2.361 -1.2704  0.9862 -0.1170
 5373TIP3    H216084   7.154   5.297   2.274 -0.4001  1.5999 -0.9637
 5374TIP3   OH216085   1.549   6.557   3.263 -0.1745  0.6606 -0.1032
 5374TIP3    H116086   1.542   6.530   3.171 -1.7183 -1.8731  0.6661
 5374TIP3    H216087   1.535   6.652   3.261  2.1694  1.1002 -2.6756
 5375TIP3   OH216088   1.930   2.433   0.361 -0.5140 -0.2691 -0.0732
 5375TIP3    H116089   1.853   2.459   0.413 -0.4858  0.3957 -0.3507
 5375TIP3    H216090   1.898   2.429   0.271 -0.4942 -1.1410 -0.0482
 5376TIP3   OH216091   1.838   5.917   4.630  0.0985  0.0400  0.5166
 5376TIP3    H116092   1.772   5.848   4.629  0.1749 -0.0734 -1.6367
 5376TIP3    H216093   1.794   5.993   4.593  0.8082  0.2987  0.1740
 5377TIP3   OH216094   5.054   1.889   4.141  0.5323  0.6296 -0.2798
 5377TIP3    H116095   5.047   1.978   4.108  1.1831 -0.0200 -2.3298
 5377TIP3    H216096   4.964   1.857   4.145  0.3508  1.1550 -0.1397
 5378TIP3   OH216097   2.167   5.787   3.031  0.6071  0.7660 -0.8098
 5378TIP3    H116098   2.130   5.806   2.945 -0.1872 -0.3833 -0.7467
 5378TIP3    H216099   2.150   5.694   3.045 -1.2210  1.3487  1.4944
 5379TIP3   OH216100   0.471   5.995   3.925 -0.1932  0.5707 -0.6244
 5379TIP3    H116101   0.429   6.053   3.862 -0.7484  0.3669 -0.4481
 5379TIP3    H216102   0.549   6.042   3.953 -1.0253  1.5656  0.0863
 5380TIP3   OH216103   3.886   1.710   4.586  0.0842 -0.4454  0.5139
 5380TIP3    H116104   3.821   1.745   4.647  2.4031  1.3242  2.1916
 5380TIP3    H216105   3.902   1.782   4.525  0.8920 -0.6168  0.5138
 5381TIP3   OH216106   3.902   4.307   0.716  0.0030 -0.2524 -0.4596
 5381TIP3    H116107   3.852   4.339   0.641  0.0598  0.0607 -0.3667
 5381TIP3    H216108   3.925   4.217   0.694  1.0842  0.2308 -1.3472
 5382TIP3   OH216109   4.160   1.822   0.919 -0.6886  0.7495  0.1019
 5382TIP3    H116110   4.229   1.880   0.886 -1.0188  1.5572  0.8262
 5382TIP3    H216111   4.130   1.775   0.841 -0.6457  1.7794 -0.5509
 5383TIP3   OH216112   1.611   3.271   2.428 -0.1328  1.4166 -0.1676
 5383TIP3    H116113   1.580   3.326   2.356 -1.1493  0.3368 -0.5809
 5383TIP3    H216114   1.537   3.269   2.489 -0.8325 -0.8648 -0.9735
 5384TIP3   OH216115   3.679   5.102   4.769  0.3919  0.0595  0.1436
 5384TIP3    H116116   3.603   5.069   4.818 -0.2600  1.9048  0.4530
 5384TIP3    H216117   3.724   5.159   4.831  3.3731 -2.6489  0.7337
 5385TIP3   OH216118   3.773   2.478   4.448  0.3111 -0.3832  0.0410
 5385TIP3    H116119   3.810   2.566   4.451  1.6622 -0.9332  2.1247
 5385TIP3    H216120   3.798   2.444   4.362  1.6761  0.5229  0.0426
 5386TIP3   OH216121   0.864   4.187   1.607  0.3084  0.2746  0.5414
 5386TIP3    H116122   0.837   4.105   1.564  0.9191  0.4243 -0.1431
 5386TIP3    H216123   0.943   4.164   1.655  1.3823  0.7813 -0.8981
 5387TIP3   OH216124   0.928   5.078   3.114 -0.6157  0.2173  0.4412
 5387TIP3    H116125   0.933   5.114   3.203  2.2771  0.3521  0.3176
 5387TIP3    H216126   0.910   4.985   3.127  0.9781 -0.0038  1.2861
 5388TIP3   OH216127   6.746   5.579   4.984 -0.2354  0.1355  0.5108
 5388TIP3    H116128   6.701   5.517   4.927 -0.4876  1.7352 -1.1272
 5388TIP3    H216129   6.759   5.531   5.066 -1.4985 -1.6431 -0.2569
 5389TIP3   OH216130   3.548   6.456   5.219 -0.2783  0.9266  0.2033
 5389TIP3    H116131   3.556   6.450   5.314 -1.1309 -1.1357  0.2100
 5389TIP3    H216132   3.585   6.541   5.196  0.3761  1.2576  2.3225
 5390TIP3   OH216133   6.057   4.519   4.443 -0.2912 -0.1898 -0.2096
 5390TIP3    H116134   6.100   4.601   4.468 -2.0276  0.7837 -0.2591
 5390TIP3    H216135   6.116   4.479   4.378  1.6070 -0.0578  1.3333
 5391TIP3   OH216136   6.057   2.554   4.119  0.1077 -0.2297  0.1052
 5391TIP3    H116137   6.037   2.586   4.207  0.5575  1.7436 -0.4614
 5391TIP3    H216138   6.091   2.631   4.073 -1.7989 -0.7195 -2.3379
 5392TIP3   OH216139   0.381   5.984   4.275  0.1602  0.0538 -0.4957
 5392TIP3    H116140   0.437   5.907   4.281  1.6191  0.9908 -1.3435
 5392TIP3    H216141   0.418   6.047   4.337 -1.2208 -0.0106  0.4446
 5393TIP3   OH216142   4.896   1.011   1.738  0.1235  0.0676 -0.3072
 5393TIP3    H116143   4.801   1.012   1.730  0.0486  2.0104  0.1130
 5393TIP3    H216144   4.917   0.923   1.768 -1.5939 -0.2701  0.0153
 5394TIP3   OH216145   6.299   0.859   0.431 -0.2438 -0.0674 -0.4777
 5394TIP3    H116146   6.300   0.822   0.520 -2.6077 -0.5860 -0.5965
 5394TIP3    H216147   6.286   0.952   0.444  1.0623  0.1091 -0.2811
 5395TIP3   OH216148   6.929   0.556   3.041  0.4551 -0.1292  0.1886
 5395TIP3    H116149   6.991   0.515   3.101 -0.3785  0.1490  1.2630
 5395TIP3    H216150   6.966   0.643   3.023  0.8568 -0.3273  0.0563
 5396TIP3   OH216151   3.305   6.628   1.265 -0.5657 -0.0011 -0.4108
 5396TIP3    H116152   3.220   6.599   1.232  0.0371 -1.8675 -0.4276
 5396TIP3    H216153   3.287   6.661   1.353 -0.9590 -3.2644  0.8694
 5397TIP3   OH216154   1.497   3.483   0.387  0.3574  0.1007  0.5282
 5397TIP3    H116155   1.531   3.571   0.408  1.0203 -0.1438  0.4883
 5397TIP3    H216156   1.465   3.450   0.471 -2.5584  1.4786  0.0995
 5398TIP3   OH216157   3.316   0.726   1.020 -0.8489 -0.0963 -0.3518
 5398TIP3    H116158   3.327   0.691   0.932  0.6134  0.0233 -0.2357
 5398TIP3    H216159   3.257   0.800   1.008 -1.2299 -0.5079 -1.1170
 5399TIP3   OH216160   6.114   1.399   1.176 -0.0756 -0.2451 -0.3321
 5399TIP3    H116161   6.143   1.309   1.191 -0.8039 -0.2663  1.1614
 5399TIP3    H216162   6.022   1.399   1.205 -0.4179  0.7232 -1.3439
 5400TIP3   OH216163   2.453   4.944   2.911 -0.1708  0.1363  0.1541
 5400TIP3    H116164   2.362   4.974   2.916 -0.2568 -0.2301  1.1268
 5400TIP3    H216165   2.466   4.896   2.993  0.6224 -0.5945 -0.3875
 5401TIP3   OH216166   1.801   3.859   3.679 -0.3050 -0.3485 -0.0239
 5401TIP3    H116167   1.761   3.774   3.699  1.0037 -0.9829  0.0218
 5401TIP3    H216168   1.823   3.854   3.586 -1.1717  0.3712 -0.2856
 5402TIP3   OH216169   4.998   0.686   2.372  0.2276 -0.3697  0.0600
 5402TIP3    H116170   5.019   0.779   2.372 -0.7469 -0.1132 -0.9074
 5402TIP3    H216171   4.991   0.664   2.279 -2.4428 -0.6766  0.2523
 5403TIP3   OH216172   1.239   4.860   4.461 -0.0023 -0.0674 -0.6091
 5403TIP3    H116173   1.189   4.847   4.380 -0.3295 -0.9525 -0.2803
 5403TIP3    H216174   1.296   4.783   4.466  0.7939  0.5152 -0.5452
 5404TIP3   OH216175   6.509   6.125   4.592 -0.3032  0.5126  0.1830
 5404TIP3    H116176   6.452   6.138   4.668 -2.1929 -1.2286 -0.8534
 5404TIP3    H216177   6.572   6.059   4.621 -0.5924  0.3477  0.4478
 5405TIP3   OH216178   1.906   3.009   1.581 -0.0556  0.0194 -0.4342
 5405TIP3    H116179   1.811   3.022   1.586  0.0293  0.1816  1.5308
 5405TIP3    H216180   1.938   3.088   1.537 -0.6035  1.3473  1.4390
 5406TIP3   OH216181   0.923   5.475   2.762  0.1121 -0.0413 -0.2638
 5406TIP3    H116182   0.875   5.557   2.776  0.7853  0.4495 -0.7201
 5406TIP3    H216183   0.941   5.442   2.850 -0.2735  0.2339 -0.0779
 5407TIP3   OH216184   0.738   2.099   2.433 -0.2707  0.3001 -0.0893
 5407TIP3    H116185   0.722   2.034   2.502  1.3631  0.5909  0.6017
 5407TIP3    H216186   0.657   2.151   2.430 -0.3839  0.2749  1.6298
 5408TIP3   OH216187   0.713   5.138   0.562  0.2319 -0.4187 -0.4260
 5408TIP3    H116188   0.807   5.157   0.564  0.1904 -0.1499 -1.0667
 5408TIP3    H216189   0.681   5.179   0.482 -0.0836 -2.1037 -1.2127
 5409TIP3   OH216190   3.836   2.714   4.363 -0.3871  0.4900  0.1384
 5409TIP3    H116191   3.777   2.770   4.413 -2.0578  1.0449 -2.3042
 5409TIP3    H216192   3.922   2.755   4.374 -0.8289  1.0840  1.7426
 5410TIP3   OH216193   6.366   1.439   3.915 -0.0222 -0.0692 -0.5837
 5410TIP3    H116194   6.421   1.517   3.923 -1.7795  1.0820  1.4159
 5410TIP3    H216195   6.311   1.456   3.839  1.0622 -0.3635 -1.4455
 5411TIP3   OH216196   6.379   3.715   0.199  0.0405 -0.4044 -0.6104
 5411TIP3    H116197   6.399   3.748   0.287  0.0260  2.0407 -1.4575
 5411TIP3    H216198   6.462   3.723   0.151  0.0235 -1.6217 -0.8656
 5412TIP3   OH216199   4.702   0.956   5.782  0.1669 -0.7712  0.0722
 5412TIP3    H116200   4.633   0.937   5.845  0.9289 -1.8452  0.6209
 5412TIP3    H216201   4.661   0.942   5.697 -0.5722 -0.3913  0.3595
 5413TIP3   OH216202   2.254   4.138   4.808  0.2191  0.3427 -0.1485
 5413TIP3    H116203   2.218   4.206   4.750  0.5043  1.1900  0.6443
 5413TIP3    H216204   2.288   4.187   4.883  3.2727 -0.3347 -0.9590
 5414TIP3   OH216205   1.308   4.329   4.711 -0.4441  0.1064  0.0118
 5414TIP3    H116206   1.232   4.296   4.663  0.7030 -0.7281 -1.3098
 5414TIP3    H216207   1.294   4.299   4.801 -0.1947 -2.8390 -0.8264
 5415TIP3   OH216208   3.217   1.947   4.175  0.3777 -0.8140  0.2784
 5415TIP3    H116209   3.280   1.886   4.214 -0.7329 -3.3407 -1.5717
 5415TIP3    H216210   3.198   1.910   4.089  0.1889  2.6698 -1.3195
 5416TIP3   OH216211   1.636   6.737   0.396 -0.3230 -0.8483  0.1138
 5416TIP3    H116212   1.601   6.806   0.340  0.4813 -0.9365 -0.5167
 5416TIP3    H216213   1.703   6.694   0.343  0.5672 -0.8384  1.1772
 5417TIP3   OH216214   4.492   1.268   5.850 -0.3158 -0.3661  0.0981
 5417TIP3    H116215   4.456   1.355   5.835 -1.4851 -0.8575 -0.0665
 5417TIP3    H216216   4.527   1.241   5.764 -0.9688 -0.5009 -0.1301
 5418TIP3   OH216217   2.988   6.296   1.829 -0.6380 -0.1500 -1.0452
 5418TIP3    H116218   2.957   6.365   1.887 -1.4297  0.8092 -2.5233
 5418TIP3    H216219   3.057   6.338   1.777 -1.1279 -0.4523 -1.9638
 5419TIP3   OH216220   4.697   0.211   0.584 -0.0607 -0.0865 -0.4772
 5419TIP3    H116221   4.757   0.283   0.564 -0.1827  0.3102  0.5439
 5419TIP3    H216222   4.720   0.184   0.673 -1.3768  0.0456 -0.0860
 5420TIP3   OH216223   6.822   1.466   2.839 -0.0939 -0.2945  0.2760
 5420TIP3    H116224   6.782   1.441   2.755 -1.0597  0.8127  0.3750
 5420TIP3    H216225   6.811   1.561   2.843  1.4251 -0.1277  0.9229
 5421TIP3   OH216226   3.377   1.145   0.356  0.0739 -1.0440  0.0815
 5421TIP3    H116227   3.349   1.131   0.447 -0.0449 -1.1016  0.0363
 5421TIP3    H216228   3.297   1.134   0.304 -0.4400  1.5682  0.1879
 5422TIP3   OH216229   0.119   0.403   0.204  0.4682 -0.3548  0.2319
 5422TIP3    H116230   0.062   0.332   0.173  1.4279 -0.8563 -0.4649
 5422TIP3    H216231   0.109   0.472   0.138  0.7223 -0.4772  0.0633
 5423TIP3   OH216232   0.367   4.564   4.150  0.0124  0.4333  0.6401
 5423TIP3    H116233   0.411   4.483   4.124  0.7234  0.9074  0.3516
 5423TIP3    H216234   0.410   4.590   4.231  3.2053  3.0659 -1.6343
 5424TIP3   OH216235   7.143   5.875   4.654  0.5856  0.0058 -0.1160
 5424TIP3    H116236   7.058   5.915   4.672  0.1559 -0.4688 -1.0264
 5424TIP3    H216237   7.162   5.900   4.563  1.6381  0.4932  0.2290
 5425TIP3   OH216238   1.733   0.238   1.673  0.1697 -0.0719  0.2086
 5425TIP3    H116239   1.711   0.148   1.700  2.2616 -0.3293  1.3022
 5425TIP3    H216240   1.818   0.230   1.630  0.7762  1.4577  1.0357
 5426TIP3   OH216241   5.645   2.130   5.014  0.5841 -0.4790 -0.5446
 5426TIP3    H116242   5.576   2.126   5.080 -0.0618 -0.2203 -1.1959
 5426TIP3    H216243   5.627   2.058   4.954  1.2047 -0.7524 -0.4171
 5427TIP3   OH216244   4.396   5.513   3.354  0.1635  0.2102 -0.0467
 5427TIP3    H116245   4.323   5.564   3.390  0.6342  0.7130  0.2185
 5427TIP3    H216246   4.400   5.540   3.262  0.2990  0.5257  0.0496
 5428TIP3   OH216247   2.726   6.078   5.259 -0.7893 -0.1652 -0.6344
 5428TIP3    H116248   2.676   5.997   5.270 -0.3402 -0.4188 -0.4763
 5428TIP3    H216249   2.801   6.054   5.206 -0.5760  0.1155 -0.4618
 5429TIP3   OH216250   3.416   2.210   5.738  0.5551 -0.0335 -0.5218
 5429TIP3    H116251   3.453   2.258   5.664  0.6724  0.6987  0.0020
 5429TIP3    H216252   3.402   2.277   5.805 -0.0670 -0.5983 -0.0818
 5430TIP3   OH216253   2.159   4.686   0.901 -0.3436  0.1481 -0.6455
 5430TIP3    H116254   2.129   4.602   0.866  0.5319 -0.1871 -0.6279
 5430TIP3    H216255   2.195   4.733   0.825 -1.9144  1.0305 -0.8866
 5431TIP3   OH216256   5.053   4.115   0.168  0.1894  0.1689  0.2674
 5431TIP3    H116257   5.085   4.107   0.258 -1.4454 -1.1081  0.7748
 5431TIP3    H216258   5.122   4.074   0.115  1.2531  1.0977  0.8764
 5432TIP3   OH216259   6.249   2.686   2.036  0.2186  0.2627 -0.2138
 5432TIP3    H116260   6.253   2.780   2.016 -2.1874 -0.0544 -2.7506
 5432TIP3    H216261   6.202   2.682   2.119  2.2641  1.2934  1.0934
 5433TIP3   OH216262   3.246   0.643   3.831 -0.0726 -0.1374 -0.4759
 5433TIP3    H116263   3.159   0.676   3.855 -1.0521 -2.0940 -1.1486
 5433TIP3    H216264   3.302   0.669   3.904 -1.7463 -0.9577  1.1764
 5434TIP3   OH216265   0.065   4.407   3.581 -0.2247 -0.0099  0.2712
 5434TIP3    H116266   0.018   4.394   3.664 -1.0059 -0.2888 -0.2051
 5434TIP3    H216267   0.157   4.389   3.603 -0.5447 -1.0068  0.8752
 5435TIP3   OH216268   5.132   0.063   4.869 -0.2069  0.1671  0.2677
 5435TIP3    H116269   5.121   0.060   4.774  1.4493  0.0521  0.0536
 5435TIP3    H216270   5.178  -0.018   4.890  0.4495  0.7251  1.0121
 5436TIP3   OH216271   4.020   3.052   1.366 -0.1396  1.3886  0.2754
 5436TIP3    H116272   3.988   2.965   1.389 -0.7185  1.8337  1.2754
 5436TIP3    H216273   4.115   3.044   1.364 -0.1813  0.7712  0.5382
 5437TIP3   OH216274   2.188   5.578   4.997 -0.3733  0.5346 -0.2885
 5437TIP3    H116275   2.121   5.623   4.946 -1.3835 -1.4873 -0.8499
 5437TIP3    H216276   2.141   5.544   5.073  0.3294  0.2949  0.0471
 5438TIP3   OH216277   2.921   2.797   2.274 -0.4020  0.4372 -0.1642
 5438TIP3    H116278   2.844   2.828   2.225 -0.0031 -0.7655 -1.6277
 5438TIP3    H216279   2.987   2.865   2.260 -0.2839  0.0933 -1.3753
 5439TIP3   OH216280   3.135   5.537   2.978  0.0678 -0.5503  0.0958
 5439TIP3    H116281   3.064   5.598   2.957 -1.1241 -1.8720  0.1139
 5439TIP3    H216282   3.116   5.507   3.066  1.5369  0.2073  0.7096
 5440TIP3   OH216283   3.535   4.457   1.383  0.1675 -0.2590  0.2348
 5440TIP3    H116284   3.474   4.517   1.342 -1.0353 -2.9864 -2.3616
 5440TIP3    H216285   3.619   4.503   1.383 -0.8003  1.6051 -1.0299
 5441TIP3   OH216286   2.047   0.022   0.241  0.1823 -0.4110 -0.1850
 5441TIP3    H116287   2.066   0.085   0.171  1.0672  0.1072  0.5142
 5441TIP3    H216288   1.951   0.024   0.249 -0.0153 -1.0502 -1.8967
 5442TIP3   OH216289   6.510   1.772   2.999 -0.8224  0.1940 -0.0414
 5442TIP3    H116290   6.550   1.837   3.056 -0.1579 -0.2137 -0.0325
 5442TIP3    H216291   6.459   1.824   2.936 -1.0106  0.6742  0.5017
 5443TIP3   OH216292   4.310   4.438   4.176 -0.9680 -0.4556  0.1234
 5443TIP3    H116293   4.381   4.501   4.186 -1.1613 -0.1775 -0.2166
 5443TIP3    H216294   4.307   4.390   4.259  0.3850 -1.2818 -0.2787
 5444TIP3   OH216295   0.191   5.096   2.603 -0.7237  0.2832  0.7915
 5444TIP3    H116296   0.173   5.149   2.681 -1.3434 -0.4473  1.1591
 5444TIP3    H216297   0.263   5.038   2.630  2.3816  3.1531 -0.6488
 5445TIP3   OH216298   1.794   4.231   1.107  0.2367  0.1647  0.2353
 5445TIP3    H116299   1.853   4.199   1.176  1.7691 -0.9053 -1.4906
 5445TIP3    H216300   1.846   4.293   1.057 -0.5100  0.1391 -0.6038
 5446TIP3   OH216301   1.681   1.623   5.572 -0.0490 -0.0272 -0.4794
 5446TIP3    H116302   1.593   1.598   5.547 -0.1069  0.7040 -1.0481
 5446TIP3    H216303   1.678   1.630   5.668 -0.5423 -0.2311 -0.4793
 5447TIP3   OH216304   4.424   2.378   4.554  0.4255 -0.1456 -0.8808
 5447TIP3    H116305   4.375   2.440   4.501  1.7931  1.1569 -0.6733
 5447TIP3    H216306   4.481   2.333   4.492  1.8368  1.1948 -0.6081
 5448TIP3   OH216307   2.050   2.042   3.604  0.2409 -0.2621 -0.3973
 5448TIP3    H116308   1.969   1.996   3.583 -0.5421  0.3318  1.1546
 5448TIP3    H216309   2.093   1.987   3.670  0.2495  0.2434  0.0297
 5449TIP3   OH216310   3.069   4.021   0.316 -1.0839  0.0753  0.0094
 5449TIP3    H116311   3.120   4.097   0.286 -1.0503  0.3716  0.7906
 5449TIP3    H216312   3.005   4.058   0.378 -1.3785 -0.4746  0.0425
 5450TIP3   OH216313   5.222   1.406   2.976  0.3704 -0.1193  0.0353
 5450TIP3    H116314   5.287   1.351   3.020 -1.1199 -0.7251  1.6147
 5450TIP3    H216315   5.199   1.472   3.041 -0.7249 -0.0438 -0.4063
 5451TIP3   OH216316   2.205   1.477   1.087  0.7759  0.0765  0.7555
 5451TIP3    H116317   2.184   1.446   1.175  1.7798 -0.7935  0.7068
 5451TIP3    H216318   2.284   1.430   1.062 -0.0256 -0.4477 -1.0102
 5452TIP3   OH216319   6.807   4.172   4.849 -0.6242  0.1601  0.1122
 5452TIP3    H116320   6.861   4.099   4.882 -2.4253 -0.9692  0.7600
 5452TIP3    H216321   6.832   4.247   4.903  0.6575 -0.1922  0.0276
 5453TIP3   OH216322   1.104   2.618   3.702 -0.0425  0.7672  0.0325
 5453TIP3    H116323   1.020   2.575   3.687  0.4179 -0.0758 -0.1874
 5453TIP3    H216324   1.145   2.621   3.616  0.9008 -0.4454  0.4184
 5454TIP3   OH216325   5.677   1.632   1.764  0.4115  0.6961 -0.4289
 5454TIP3    H116326   5.676   1.694   1.838  0.1457 -0.2253  0.3642
 5454TIP3    H216327   5.647   1.550   1.802  1.3823 -0.0896 -1.3247
 5455TIP3   OH216328   3.610   1.319   1.787 -0.6105 -0.0660 -1.0571
 5455TIP3    H116329   3.554   1.348   1.858 -0.5457 -0.2696 -0.9220
 5455TIP3    H216330   3.684   1.380   1.788  1.1196 -1.9975  1.2279
 5456TIP3   OH216331   4.520   4.382   4.849  0.2825 -0.9116 -0.6873
 5456TIP3    H116332   4.543   4.341   4.933 -0.6353 -2.0842 -0.9792
 5456TIP3    H216333   4.585   4.451   4.838  0.4436 -0.7457  0.9786
 5457TIP3   OH216334   0.346   0.850   0.885 -0.1616 -0.0262  0.3797
 5457TIP3    H116335   0.382   0.896   0.960 -0.1987 -0.3595  0.6025
 5457TIP3    H216336   0.354   0.758   0.907  0.1957 -0.1378 -0.1959
 5458TIP3   OH216337   5.978   2.781   3.185 -0.0024 -0.8869  0.2419
 5458TIP3    H116338   6.018   2.834   3.116  0.6554 -0.3098  1.0417
 5458TIP3    H216339   5.943   2.705   3.139  0.2047 -0.4049 -0.7564
 5459TIP3   OH216340   0.782   2.963   1.467  1.0662 -0.5031  0.2292
 5459TIP3    H116341   0.821   2.896   1.411  2.5004 -1.1685  1.9475
 5459TIP3    H216342   0.710   2.998   1.415  2.0135 -1.4274 -1.8161
 5460TIP3   OH216343   2.499   3.033   0.989  0.0141  0.3097 -0.0124
 5460TIP3    H116344   2.537   2.949   1.014 -2.1434 -0.9424 -0.7322
 5460TIP3    H216345   2.449   3.060   1.066  0.8035  1.0293  0.2636
 5461TIP3   OH216346   6.186   4.882   4.777 -0.2647 -0.3351  0.2153
 5461TIP3    H116347   6.246   4.955   4.793  1.4920 -1.8504  0.7655
 5461TIP3    H216348   6.106   4.924   4.746  1.1085  1.7522 -0.7170
 5462TIP3   OH216349   0.117   2.165   1.356 -0.0883 -0.3399 -0.1546
 5462TIP3    H116350   0.194   2.134   1.403  0.0584 -1.2972 -0.9850
 5462TIP3    H216351   0.077   2.085   1.322 -0.4556  0.2913 -1.2349
 5463TIP3   OH216352   5.288   6.516   3.433 -0.1457  0.1028 -0.6134
 5463TIP3    H116353   5.336   6.596   3.413  0.1638 -0.6601 -3.2744
 5463TIP3    H216354   5.214   6.517   3.372 -1.3699 -0.6345  0.7874
 5464TIP3   OH216355   2.929   4.751   1.852  0.1295  0.4417 -0.3363
 5464TIP3    H116356   2.950   4.843   1.836  1.3936  0.0941 -0.8169
 5464TIP3    H216357   2.858   4.731   1.791  1.1635  0.6026 -1.6444
 5465TIP3   OH216358   2.236   6.607   0.695 -0.6141 -0.5233 -0.4183
 5465TIP3    H116359   2.151   6.593   0.652  0.0511 -3.3895 -0.9929
 5465TIP3    H216360   2.300   6.591   0.626  0.4282 -0.2187  0.4692
 5466TIP3   OH216361   4.622   2.988   5.737 -0.1157  0.3380  0.0209
 5466TIP3    H116362   4.680   2.916   5.763  1.4130  1.4129 -0.2985
 5466TIP3    H216363   4.614   2.977   5.642  0.4143  0.7824 -0.0798
 5467TIP3   OH216364   2.261   6.688   0.295  0.5917 -0.2741  0.3853
 5467TIP3    H116365   2.181   6.637   0.310  0.1044  0.3793  0.0705
 5467TIP3    H216366   2.322   6.656   0.361 -0.1140 -0.4063  0.9903
 5468TIP3   OH216367   2.222   1.344   5.317 -0.1398 -0.4295 -0.2372
 5468TIP3    H116368   2.194   1.426   5.277 -0.0848  0.4875  1.4724
 5468TIP3    H216369   2.142   1.294   5.328 -0.5690  0.4427  0.8793
 5469TIP3   OH216370   2.981   1.005   1.162 -0.2325  0.4045  0.1517
 5469TIP3    H116371   2.927   1.038   1.090 -0.1441  0.1825 -0.0182
 5469TIP3    H216372   3.044   0.946   1.119 -0.5553 -0.1907  0.4886
 5470TIP3   OH216373   5.037   0.290   1.738 -0.3181 -0.8892  0.0058
 5470TIP3    H116374   5.122   0.262   1.705 -0.3150  1.2810 -2.0655
 5470TIP3    H216375   4.980   0.292   1.661 -1.0763  1.6857  0.5312
 5471TIP3   OH216376   7.046   3.571   2.240 -0.1507  0.0023  0.2981
 5471TIP3    H116377   7.132   3.531   2.244  0.6603  1.4128 -1.6343
 5471TIP3    H216378   7.008   3.538   2.159 -0.0827  1.8685 -0.5300
 5472TIP3   OH216379   2.317   5.734   1.091 -0.5320  0.0531 -0.6539
 5472TIP3    H116380   2.334   5.826   1.075 -1.0476  0.3037  0.1752
 5472TIP3    H216381   2.341   5.690   1.009 -1.5778  1.0807 -1.5380
 5473TIP3   OH216382   4.184   5.128   1.473  0.2749  0.4582 -0.1634
 5473TIP3    H116383   4.130   5.194   1.430  0.7357  0.7481 -0.3132
 5473TIP3    H216384   4.267   5.173   1.491  0.7584 -0.2012 -0.6791
 5474TIP3   OH216385   5.511   5.504   5.487  0.9816  0.2928 -0.0345
 5474TIP3    H116386   5.588   5.464   5.446  1.7434 -1.6953  2.9636
 5474TIP3    H216387   5.544   5.536   5.571 -0.8925  2.1640  0.0522
 5475TIP3   OH216388   2.819   4.294   5.437 -0.5536 -0.3815 -0.9605
 5475TIP3    H116389   2.914   4.298   5.452 -0.9053 -0.4782  1.5693
 5475TIP3    H216390   2.785   4.372   5.480 -1.7943 -1.3009 -0.2359
 5476TIP3   OH216391   4.369   4.551   1.098  0.2776  0.2387  0.2941
 5476TIP3    H116392   4.422   4.626   1.125  0.9115  0.7515 -2.1150
 5476TIP3    H216393   4.428   4.498   1.044 -0.6267 -1.1869  0.6467
 5477TIP3   OH216394   7.063   1.686   4.196 -0.1364 -0.6222  0.4380
 5477TIP3    H116395   7.027   1.773   4.176 -0.7619 -1.1309 -0.7064
 5477TIP3    H216396   7.078   1.688   4.291  0.1948  0.8565  0.3779
 5478TIP3   OH216397   6.546   2.156   1.950  0.0312  0.4425 -0.3179
 5478TIP3    H116398   6.588   2.237   1.976  0.7884  0.1562 -0.6239
 5478TIP3    H216399   6.615   2.105   1.908 -0.5027 -0.2377 -0.3962
 5479TIP3   OH216400   1.225   3.345   2.403 -0.1978  0.5699 -0.4651
 5479TIP3    H116401   1.231   3.280   2.333  2.1786  0.2749 -0.1002
 5479TIP3    H216402   1.277   3.308   2.474 -1.2531  1.5706  0.8738
 5480TIP3   OH216403   4.652   3.254   1.951 -0.0481 -0.1236 -0.1924
 5480TIP3    H116404   4.736   3.240   1.997 -0.7040 -0.1806  1.0388
 5480TIP3    H216405   4.619   3.165   1.936 -0.1658 -0.0890 -0.1364
 5481TIP3   OH216406   0.547   5.056   2.683  0.4404 -0.2723 -0.2336
 5481TIP3    H116407   0.617   5.070   2.619 -0.7340 -0.2931 -1.5593
 5481TIP3    H216408   0.593   5.025   2.762  2.1509  1.8605 -0.2867
 5482TIP3   OH216409   3.475   3.124   1.555  0.0653 -0.8119 -0.0567
 5482TIP3    H116410   3.476   3.092   1.465  0.3348  0.6516 -0.6128
 5482TIP3    H216411   3.559   3.099   1.592  0.7013  0.1180 -0.8197
 5483TIP3   OH216412   1.459   6.310   2.640 -0.0431 -0.4825  0.4137
 5483TIP3    H116413   1.415   6.395   2.637  0.5181 -0.1519  1.1984
 5483TIP3    H216414   1.393   6.248   2.607 -0.4742  0.2399 -0.1207
 5484TIP3   OH216415   4.266   5.236   5.084  0.2529  0.0722 -0.1208
 5484TIP3    H116416   4.249   5.234   5.178 -1.9410 -0.2499 -0.4641
 5484TIP3    H216417   4.270   5.144   5.058 -1.4898  0.1172 -0.6635
 5485TIP3   OH216418   6.385   2.362   5.625 -0.4916  0.0706 -0.9597
 5485TIP3    H116419   6.434   2.291   5.584 -0.8527 -1.3323  0.9282
 5485TIP3    H216420   6.439   2.390   5.698 -1.7475 -0.4724  0.2296
 5486TIP3   OH216421   1.657   1.449   1.454 -0.3037 -0.1106  0.2260
 5486TIP3    H116422   1.622   1.360   1.464 -0.5085 -0.0511  0.0410
 5486TIP3    H216423   1.583   1.501   1.424 -0.1115  0.0607  0.0422
 5487TIP3   OH216424   5.730   5.362   3.696 -0.0907  0.6041 -0.7506
 5487TIP3    H116425   5.679   5.282   3.690  0.6911  0.0162  0.2323
 5487TIP3    H216426   5.812   5.342   3.651  0.7800  0.2649  0.8920
 5488TIP3   OH216427   0.258   0.799   5.398 -0.2259 -0.4230 -0.4939
 5488TIP3    H116428   0.167   0.783   5.376 -0.4103 -1.0837  0.6425
 5488TIP3    H216429   0.292   0.713   5.424  0.6464 -0.1400 -0.6767
 5489TIP3   OH216430   6.986   6.288   3.600  0.3329 -0.6934  0.3805
 5489TIP3    H116431   7.063   6.344   3.603 -0.1589 -0.0220  2.1980
 5489TIP3    H216432   7.021   6.200   3.586  1.4469 -0.3996  1.1370
 5490TIP3   OH216433   4.711   0.614   0.781 -0.2408 -0.3009 -0.2846
 5490TIP3    H116434   4.661   0.653   0.709 -1.4661 -0.1391  0.6215
 5490TIP3    H216435   4.647   0.563   0.830  0.3862  0.2458  1.1549
 5491TIP3   OH216436   4.232   3.848   0.835 -0.2856  0.0483  0.7449
 5491TIP3    H116437   4.276   3.806   0.761  0.6493  0.5411  1.0026
 5491TIP3    H216438   4.220   3.939   0.807  2.0234  0.8143  1.9518
 5492TIP3   OH216439   4.170   5.470   0.617  0.4355 -0.5885 -0.3809
 5492TIP3    H116440   4.224   5.549   0.620 -1.3601  0.7058 -0.7212
 5492TIP3    H216441   4.141   5.465   0.526  0.7387 -1.8076 -0.4255
 5493TIP3   OH216442   2.996   5.911   2.244 -0.0313 -0.0790  0.6231
 5493TIP3    H116443   3.085   5.928   2.277  0.4416 -0.3152 -0.4858
 5493TIP3    H216444   2.975   5.989   2.193 -0.0418 -0.4630  0.0342
 5494TIP3   OH216445   4.136   3.377   1.665 -0.3553  0.1405 -0.8110
 5494TIP3    H116446   4.091   3.298   1.695 -1.6165  0.9417 -0.4914
 5494TIP3    H216447   4.129   3.438   1.739  0.9764  0.4262 -0.8858
 5495TIP3   OH216448   3.198   2.303   5.069  0.1293 -0.2235 -0.0197
 5495TIP3    H116449   3.256   2.236   5.106  0.2027 -0.9951 -1.4751
 5495TIP3    H216450   3.132   2.317   5.137  1.3060 -0.2403  1.1551
 5496TIP3   OH216451   7.081   5.730   3.909  0.4315  0.1117 -0.0401
 5496TIP3    H116452   7.160   5.686   3.939 -0.1315 -2.1671 -1.5761
 5496TIP3    H216453   7.091   5.737   3.815 -1.5216 -1.0734 -0.4025
 5497TIP3   OH216454   2.140   3.024   0.590 -0.4607  0.3166  0.7987
 5497TIP3    H116455   2.207   3.078   0.549 -1.1092 -1.4937 -3.1496
 5497TIP3    H216456   2.058   3.052   0.549 -1.2722 -1.2762  1.2590
 5498TIP3   OH216457   2.263   0.110   2.550 -0.1632 -0.1475 -0.6120
 5498TIP3    H116458   2.193   0.174   2.568  0.1086  0.2744 -1.0199
 5498TIP3    H216459   2.302   0.092   2.635 -1.7394 -1.5470 -0.1378
 5499TIP3   OH216460   3.900   3.933   1.173  0.3750  0.1870 -0.2815
 5499TIP3    H116461   3.907   3.857   1.116 -5.4314 -0.8824 -0.0933
 5499TIP3    H216462   3.871   4.004   1.116 -0.3292  0.5570  0.5139
 5500TIP3   OH216463   7.023   5.631   1.743  0.1790 -0.0274 -0.0777
 5500TIP3    H116464   6.984   5.714   1.768  1.2075  0.1835  0.8931
 5500TIP3    H216465   7.110   5.654   1.710  0.1840 -0.6467 -0.5201
 5501TIP3   OH216466   4.994   4.419   3.706 -0.4371 -0.3683 -0.0456
 5501TIP3    H116467   4.935   4.455   3.639 -0.1442  0.3182  0.0573
 5501TIP3    H216468   4.962   4.457   3.788  0.3330  0.2590 -0.0282
 5502TIP3   OH216469   5.505   1.918   4.091  0.2976 -0.1444 -0.1376
 5502TIP3    H116470   5.474   1.940   4.179 -0.9193 -0.1641 -0.5416
 5502TIP3    H216471   5.599   1.906   4.101  0.4162  1.3110  0.8810
 5503TIP3   OH216472   1.169   3.717   0.883  0.6239  0.2821  0.0416
 5503TIP3    H116473   1.091   3.745   0.932  0.3434  0.1918 -0.3443
 5503TIP3    H216474   1.228   3.792   0.887  1.0772 -0.1231  1.4702
 5504TIP3   OH216475   2.439   4.905   3.350 -0.4759 -0.0114  0.6194
 5504TIP3    H116476   2.452   4.835   3.286 -0.4142  0.7524 -0.2303
 5504TIP3    H216477   2.459   4.865   3.434  1.2333 -0.5759 -0.0092
 5505TIP3   OH216478   1.498   5.484   4.792  0.0279 -0.2693  0.4759
 5505TIP3    H116479   1.438   5.450   4.726 -0.9693  0.4540  0.9787
 5505TIP3    H216480   1.541   5.559   4.750  0.5905 -0.7796  0.1216
 5506TIP3   OH216481   2.495   6.450   3.951 -0.0752  0.2463 -0.3838
 5506TIP3    H116482   2.567   6.390   3.935 -0.6258 -0.2589 -1.0105
 5506TIP3    H216483   2.498   6.511   3.877  0.0738  0.5977 -0.0944
 5507TIP3   OH216484   4.909   6.187   1.085 -0.0343  0.0275 -0.0363
 5507TIP3    H116485   4.965   6.121   1.125  0.7519  0.1953 -0.8453
 5507TIP3    H216486   4.939   6.270   1.123  0.0748  0.0864 -0.2484
 5508TIP3   OH216487   1.779   1.137   3.494  0.1182  0.4321 -0.0876
 5508TIP3    H116488   1.687   1.148   3.470 -0.5746 -1.9155  1.1988
 5508TIP3    H216489   1.779   1.068   3.560  2.7515  0.8781  0.5015
 5509TIP3   OH216490   4.637   1.581   4.663  0.1830  0.3163 -0.7815
 5509TIP3    H116491   4.612   1.506   4.608  0.4044 -0.9086  0.7064
 5509TIP3    H216492   4.713   1.550   4.712  0.1904  1.4849 -0.0163
 5510TIP3   OH216493   3.061   5.003   5.529 -0.2146 -0.5036 -0.3525
 5510TIP3    H116494   3.011   4.927   5.560 -0.0484 -0.6019 -0.3269
 5510TIP3    H216495   3.138   5.005   5.585  1.1751 -1.9468 -2.0950
 5511TIP3   OH216496   5.852   1.942   1.050 -0.1735 -0.3351  0.2368
 5511TIP3    H116497   5.759   1.960   1.069 -0.3156  0.5486 -1.1987
 5511TIP3    H216498   5.851   1.856   1.007 -0.1789 -0.8522  1.2239
 5512TIP3   OH216499   1.045   6.759   0.472  0.2700 -0.1662 -0.0473
 5512TIP3    H116500   1.042   6.818   0.547  0.1728 -1.6828  1.2071
 5512TIP3    H216501   1.074   6.813   0.400 -1.4847  1.8107  0.6262
 5513TIP3   OH216502   0.116   3.863   1.584  0.3094  0.3200  0.5404
 5513TIP3    H116503   0.100   3.924   1.512  1.3261 -0.0203 -0.0015
 5513TIP3    H216504   0.094   3.777   1.547 -0.3101  0.2596  1.0312
 5514TIP3   OH216505   5.318   1.707   1.304 -0.0831 -0.7527  0.0631
 5514TIP3    H116506   5.260   1.782   1.296 -1.4296 -1.8144 -0.5343
 5514TIP3    H216507   5.403   1.738   1.272 -0.3005  0.8079  0.8798
 5515TIP3   OH216508   3.320   2.221   4.525 -0.6253 -0.1683 -0.3070
 5515TIP3    H116509   3.357   2.233   4.613 -0.7314 -3.0799  0.2581
 5515TIP3    H216510   3.231   2.190   4.541 -0.9455  0.1250 -1.4696
 5516TIP3   OH216511   5.641   0.334   0.061  0.7265  0.3822  0.6073
 5516TIP3    H116512   5.692   0.404   0.020  0.6650 -0.3904 -0.8643
 5516TIP3    H216513   5.596   0.291  -0.012 -1.9752  0.9418  1.8273
 5517TIP3   OH216514   5.151   1.058   5.195  0.0711 -0.1157  0.1573
 5517TIP3    H116515   5.179   1.043   5.285 -0.1445 -0.4213  0.1729
 5517TIP3    H216516   5.076   1.000   5.183  1.4232 -1.7468 -0.8995
 5518TIP3   OH216517   1.238   3.866   3.340 -0.1161  0.3475  0.2418
 5518TIP3    H116518   1.147   3.871   3.313  0.4967  1.8221 -1.7850
 5518TIP3    H216519   1.245   3.783   3.388 -2.0166 -0.9290 -1.5281
 5519TIP3   OH216520   6.600   1.993   3.131  0.7129  0.1859  1.2371
 5519TIP3    H116521   6.687   2.008   3.095  0.6775  0.0629  1.1039
 5519TIP3    H216522   6.556   2.078   3.124  0.5815  0.0748  0.6600
 5520TIP3   OH216523   4.886   4.927   0.080 -0.6118 -0.0463  0.0164
 5520TIP3    H116524   4.898   4.852   0.138 -0.3433 -0.4488 -0.5545
 5520TIP3    H216525   4.814   4.977   0.120 -1.4470 -1.1109 -0.1317
 5521TIP3   OH216526   0.144   5.438   0.754  0.5251 -0.3036 -0.1067
 5521TIP3    H116527   0.094   5.425   0.834 -0.4096  0.3947 -0.5606
 5521TIP3    H216528   0.183   5.352   0.735  0.4271 -0.5672  0.8661
 5522TIP3   OH216529   3.618   4.588   4.546 -0.0223  0.1795 -0.3498
 5522TIP3    H116530   3.590   4.499   4.525  1.3883 -0.4234  0.2279
 5522TIP3    H216531   3.713   4.588   4.530  0.2272  1.1649  0.9874
 5523TIP3   OH216532   3.794   0.563   5.221  0.2497 -0.2007 -0.8227
 5523TIP3    H116533   3.726   0.583   5.158  0.3265 -0.0239 -0.8506
 5523TIP3    H216534   3.828   0.649   5.248 -1.5127 -0.1142  1.3770
 5524TIP3   OH216535   4.256   4.421   4.842  0.2251  0.2459  0.2619
 5524TIP3    H116536   4.278   4.492   4.901  1.0411  1.2022 -1.1380
 5524TIP3    H216537   4.338   4.374   4.828 -0.1038 -0.3952  0.4145
 5525TIP3   OH216538   0.699   4.752   2.680  0.7850  0.4659 -0.2207
 5525TIP3    H116539   0.742   4.822   2.632  2.3812  0.0456  0.5429
 5525TIP3    H216540   0.617   4.737   2.632  1.7967  0.8058 -2.1399
 5526TIP3   OH216541   1.134   0.356   1.247 -0.0957  0.3977 -0.3490
 5526TIP3    H116542   1.063   0.370   1.309 -0.4746 -1.8990 -0.1591
 5526TIP3    H216543   1.098   0.293   1.184  1.5589 -0.3494 -0.6009
 5527TIP3   OH216544   6.864   2.121   5.088 -0.0236  0.6005  0.1465
 5527TIP3    H116545   6.824   2.157   5.009  0.7067 -1.3632 -1.2012
 5527TIP3    H216546   6.958   2.137   5.076  0.1354 -0.1437  0.3839
 5528TIP3   OH216547   3.262   4.686   1.023 -0.2348  0.1729 -0.0794
 5528TIP3    H116548   3.220   4.601   1.008 -0.3037  0.2023 -0.0507
 5528TIP3    H216549   3.190   4.746   1.043 -0.1569  0.1705  0.2148
 5529TIP3   OH216550   0.584   3.490   3.107  0.0184  0.0132 -0.2962
 5529TIP3    H116551   0.584   3.456   3.017  0.6092 -3.1439  0.7536
 5529TIP3    H216552   0.511   3.552   3.109  0.0286  0.2465 -2.9530
 5530TIP3   OH216553   3.358   6.743   2.046  0.0423 -0.0358 -0.5342
 5530TIP3    H116554   3.404   6.825   2.030 -0.9755  0.9303  1.1563
 5530TIP3    H216555   3.422   6.689   2.093  0.6040 -0.1237 -1.3619
 5531TIP3   OH216556   1.991   0.930   3.942 -0.9997 -0.1649  0.1574
 5531TIP3    H116557   2.029   0.947   4.028 -0.3979 -0.3772 -0.0622
 5531TIP3    H216558   2.037   0.991   3.884 -1.1502 -0.2738 -0.0758
 5532TIP3   OH216559   6.484   0.356   1.540 -0.2030 -0.1212  0.2009
 5532TIP3    H116560   6.509   0.417   1.609  1.6042  2.2097 -2.3081
 5532TIP3    H216561   6.389   0.348   1.549 -0.0720  0.2393  2.7650
 5533TIP3   OH216562   2.837   5.867   0.496  0.1965  0.4985  0.4612
 5533TIP3    H116563   2.801   5.779   0.482  0.8873 -0.3206  3.2912
 5533TIP3    H216564   2.928   5.860   0.467 -0.8125  1.6737 -3.6153
 5534TIP3   OH216565   4.746   1.272   5.310 -0.0178 -0.5608  0.2741
 5534TIP3    H116566   4.669   1.223   5.280  0.0595  0.1620 -1.1572
 5534TIP3    H216567   4.714   1.361   5.325  0.8946  0.3577 -2.5065
 5535TIP3   OH216568   0.168   1.035   3.934  0.2096 -0.1648  0.6038
 5535TIP3    H116569   0.169   1.055   4.028  0.0753 -1.8423  0.9863
 5535TIP3    H216570   0.101   1.094   3.898  0.4825  0.7183  1.4947
 5536TIP3   OH216571   4.507   2.858   0.681  0.0193  0.4668 -0.9880
 5536TIP3    H116572   4.533   2.910   0.757 -2.1518  0.3967 -0.1417
 5536TIP3    H216573   4.500   2.769   0.714 -2.6923  0.7012 -0.7521
 5537TIP3   OH216574   3.872   5.628   2.439  0.4647  0.4687  0.4557
 5537TIP3    H116575   3.958   5.598   2.411  0.7362  0.5407  1.2085
 5537TIP3    H216576   3.889   5.693   2.507 -0.1970 -0.2296  1.3127
 5538TIP3   OH216577   0.688   6.124   5.151 -0.2953  0.0300 -0.7943
 5538TIP3    H116578   0.602   6.105   5.114  0.2015 -0.3676 -1.7830
 5538TIP3    H216579   0.682   6.095   5.243 -1.2989  0.2833 -0.7748
 5539TIP3   OH216580   2.993   0.666   3.926  0.2286 -0.3012 -0.3874
 5539TIP3    H116581   2.922   0.609   3.897 -1.7371  1.8026  0.1014
 5539TIP3    H216582   2.952   0.731   3.982  1.9651  2.8196 -2.4131
 5540TIP3   OH216583   5.670   4.108   3.013 -0.0062 -0.2461  0.4090
 5540TIP3    H116584   5.654   4.152   3.097  1.1973  1.1926 -0.0968
 5540TIP3    H216585   5.586   4.067   2.992 -1.7195  3.0578  0.1762
 5541TIP3   OH216586   1.658   3.095   3.567  0.3509  0.1946 -0.1422
 5541TIP3    H116587   1.622   3.032   3.504  1.4329 -0.5606 -0.0464
 5541TIP3    H216588   1.621   3.069   3.651  0.9985 -0.5081 -0.0613
 5542TIP3   OH216589   1.032   0.988   0.866 -0.0685  0.3146  0.0587
 5542TIP3    H116590   1.088   1.002   0.789  1.4262  0.8246  1.2012
 5542TIP3    H216591   0.954   0.945   0.831  0.6927  0.2913 -1.7048
 5543TIP3   OH216592   5.750   5.806   1.394 -0.0522  1.0511 -0.4268
 5543TIP3    H116593   5.799   5.758   1.461 -0.5375  0.1350 -0.7081
 5543TIP3    H216594   5.660   5.775   1.405 -0.9125  3.7322  1.0224
 5544TIP3   OH216595   2.816   5.196   1.703 -0.0295  0.6527  0.4330
 5544TIP3    H116596   2.774   5.282   1.703 -0.3534  0.5134 -0.9501
 5544TIP3    H216597   2.836   5.179   1.611 -1.3388 -1.4063  0.4633
 5545TIP3   OH216598   0.052   6.057   1.599 -0.0053  0.2741 -0.5644
 5545TIP3    H116599   0.132   6.078   1.552  0.0502  0.2171 -0.4959
 5545TIP3    H216600  -0.014   6.044   1.531  0.0572  0.2621 -0.6225
 5546TIP3   OH216601   7.014   3.674   4.003 -0.2701  0.5262  0.2146
 5546TIP3    H116602   7.013   3.651   4.096 -0.9876  2.3071  0.6952
 5546TIP3    H216603   7.033   3.768   4.002  0.7654  0.3515 -1.5156
 5547TIP3   OH216604   3.462   5.059   2.729  0.0411  0.1243 -0.1262
 5547TIP3    H116605   3.407   5.000   2.676  0.3151 -0.1936 -0.0627
 5547TIP3    H216606   3.403   5.091   2.797 -0.4451  0.9240 -0.9068
 5548TIP3   OH216607   1.734   6.353   2.122  0.4727 -0.3183  0.1646
 5548TIP3    H116608   1.717   6.436   2.166  0.3044 -0.7886  1.0102
 5548TIP3    H216609   1.647   6.312   2.114 -0.1290  1.3141 -3.9204
 5549TIP3   OH216610   1.834   0.948   1.176  0.1978 -0.4874  0.2742
 5549TIP3    H116611   1.744   0.920   1.159 -0.2553  0.9377  0.1919
 5549TIP3    H216612   1.873   0.875   1.224 -0.1131 -2.3348 -2.1149
 5550TIP3   OH216613   0.235   0.495   5.905  0.2718  0.6331  0.4646
 5550TIP3    H116614   0.235   0.532   5.817  1.1349 -1.2500 -0.3836
 5550TIP3    H216615   0.243   0.401   5.892  0.1992  0.2742  2.5617
 5551TIP3   OH216616   5.115   1.869   1.348  0.3033  0.6957 -0.1439
 5551TIP3    H116617   5.059   1.899   1.420  0.2453 -2.6165  1.3770
 5551TIP3    H216618   5.066   1.798   1.307  1.3913  0.9202 -1.9551
 5552TIP3   OH216619   1.911   4.105   1.315 -0.1423  0.0677 -0.1690
 5552TIP3    H116620   1.932   4.012   1.308  0.9446  0.3897 -1.9384
 5552TIP3    H216621   1.982   4.141   1.368 -0.0869  0.0275 -0.2152
 5553TIP3   OH216622   3.700   2.396   3.075 -0.1597  0.3251 -0.7359
 5553TIP3    H116623   3.618   2.438   3.051 -0.3650  0.6953  0.5330
 5553TIP3    H216624   3.732   2.447   3.150  1.1810  0.1281 -1.1419
 5554TIP3   OH216625   1.507   1.147   3.426  0.3164  0.0804 -0.2340
 5554TIP3    H116626   1.467   1.232   3.408  1.5800  0.5952 -0.7560
 5554TIP3    H216627   1.438   1.083   3.409 -0.9529  1.0364  1.1132
 5555TIP3   OH216628   1.781   0.058   3.883  0.4348  0.5716  0.5561
 5555TIP3    H116629   1.715   0.018   3.939  0.2337  0.1331  0.0154
 5555TIP3    H216630   1.733   0.088   3.806  0.7815  0.7232  0.3951
 5556TIP3   OH216631   1.490   0.230   0.958 -0.5141  0.4631  0.2317
 5556TIP3    H116632   1.562   0.253   0.900  1.2459 -4.4965 -0.0436
 5556TIP3    H216633   1.411   0.237   0.904  0.6358 -0.3752 -1.6207
 5557TIP3   OH216634   5.366   6.271   0.147 -0.1319 -0.2722  0.2860
 5557TIP3    H116635   5.330   6.252   0.060 -0.6057  0.8413  0.2225
 5557TIP3    H216636   5.458   6.291   0.130 -0.2443  0.0401  0.0193
 5558TIP3   OH216637   4.965   5.498   0.461 -0.3930 -0.1251 -0.8252
 5558TIP3    H116638   4.972   5.549   0.542 -0.5327  1.3025 -1.6827
 5558TIP3    H216639   4.872   5.498   0.440 -0.2929 -0.0096 -1.2807
 5559TIP3   OH216640   0.599   0.442   5.860  0.0096 -0.2330 -0.4322
 5559TIP3    H116641   0.567   0.355   5.884 -0.0098  0.2996  1.6752
 5559TIP3    H216642   0.523   0.500   5.871  0.3519  0.2477 -0.5376
 5560TIP3   OH216643   0.610   4.124   1.308 -0.1108 -0.7474 -0.1482
 5560TIP3    H116644   0.572   4.157   1.227  1.3905  1.0834 -0.1762
 5560TIP3    H216645   0.544   4.142   1.375 -0.3587 -0.0199 -0.5782
 5561TIP3   OH216646   5.439   4.671   0.877  0.0610  1.3079 -0.8054
 5561TIP3    H116647   5.468   4.697   0.965 -2.7533  1.2901  0.2261
 5561TIP3    H216648   5.419   4.754   0.834  0.2450  1.2585 -0.9863
 5562TIP3   OH216649   6.534   4.267   2.329 -0.0474 -0.5850  0.7683
 5562TIP3    H116650   6.609   4.233   2.281 -1.4805 -1.2502 -1.1599
 5562TIP3    H216651   6.570   4.336   2.385  2.5040 -3.2070  2.6623
 5563TIP3   OH216652   5.607   6.413   5.526 -0.7877  0.1688 -0.1389
 5563TIP3    H116653   5.616   6.318   5.527  1.1680  0.2934 -1.3823
 5563TIP3    H216654   5.651   6.443   5.606  2.2979  0.1944 -1.7038
 5564TIP3   OH216655   6.656   4.162   3.243 -0.0547  0.1888  0.2231
 5564TIP3    H116656   6.628   4.126   3.159  1.2983 -1.0539  0.2710
 5564TIP3    H216657   6.721   4.228   3.221 -1.7897  2.0006  0.1945
 5565TIP3   OH216658   1.235   4.461   1.952 -0.1215 -0.2265 -0.1556
 5565TIP3    H116659   1.323   4.490   1.925  0.1450 -1.5404 -0.7804
 5565TIP3    H216660   1.188   4.448   1.870 -1.3622  1.6919  0.1877
 5566TIP3   OH216661   5.043   4.583   4.909  0.3105  0.0289  0.3768
 5566TIP3    H116662   5.104   4.524   4.866  0.3889  0.6789 -0.4378
 5566TIP3    H216663   5.069   4.583   5.001  0.4081 -1.0599  0.3541
 5567TIP3   OH216664   5.258   1.761   4.496 -0.4726 -0.4924 -0.0097
 5567TIP3    H116665   5.239   1.672   4.528 -2.1817  0.6795  2.5236
 5567TIP3    H216666   5.177   1.809   4.508  0.8391  1.8141  0.0842
 5568TIP3   OH216667   0.561   6.281   5.711  0.3031  0.3879  0.3883
 5568TIP3    H116668   0.526   6.255   5.796  0.2306  0.2054  0.3029
 5568TIP3    H216669   0.655   6.271   5.719  0.3812  1.3068  0.7673
 5569TIP3   OH216670   2.039   1.303   3.739 -0.6924 -0.1735 -0.7914
 5569TIP3    H116671   2.068   1.212   3.744 -1.3800 -0.5244 -2.5434
 5569TIP3    H216672   2.090   1.340   3.667  0.8336  1.3621  0.9713
 5570TIP3   OH216673   4.523   6.258   4.235  0.2173 -0.3376 -0.3716
 5570TIP3    H116674   4.440   6.240   4.279 -1.0420  1.1840 -1.9786
 5570TIP3    H216675   4.585   6.272   4.306 -0.3963 -3.3148  0.8968
 5571TIP3   OH216676   5.605   0.194   2.029  0.5103  0.2214 -0.2659
 5571TIP3    H116677   5.668   0.122   2.037  0.7366  0.4524  0.0499
 5571TIP3    H216678   5.590   0.201   1.934 -1.3337 -1.7879 -0.1911
 5572TIP3   OH216679   1.004   0.528   0.789 -0.3297  0.5471 -0.2405
 5572TIP3    H116680   0.972   0.458   0.733  0.2733  0.1423 -0.0936
 5572TIP3    H216681   1.074   0.487   0.840 -0.4037  1.0894  0.3053
 5573TIP3   OH216682   1.666   4.845   1.667  0.2507 -0.2982 -0.1892
 5573TIP3    H116683   1.621   4.836   1.582  0.0453 -1.1288  0.0047
 5573TIP3    H216684   1.685   4.756   1.694  0.7463 -0.0130  0.4213
 5574TIP3   OH216685   5.434   3.199   3.876  0.2647  0.3337  0.2099
 5574TIP3    H116686   5.477   3.159   3.801  1.9401 -1.0893  1.8373
 5574TIP3    H216687   5.506   3.236   3.928 -0.8872  1.6911  0.9038
 5575TIP3   OH216688   2.509   1.587   0.911 -0.0519 -0.1813 -0.2246
 5575TIP3    H116689   2.567   1.635   0.970 -0.2621  0.0658 -0.2162
 5575TIP3    H216690   2.442   1.651   0.886 -0.9430 -0.7440  0.6265
 5576TIP3   OH216691   0.209   2.262   5.558  0.2449  0.1020 -0.1262
 5576TIP3    H116692   0.290   2.218   5.586  0.9242  0.6480 -1.1727
 5576TIP3    H216693   0.239   2.341   5.513 -0.7976 -0.3779 -1.7537
 5577TIP3   OH216694   5.747   2.725   0.527 -0.4719 -0.6836  0.4403
 5577TIP3    H116695   5.828   2.754   0.485 -0.1846 -1.0946  0.6948
 5577TIP3    H216696   5.776   2.678   0.605 -0.9983  0.1100  1.1337
 5578TIP3   OH216697   4.133   1.003   2.367 -0.1196 -0.7938  0.2277
 5578TIP3    H116698   4.212   0.982   2.317 -0.8097 -0.7669 -0.9152
 5578TIP3    H216699   4.165   1.031   2.452  1.0367 -2.2884  0.3241
 5579TIP3   OH216700   5.583   1.824   2.371  0.1776  0.2491 -0.3633
 5579TIP3    H116701   5.496   1.789   2.390  0.7459 -1.5649 -0.9510
 5579TIP3    H216702   5.579   1.915   2.402 -1.0624 -0.5608  2.0937
 5580TIP3   OH216703   4.403   0.349   4.809 -0.0617  0.0155 -0.4028
 5580TIP3    H116704   4.499   0.348   4.807 -0.0545  0.9906 -1.5398
 5580TIP3    H216705   4.378   0.259   4.828  1.0801 -0.2329 -0.0101
 5581TIP3   OH216706   3.036   6.036   0.126  0.0677  0.3911  0.4495
 5581TIP3    H116707   3.118   6.024   0.079 -0.3813 -1.9167  0.1842
 5581TIP3    H216708   2.968   6.031   0.059 -0.3623  1.5465  0.7690
 5582TIP3   OH216709   5.822   3.517   4.705  0.3198  0.3928 -0.0031
 5582TIP3    H116710   5.773   3.507   4.623  0.4029 -3.2445  0.2293
 5582TIP3    H216711   5.804   3.437   4.754  1.6167  1.7022  2.8607
 5583TIP3   OH216712   3.099   6.360   5.525 -0.3046  0.0267  0.6208
 5583TIP3    H116713   3.044   6.335   5.450  0.7752 -0.5540 -0.0099
 5583TIP3    H216714   3.181   6.312   5.511 -0.2088 -0.3996  2.3885
 5584TIP3   OH216715   7.160   5.559   4.578  0.1550  0.1254  0.4077
 5584TIP3    H116716   7.121   5.537   4.662 -2.1583  1.3027 -0.2881
 5584TIP3    H216717   7.096   5.616   4.535  0.6161 -1.4722 -2.7251
 5585TIP3   OH216718   4.356   3.800   5.818 -0.1865 -0.6150  0.2772
 5585TIP3    H116719   4.298   3.811   5.743  0.3771 -0.5168 -0.1478
 5585TIP3    H216720   4.321   3.860   5.884 -0.0622  0.0766 -0.2787
 5586TIP3   OH216721   2.628   6.618   2.766 -0.2122 -0.1682  0.0027
 5586TIP3    H116722   2.692   6.547   2.759  0.2518 -0.0402  2.3283
 5586TIP3    H216723   2.548   6.574   2.795 -0.4688  0.0292 -0.3922
 5587TIP3   OH216724   6.120   5.613   3.986 -0.7994  0.0993  0.0111
 5587TIP3    H116725   6.085   5.529   4.016 -0.7484  0.4741  1.1635
 5587TIP3    H216726   6.194   5.630   4.044 -1.1339  1.1884  0.1514
 5588TIP3   OH216727   0.314   2.885   2.791  0.2985 -0.1942 -0.8051
 5588TIP3    H116728   0.271   2.888   2.705 -3.4116  1.1473  0.9206
 5588TIP3    H216729   0.350   2.973   2.803 -1.0904  0.3105 -0.1640
 5589TIP3   OH216730   6.312   0.770   0.692 -0.2516  0.0495  0.3435
 5589TIP3    H116731   6.236   0.827   0.708 -0.4009  0.4172 -1.4479
 5589TIP3    H216732   6.287   0.686   0.729 -1.0840  0.4534  0.7306
 5590TIP3   OH216733   6.104   2.676   2.603 -0.1066  0.3192  0.1009
 5590TIP3    H116734   6.045   2.630   2.663 -0.6377  2.0328  0.9845
 5590TIP3    H216735   6.156   2.732   2.660  3.0795 -1.7401 -0.5496
 5591TIP3   OH216736   3.209   2.882   5.144  0.0623  0.0648 -0.2845
 5591TIP3    H116737   3.187   2.874   5.051 -0.1842 -1.3273 -0.1267
 5591TIP3    H216738   3.148   2.949   5.177 -0.8623 -0.4822 -0.8261
 5592TIP3   OH216739   4.012   0.762   5.800  0.5350  0.1082 -0.1914
 5592TIP3    H116740   4.008   0.721   5.887  0.8545 -0.8116 -0.6008
 5592TIP3    H216741   3.929   0.808   5.792 -1.2579 -2.9232 -0.8716
 5593TIP3   OH216742   4.318   1.776   2.814 -0.2212  0.0372 -0.3764
 5593TIP3    H116743   4.237   1.733   2.839 -0.5955  0.1059 -1.4299
 5593TIP3    H216744   4.323   1.764   2.719  1.6973 -1.1943 -0.1833
 5594TIP3   OH216745   1.104   4.006   1.860 -0.3493 -0.5822  0.2824
 5594TIP3    H116746   1.080   4.051   1.780 -0.7690 -1.0002  0.1639
 5594TIP3    H216747   1.177   4.056   1.896 -0.9855  0.3423  0.3016
 5595TIP3   OH216748   4.819   3.862   4.904 -0.2786 -0.0408 -0.3675
 5595TIP3    H116749   4.774   3.900   4.979 -0.7692 -0.3874 -0.4847
 5595TIP3    H216750   4.901   3.912   4.897  0.0702 -0.4306  0.7798
 5596TIP3   OH216751   2.560   4.277   1.959  0.3468 -0.4789 -0.0437
 5596TIP3    H116752   2.550   4.186   1.987 -0.6406 -0.0446  1.1068
 5596TIP3    H216753   2.579   4.325   2.040 -2.5867  0.8352 -0.0063
 5597TIP3   OH216754   3.098   1.738   2.098 -0.1405 -0.2666  0.4579
 5597TIP3    H116755   3.026   1.683   2.067 -1.1099  1.3384 -0.3334
 5597TIP3    H216756   3.065   1.776   2.180  0.3803 -0.6116  0.8267
 5598TIP3   OH216757   6.242   3.193   1.514 -0.5247 -0.3675 -0.0976
 5598TIP3    H116758   6.233   3.106   1.552 -1.0870 -0.3383 -0.1544
 5598TIP3    H216759   6.261   3.250   1.589 -0.6434 -0.4661  0.0092
 5599TIP3   OH216760   2.250   1.666   2.630 -0.3262 -0.0873 -0.3295
 5599TIP3    H116761   2.182   1.693   2.692 -1.7044 -0.3161 -1.6709
 5599TIP3    H216762   2.213   1.588   2.588  2.2120 -2.3031  1.2351
 5600TIP3   OH216763   1.118   6.649   5.754  0.4518 -0.3808 -0.1957
 5600TIP3    H116764   1.129   6.667   5.660 -0.6543  1.4688 -0.0202
 5600TIP3    H216765   1.127   6.735   5.795  0.1789 -1.0641  1.3244
 5601TIP3   OH216766   1.958   3.618   5.538 -0.0343  0.3614  0.2009
 5601TIP3    H116767   2.006   3.593   5.617  0.4520  0.0940 -0.1783
 5601TIP3    H216768   1.974   3.547   5.476 -0.4296  0.5621 -0.1383
 5602TIP3   OH216769   1.859   2.984   3.033 -0.1748  0.8154 -0.0939
 5602TIP3    H116770   1.916   3.012   2.961 -0.6412  1.3682 -0.2549
 5602TIP3    H216771   1.858   2.889   3.026 -1.5344  0.9188 -1.8717
 5603TIP3   OH216772   5.456   3.019   0.247 -0.1699 -0.2786  0.5288
 5603TIP3    H116773   5.488   3.098   0.203 -2.2521  1.2144  1.5357
 5603TIP3    H216774   5.534   2.964   0.256  1.0023  0.8477 -1.8100
 5604TIP3   OH216775   0.900   5.249   4.228 -0.7734  0.0410  0.1609
 5604TIP3    H116776   0.865   5.336   4.210 -0.9351  0.4450  2.1627
 5604TIP3    H216777   0.991   5.253   4.197 -0.6877  1.0374  0.4986
 5605TIP3   OH216778   6.974   5.040   5.810  0.4653 -0.8099  0.4917
 5605TIP3    H116779   6.984   4.967   5.870  0.2062 -3.1437 -2.0934
 5605TIP3    H216780   7.064   5.065   5.788  0.5773  0.5124  2.2337
 5606TIP3   OH216781   2.493   1.341   2.576  0.2500  0.0879 -0.0872
 5606TIP3    H116782   2.489   1.400   2.651 -0.2302  1.1067 -0.8963
 5606TIP3    H216783   2.545   1.267   2.607 -1.3520 -0.3382  1.8016
 5607TIP3   OH216784   3.354   6.165   2.678  0.2688 -0.3959  0.6449
 5607TIP3    H116785   3.306   6.242   2.647  0.7529 -0.0695  0.6955
 5607TIP3    H216786   3.443   6.197   2.693  0.7504 -1.2028 -0.3415
 5608TIP3   OH216787   4.129   5.336   0.357 -0.1951  0.2732 -0.2371
 5608TIP3    H116788   4.123   5.247   0.323  0.2850  0.3552 -0.5371
 5608TIP3    H216789   4.040   5.371   0.348 -0.0759  0.3005 -1.4267
 5609TIP3   OH216790   6.425   6.233   3.573  0.3475 -0.3551 -0.2901
 5609TIP3    H116791   6.520   6.240   3.584  0.0574  1.3843  1.6875
 5609TIP3    H216792   6.389   6.275   3.651 -2.0713  2.9524 -2.9177
 5610TIP3   OH216793   3.206   5.079   1.237  0.7699  0.2968  0.3499
 5610TIP3    H116794   3.136   5.100   1.175  0.3951  1.0229  0.9886
 5610TIP3    H216795   3.283   5.062   1.183  0.3923  0.6739 -0.3180
 5611TIP3   OH216796   2.290   5.229   2.079 -0.4545 -0.2190 -0.1772
 5611TIP3    H116797   2.310   5.211   1.987 -0.3727 -1.0536 -0.0078
 5611TIP3    H216798   2.200   5.199   2.090 -0.7573  0.6579 -0.1800
 5612TIP3   OH216799   7.089   5.168   2.858  0.2111  0.4834  0.3019
 5612TIP3    H116800   7.182   5.188   2.864  0.3649  0.4373 -1.4407
 5612TIP3    H216801   7.068   5.176   2.765 -1.1605 -1.1080  0.4162
 5613TIP3   OH216802   4.191   1.838   1.702 -1.0389 -0.1523 -0.3688
 5613TIP3    H116803   4.187   1.868   1.793 -0.3504 -2.5770  0.5594
 5613TIP3    H216804   4.284   1.819   1.688 -0.9530  1.2541 -2.0090
 5614TIP3   OH216805   5.453   4.775   2.539 -0.1566  0.0683 -0.5410
 5614TIP3    H116806   5.492   4.720   2.471 -1.0950 -0.0199 -1.0233
 5614TIP3    H216807   5.415   4.713   2.601 -3.2197  0.0634 -2.2328
 5615TIP3   OH216808   6.702   0.353   4.767  1.0907 -0.1520 -0.2334
 5615TIP3    H116809   6.631   0.415   4.750  0.3434 -1.2137 -1.0807
 5615TIP3    H216810   6.779   0.409   4.778  0.4582  0.9300 -1.0312
 5616TIP3   OH216811   4.748   3.331   4.030  0.1666  0.5240  0.3121
 5616TIP3    H116812   4.832   3.301   4.065  0.0526 -0.9348 -0.5588
 5616TIP3    H216813   4.761   3.331   3.935 -0.9703 -0.3046  0.1332
 5617TIP3   OH216814   2.070   0.054   1.097 -0.1390 -0.2090 -0.4095
 5617TIP3    H116815   2.137   0.026   1.035 -1.3584 -0.1717 -1.7921
 5617TIP3    H216816   2.087   0.147   1.110  0.8726 -0.4664  0.3226
 5618TIP3   OH216817   4.468   4.132   5.423  0.5113  0.0208 -0.1645
 5618TIP3    H116818   4.467   4.219   5.462 -0.2467 -1.0691  2.5178
 5618TIP3    H216819   4.375   4.110   5.411  0.6428 -0.8891  0.4086
 5619TIP3   OH216820   5.662   6.254   5.250 -0.2460  0.6765 -1.2786
 5619TIP3    H116821   5.747   6.263   5.294 -1.1663  1.1425  0.5380
 5619TIP3    H216822   5.624   6.342   5.254 -2.0486 -0.0833  0.7632
 5620TIP3   OH216823   2.960   4.372   1.534  0.4090 -0.4349 -0.0325
 5620TIP3    H116824   3.037   4.427   1.543  1.8462 -2.6176  2.6517
 5620TIP3    H216825   2.993   4.289   1.498 -1.3366 -0.3314 -2.1193
 5621TIP3   OH216826   4.939   5.790   2.634  0.5095 -0.0784  0.0184
 5621TIP3    H116827   4.909   5.700   2.651 -2.2281  0.5894 -0.7122
 5621TIP3    H216828   4.907   5.840   2.710  0.1786  0.6215 -0.5761
 5622TIP3   OH216829   1.397   6.502   3.538  0.2812  0.1035 -0.0792
 5622TIP3    H116830   1.374   6.573   3.478 -0.6929  0.2843  0.4821
 5622TIP3    H216831   1.492   6.499   3.536  0.5122  2.8837  1.4940
 5623TIP3   OH216832   5.154   1.408   4.857 -0.1264 -0.5801 -0.5073
 5623TIP3    H116833   5.143   1.313   4.867  1.1522 -0.6450  0.5869
 5623TIP3    H216834   5.131   1.444   4.942  2.9243 -0.3128  0.3425
 5624TIP3   OH216835   4.037   1.392   4.495  0.1630  0.0965  0.3086
 5624TIP3    H116836   4.044   1.464   4.558 -0.8864  0.3192  0.1880
 5624TIP3    H216837   4.004   1.433   4.415  2.3756 -0.0193 -0.7261
 5625TIP3   OH216838   0.963   0.042   4.225 -0.4675  0.7116 -0.0725
 5625TIP3    H116839   1.032   0.018   4.285  1.2344 -1.4908 -2.6594
 5625TIP3    H216840   0.976   0.135   4.208  0.7422  0.7211  0.8294
 5626TIP3   OH216841   5.449   2.932   2.711  0.3663  0.2950 -0.2222
 5626TIP3    H116842   5.365   2.894   2.685  0.3927 -1.4811  1.9590
 5626TIP3    H216843   5.496   2.947   2.629 -1.2329 -0.6979 -1.3749
 5627TIP3   OH216844   5.904   0.482   4.231 -0.4781  0.1697 -0.1756
 5627TIP3    H116845   5.973   0.548   4.236  0.1480 -0.5215  3.1050
 5627TIP3    H216846   5.831   0.519   4.281 -1.1947 -0.5025 -0.6992
 5628TIP3   OH216847   7.014   6.016   3.966  0.3094  0.0012  0.2025
 5628TIP3    H116848   7.085   5.951   3.968  1.0024  0.6863 -0.8953
 5628TIP3    H216849   6.959   5.989   3.893  0.9818  0.9877 -0.7134
 5629TIP3   OH216850   0.759   0.637   0.838  0.2832 -0.1158  0.5240
 5629TIP3    H116851   0.843   0.594   0.821  1.2892  2.2004 -1.0048
 5629TIP3    H216852   0.694   0.568   0.828  1.9441 -1.9060  1.3185
 5630TIP3   OH216853   6.839   4.345   1.451  0.5421 -0.3977  0.7225
 5630TIP3    H116854   6.871   4.424   1.495  1.2427  0.9549 -1.9904
 5630TIP3    H216855   6.892   4.338   1.372 -2.7532 -0.6296 -1.7167
 5631TIP3   OH216856   4.814   1.671   0.094 -0.1657 -0.0851  0.3099
 5631TIP3    H116857   4.736   1.618   0.109 -1.0097  0.7126 -1.0327
 5631TIP3    H216858   4.808   1.742   0.157 -1.2196  0.6806 -0.6266
 5632TIP3   OH216859   0.125   1.361   4.139  0.1973 -0.2632  0.3647
 5632TIP3    H116860   0.194   1.312   4.094 -0.8680  0.3332 -2.0940
 5632TIP3    H216861   0.167   1.442   4.166  0.3743  0.3671 -1.6738
 5633TIP3   OH216862   1.138   6.161   0.060  0.4312  0.5062 -0.7460
 5633TIP3    H116863   1.119   6.184   0.151  1.9793  0.3693 -0.3631
 5633TIP3    H216864   1.148   6.245   0.016 -0.6377  0.5761 -0.8797
 5634TIP3   OH216865   4.578   5.155   5.493  0.0406  0.2582 -0.3979
 5634TIP3    H116866   4.666   5.162   5.455 -0.4983  1.7083 -1.4928
 5634TIP3    H216867   4.582   5.207   5.573  0.4735 -0.6342  0.1746
 5635TIP3   OH216868   3.851   6.638   3.055 -0.2409  0.0161 -0.0653
 5635TIP3    H116869   3.943   6.638   3.026 -0.4715 -1.1186 -0.8309
 5635TIP3    H216870   3.846   6.567   3.119 -0.5027  0.3461  0.2860
 5636TIP3   OH216871   1.240   3.681   5.345  0.2076  0.0080 -0.3466
 5636TIP3    H116872   1.235   3.771   5.311  1.4517 -0.3832 -1.7141
 5636TIP3    H216873   1.295   3.689   5.423 -1.4490  0.7136  0.7966
 5637TIP3   OH216874   0.690   2.050   3.302  0.1946  0.4676  0.3262
 5637TIP3    H116875   0.736   2.046   3.218  1.3057 -2.7518  0.9031
 5637TIP3    H216876   0.606   2.090   3.283  1.2619  1.8504 -1.8342
 5638TIP3   OH216877   4.230   1.766   5.861 -0.0360 -0.0265  0.8169
 5638TIP3    H116878   4.171   1.799   5.928 -1.3385  1.1485 -0.8170
 5638TIP3    H216879   4.192   1.682   5.834  0.6084 -0.6042  1.6596
 5639TIP3   OH216880   3.017   0.304   5.798  0.0516 -0.1502  0.8010
 5639TIP3    H116881   3.096   0.349   5.767  0.9610 -0.5808  2.3874
 5639TIP3    H216882   3.025   0.304   5.893 -1.3220 -1.2103  0.9528
 5640TIP3   OH216883   5.183   0.733   4.766 -0.6420  0.7341  0.0587
 5640TIP3    H116884   5.275   0.714   4.747 -0.8595 -3.5742  2.1889
 5640TIP3    H216885   5.186   0.808   4.825  1.5523  0.4571  0.3979
 5641TIP3   OH216886   4.526   1.153   3.706  0.3447 -0.1440 -0.0247
 5641TIP3    H116887   4.507   1.206   3.783  1.6546 -1.1003  1.0125
 5641TIP3    H216888   4.513   1.063   3.734  0.1299 -0.4855 -1.1503
 5642TIP3   OH216889   3.878   1.125   3.483  0.0644  0.4599 -0.1801
 5642TIP3    H116890   3.825   1.196   3.446  0.0022 -0.0704 -1.1277
 5642TIP3    H216891   3.930   1.168   3.551 -0.4885  1.2773 -0.2552
 5643TIP3   OH216892   3.567   5.123   0.805  0.9143 -0.5871  0.2402
 5643TIP3    H116893   3.640   5.117   0.744  1.1483  0.7609  0.3529
 5643TIP3    H216894   3.609   5.131   0.891  0.7331  1.7614  0.1799
 5644TIP3   OH216895   2.119   0.107   1.404 -0.2223  0.2898  0.1123
 5644TIP3    H116896   2.065   0.165   1.457 -0.8875 -1.1657  1.1042
 5644TIP3    H216897   2.083   0.020   1.419  1.7915 -0.6201  0.0303
 5645TIP3   OH216898   4.769   2.009   1.268  0.1176 -0.3007  0.5462
 5645TIP3    H116899   4.737   1.990   1.356  0.6101 -0.8797  0.6088
 5645TIP3    H216900   4.837   1.943   1.253  0.3630  0.0909 -0.0847
 5646TIP3   OH216901   5.682   2.991   4.836 -0.1738  0.0397 -0.2821
 5646TIP3    H116902   5.762   2.976   4.784  1.2637  0.7632  1.6122
 5646TIP3    H216903   5.666   2.907   4.878  0.4206  0.2578  0.4020
 5647TIP3   OH216904   3.227   4.115   5.430 -0.0124 -0.2499 -0.5252
 5647TIP3    H116905   3.294   4.141   5.494 -0.6387  1.9914 -0.6923
 5647TIP3    H216906   3.180   4.043   5.473 -0.3817  1.1488  1.5792
 5648TIP3   OH216907   4.281   6.204   5.534  0.2074 -0.4465 -0.3572
 5648TIP3    H116908   4.294   6.132   5.595  2.5992  1.2328  1.2689
 5648TIP3    H216909   4.186   6.212   5.526 -0.1302 -2.8725  0.4455
 5649TIP3   OH216910   5.504   3.299   1.583 -0.1799  0.2506 -0.3104
 5649TIP3    H116911   5.578   3.334   1.633 -0.0714 -1.4190  0.7439
 5649TIP3    H216912   5.465   3.233   1.640 -1.0297 -0.5972 -1.8117
 5650TIP3   OH216913   6.892   6.613   1.977  0.2454  0.2917 -0.0092
 5650TIP3    H116914   6.888   6.637   2.069  2.0609 -1.1211  0.4959
 5650TIP3    H216915   6.955   6.541   1.973  1.7990  1.6281 -2.6140
 5651TIP3   OH216916   1.420   1.113   0.175 -0.0172  0.3363 -0.2726
 5651TIP3    H116917   1.364   1.180   0.134  1.2160  0.4586 -1.8585
 5651TIP3    H216918   1.454   1.062   0.101  1.4065 -0.1640  0.6843
 5652TIP3   OH216919   1.062   6.339   4.616 -0.0281 -0.4237  0.2498
 5652TIP3    H116920   1.139   6.376   4.658 -1.3640 -0.7107  3.1983
 5652TIP3    H216921   1.096   6.291   4.540  2.5671  0.0396  1.0346
 5653TIP3   OH216922   5.250   6.217   0.939 -0.6128  0.2276  0.3920
 5653TIP3    H116923   5.308   6.151   0.976  0.6027  1.1407  0.1894
 5653TIP3    H216924   5.195   6.169   0.877 -0.0220 -0.6540  0.5335
 5654TIP3   OH216925   4.440   0.274   0.715  0.6688  0.0372  0.5866
 5654TIP3    H116926   4.449   0.183   0.743  0.1823 -0.5987 -1.2103
 5654TIP3    H216927   4.501   0.283   0.642 -0.1556  0.7948 -0.0293
 5655TIP3   OH216928   0.019   4.012   4.277  0.4156  0.3344  0.2763
 5655TIP3    H116929   0.100   3.962   4.273  0.2010 -0.0489 -3.6798
 5655TIP3    H216930  -0.049   3.946   4.292  0.5552  0.1203 -0.0191
 5656TIP3   OH216931   0.539   2.722   5.760 -0.1351  0.1648 -0.7828
 5656TIP3    H116932   0.459   2.734   5.710 -1.5674 -0.3338  1.2921
 5656TIP3    H216933   0.561   2.809   5.792 -1.3945 -0.0959  0.8632
 5657TIP3   OH216934   3.001   0.003   3.785 -0.0668 -0.3475  0.6500
 5657TIP3    H116935   3.040   0.081   3.744 -0.6450 -0.6030 -0.4052
 5657TIP3    H216936   3.071  -0.031   3.841  0.4670  0.4671  0.5022
 5658TIP3   OH216937   5.667   3.363   1.187 -0.0261 -0.2863 -0.4698
 5658TIP3    H116938   5.627   3.400   1.108  0.1940 -0.0717 -0.4819
 5658TIP3    H216939   5.594   3.320   1.233 -1.0252  2.8833  1.1986
 5659TIP3   OH216940   3.076   5.383   0.746  0.4731  0.0700 -0.0540
 5659TIP3    H116941   3.157   5.332   0.742 -0.1531 -0.8922 -0.9280
 5659TIP3    H216942   3.099   5.468   0.710  1.2746  0.0698  0.4352
 5660TIP3   OH216943   7.178   2.505   5.564  0.6745 -0.3225  0.0410
 5660TIP3    H116944   7.214   2.534   5.647 -1.0540  2.7875 -0.1476
 5660TIP3    H216945   7.255   2.492   5.508  1.7218  0.0936  1.3351
 5661TIP3   OH216946   3.856   2.293   2.330 -0.4648  0.1893 -0.0548
 5661TIP3    H116947   3.876   2.234   2.403  0.2697 -1.5561 -1.5612
 5661TIP3    H216948   3.784   2.250   2.284 -0.1190  0.6171 -1.0271
 5662TIP3   OH216949   0.357   5.232   3.891  0.1391 -0.6947  0.0729
 5662TIP3    H116950   0.449   5.255   3.903 -0.0135 -0.0237 -0.0092
 5662TIP3    H216951   0.324   5.221   3.980 -0.0507  0.5007  0.1643
 5663TIP3   OH216952   0.885   2.584   5.888  0.4663 -0.2048  0.2767
 5663TIP3    H116953   0.861   2.560   5.799 -1.1588  0.1847  0.5756
 5663TIP3    H216954   0.968   2.538   5.904  0.0120 -1.4921 -0.8894
 5664TIP3   OH216955   3.184   4.658   4.175  0.2784  0.2888  0.2026
 5664TIP3    H116956   3.254   4.613   4.222 -0.2210  0.4848  1.1530
 5664TIP3    H216957   3.161   4.599   4.103  0.5033 -0.3839  0.6753
 5665TIP3   OH216958   3.628   0.426   5.736 -0.3646 -0.2026 -0.6889
 5665TIP3    H116959   3.678   0.345   5.750  0.4173  0.3755 -0.0911
 5665TIP3    H216960   3.694   0.491   5.711 -0.7851  0.6002  0.2292
 5666TIP3   OH216961   0.179   3.689   2.703  0.2627  0.2881 -0.0236
 5666TIP3    H116962   0.111   3.646   2.754  1.7803 -1.2197  0.8023
 5666TIP3    H216963   0.143   3.775   2.683 -1.4880 -0.1193  1.1870
 5667TIP3   OH216964   2.812   1.074   3.924 -0.2794  0.2267 -0.2531
 5667TIP3    H116965   2.895   1.111   3.954 -0.1223 -0.6693  0.4739
 5667TIP3    H216966   2.750   1.147   3.926  0.3261  0.7417 -0.1179
 5668TIP3   OH216967   1.880   5.157   1.222  0.4768 -0.3085 -0.2229
 5668TIP3    H116968   1.938   5.229   1.196  0.3259 -0.4116 -0.8522
 5668TIP3    H216969   1.925   5.116   1.297  0.0829  1.0385  0.7793
 5669TIP3   OH216970   6.355   1.237   2.792 -0.2293 -0.6029  0.2583
 5669TIP3    H116971   6.428   1.178   2.811 -0.6185 -0.8678  0.9825
 5669TIP3    H216972   6.299   1.188   2.733  0.5324 -0.1223 -0.8953
 5670TIP3   OH216973   4.150   0.323   2.076  0.6166  0.1624 -0.2060
 5670TIP3    H116974   4.235   0.286   2.098  1.3134  0.9395 -1.4236
 5670TIP3    H216975   4.156   0.415   2.104  0.6914  0.5597 -1.4246
 5671TIP3   OH216976   4.833   1.197   0.205 -0.6431 -0.3732  0.1089
 5671TIP3    H116977   4.847   1.258   0.277  0.1711 -1.6127  1.0594
 5671TIP3    H216978   4.781   1.126   0.244 -2.6643  0.2672 -1.2867
 5672TIP3   OH216979   1.316   6.742   3.397  0.5386  0.3034  0.1732
 5672TIP3    H116980   1.250   6.805   3.368 -0.7241 -1.0365  0.0663
 5672TIP3    H216981   1.392   6.797   3.420  0.4593  1.6769 -2.4403
 5673TIP3   OH216982   1.106   2.864   4.409 -0.3506 -0.2474  0.0685
 5673TIP3    H116983   1.185   2.833   4.453  0.5597 -1.0713 -2.0160
 5673TIP3    H216984   1.047   2.889   4.481  1.9518  0.8989  1.7016
 5674TIP3   OH216985   3.482   5.451   1.009 -0.1054 -0.4431  0.0747
 5674TIP3    H116986   3.553   5.390   0.988  1.3582  1.3014 -0.3485
 5674TIP3    H216987   3.510   5.533   0.968 -0.4832  1.3354  3.1334
 5675TIP3   OH216988   2.490   1.369   3.130  0.3922 -0.6007 -0.2957
 5675TIP3    H116989   2.550   1.409   3.194 -0.3464 -1.6277  1.0935
 5675TIP3    H216990   2.464   1.442   3.073 -0.6018  0.8681  1.8912
 5676TIP3   OH216991   5.384   3.322   3.507 -0.3361 -0.4883  0.4483
 5676TIP3    H116992   5.333   3.348   3.430  0.1982 -1.5242 -0.2647
 5676TIP3    H216993   5.437   3.399   3.527  1.0276 -0.8770 -1.4733
 5677TIP3   OH216994   6.544   4.311   0.421 -0.1248  0.2993  0.4500
 5677TIP3    H116995   6.491   4.362   0.359  0.2848  0.3545  0.1419
 5677TIP3    H216996   6.480   4.256   0.466 -0.4600  0.4276  0.1446
 5678TIP3   OH216997   1.460   4.656   0.526  0.1157  0.5649  0.1072
 5678TIP3    H116998   1.493   4.732   0.478 -0.3447  1.4086  1.0925
 5678TIP3    H216999   1.373   4.640   0.490 -0.1380  1.0576  0.4893
 5679TIP3   OH217000   0.815   1.085   1.010  0.2314  0.7981 -0.6164
 5679TIP3    H117001   0.905   1.068   0.982  0.3292  1.9540 -1.0515
 5679TIP3    H217002   0.764   1.015   0.969  1.1450 -1.1048  1.2487
 5680TIP3   OH217003   4.283   4.773   3.993 -0.2449 -0.3944  0.5147
 5680TIP3    H117004   4.233   4.694   4.012  0.1509 -0.9540 -0.7465
 5680TIP3    H217005   4.364   4.742   3.955 -0.0072  0.6166  0.1745
 5681TIP3   OH217006   5.262   4.988   1.430  0.3710 -0.1928 -0.6983
 5681TIP3    H117007   5.288   4.934   1.355  1.7474 -1.9974  0.9607
 5681TIP3    H217008   5.317   5.066   1.424  1.4214 -0.9323 -0.8706
 5682TIP3   OH217009   0.357   2.206   4.122 -0.3635 -0.3424 -0.3894
 5682TIP3    H117010   0.446   2.205   4.159 -1.0517  1.3288  1.4533
 5682TIP3    H217011   0.370   2.187   4.029  2.1272  1.5760 -0.5274
 5683TIP3   OH217012   4.803   2.432   3.272 -0.0886  0.4368  0.6110
 5683TIP3    H117013   4.778   2.470   3.356  0.1601  0.8307  0.5137
 5683TIP3    H217014   4.722   2.427   3.222 -0.0131  1.5848  0.3393
 5684TIP3   OH217015   1.022   3.927   5.814 -0.2914  0.4473 -0.4778
 5684TIP3    H117016   1.046   3.935   5.721 -0.7164  1.8135 -0.4889
 5684TIP3    H217017   1.066   4.000   5.856  1.6123 -1.3114  0.8134
 5685TIP3   OH217018   2.691   0.350   4.388 -0.1483  0.6090 -0.1543
 5685TIP3    H117019   2.600   0.377   4.377 -0.6558 -0.6703  0.7428
 5685TIP3    H217020   2.698   0.267   4.343  0.5465  0.6250 -0.0929
 5686TIP3   OH217021   3.640   2.986   2.008  0.4393 -0.0491 -0.0976
 5686TIP3    H117022   3.567   2.952   2.060  0.0719  0.3768 -0.3276
 5686TIP3    H217023   3.692   3.037   2.069  0.3176 -0.0131 -0.0236
 5687TIP3   OH217024   3.333   1.136   0.671  0.2757  0.1380 -0.0996
 5687TIP3    H117025   3.291   1.222   0.675 -0.0900 -0.0527  0.3482
 5687TIP3    H217026   3.334   1.106   0.762 -1.7543 -1.3507 -0.5012
 5688TIP3   OH217027   1.242   0.556   3.277  0.2574  0.1596 -0.2291
 5688TIP3    H117028   1.228   0.462   3.292  1.5591  0.3232  2.6688
 5688TIP3    H217029   1.331   0.561   3.242 -0.4366  0.2656 -2.0966
 5689TIP3   OH217030   3.821   1.823   3.572  0.1568 -0.3511  0.0822
 5689TIP3    H117031   3.788   1.733   3.573 -0.8464 -0.0497 -1.8518
 5689TIP3    H217032   3.854   1.836   3.484  0.9999  0.9637  0.5583
 5690TIP3   OH217033   6.257   1.100   4.007 -0.3452  0.0644 -0.1061
 5690TIP3    H117034   6.243   1.174   4.066 -1.4386 -0.4685  0.3230
 5690TIP3    H217035   6.351   1.103   3.986 -0.0861  0.6734  1.0959
 5691TIP3   OH217036   5.302   5.513   1.443  0.4263  0.1681  0.3300
 5691TIP3    H117037   5.383   5.563   1.452  0.9367 -0.4368 -0.7905
 5691TIP3    H217038   5.306   5.475   1.355 -0.0291 -1.6744  1.0475
 5692TIP3   OH217039   0.610   0.801   2.350  0.0779 -0.3045 -0.3710
 5692TIP3    H117040   0.625   0.756   2.266  3.0296  1.8928 -1.1812
 5692TIP3    H217041   0.548   0.871   2.329 -0.1392 -0.5027 -0.4019
 5693TIP3   OH217042   1.162   1.281   2.832 -0.3244  0.6464  0.4251
 5693TIP3    H117043   1.184   1.205   2.779 -0.3706  0.7318  0.2814
 5693TIP3    H217044   1.094   1.250   2.892 -0.1186  0.4951  0.5789
 5694TIP3   OH217045   1.407   2.957   2.157 -0.0976  0.1051 -0.8126
 5694TIP3    H117046   1.434   2.948   2.066  1.2738 -0.0433 -0.4059
 5694TIP3    H217047   1.487   2.944   2.208 -0.9773 -0.6152  0.4555
 5695TIP3   OH217048   6.226   4.169   2.689  0.2499 -0.0869 -0.1477
 5695TIP3    H117049   6.170   4.092   2.681  0.0704  0.1847 -1.6531
 5695TIP3    H217050   6.264   4.181   2.603 -0.1211  1.8066 -0.0934
 5696TIP3   OH217051   2.496   2.517   0.902  0.8359 -0.5578  0.1063
 5696TIP3    H117052   2.545   2.508   0.820  0.3924  0.7289 -0.3119
 5696TIP3    H217053   2.562   2.511   0.971  1.4944  0.4982 -0.4261
 5697TIP3   OH217054   2.544   3.998   1.309 -0.2439 -0.7203  0.5828
 5697TIP3    H117055   2.551   3.961   1.221  0.1931 -2.5460  1.3399
 5697TIP3    H217056   2.451   3.990   1.332 -0.6996  1.3414 -0.3140
 5698TIP3   OH217057   4.503   6.113   1.870 -0.1158 -0.4362  0.2766
 5698TIP3    H117058   4.525   6.115   1.963 -1.5019  0.1449  0.6126
 5698TIP3    H217059   4.548   6.035   1.836  1.6689  0.2099  1.0782
 5699TIP3   OH217060   4.960   0.487   3.044  0.3301 -0.3973  0.1315
 5699TIP3    H117061   5.052   0.478   3.068  0.0738  1.0203  1.8700
 5699TIP3    H217062   4.918   0.409   3.080  0.7504 -0.7023 -0.0374
 5700TIP3   OH217063   0.461   3.104   2.770  0.0105  0.1676 -0.3634
 5700TIP3    H117064   0.523   3.045   2.728  0.2700  1.0848 -1.3082
 5700TIP3    H217065   0.458   3.181   2.713 -2.5627 -0.1358 -0.7540
 5701TIP3   OH217066   1.981   3.266   2.627  0.4013  0.0403 -0.1404
 5701TIP3    H117067   1.943   3.219   2.553  0.9289  1.4520 -1.3479
 5701TIP3    H217068   1.916   3.334   2.648  0.4203 -0.1217  0.4613
 5702TIP3   OH217069   0.007   6.756   4.626  0.7178 -0.1920  0.3952
 5702TIP3    H117070   0.068   6.682   4.617 -0.9040 -1.6357  0.7944
 5702TIP3    H217071   0.054   6.817   4.683  1.1849 -2.0255  2.1227
 5703TIP3   OH217072   3.318   2.808   5.632 -0.2426 -0.0082 -0.3558
 5703TIP3    H117073   3.392   2.860   5.664 -0.4176  0.0421 -0.0333
 5703TIP3    H217074   3.297   2.750   5.704 -0.5783  0.0372 -0.4181
 5704TIP3   OH217075   1.935   6.755   0.277 -0.2562 -0.0577  0.3736
 5704TIP3    H117076   1.932   6.787   0.187  2.9417 -1.5735 -0.4429
 5704TIP3    H217077   2.000   6.811   0.320  2.2867 -2.5238  0.0850
 5705TIP3   OH217078   5.116   4.132   5.440  0.1532 -0.7249  0.0727
 5705TIP3    H117079   5.065   4.070   5.492  0.7458  0.3663  2.0597
 5705TIP3    H217080   5.095   4.217   5.478  1.0823  0.0641 -1.1108
 5706TIP3   OH217081   2.113   1.811   0.662  0.4413 -0.3970 -0.1628
 5706TIP3    H117082   2.135   1.750   0.733  0.6447 -2.2251 -1.7038
 5706TIP3    H217083   2.169   1.784   0.590 -1.1445  0.0856 -1.6426
 5707TIP3   OH217084   2.186   2.103   5.044  0.0344 -0.2842  0.1368
 5707TIP3    H117085   2.238   2.184   5.046  1.1603 -0.8070 -3.0160
 5707TIP3    H217086   2.095   2.133   5.039  0.3609  0.7593  0.1910
 5708TIP3   OH217087   3.217   3.851   0.787 -0.7487 -0.1034  0.2850
 5708TIP3    H117088   3.180   3.939   0.784  0.9887  0.6395 -0.1044
 5708TIP3    H217089   3.215   3.822   0.695  0.6013  0.3720  0.0931
 5709TIP3   OH217090   5.750   5.441   5.644  0.1401  0.0984 -0.7380
 5709TIP3    H117091   5.790   5.446   5.731  3.1083 -0.3395 -1.9926
 5709TIP3    H217092   5.683   5.373   5.654  0.6239 -0.1770  1.1206
 5710TIP3   OH217093   1.117   6.352   5.250 -0.4525  0.7284 -0.3484
 5710TIP3    H117094   1.181   6.422   5.240 -0.5706  0.5884 -2.5874
 5710TIP3    H217095   1.169   6.271   5.244 -0.7159  0.6226 -1.3554
 5711TIP3   OH217096   4.187   5.505   2.667 -0.4806 -0.6786  0.3389
 5711TIP3    H117097   4.140   5.485   2.747 -0.7148  0.5114  0.5129
 5711TIP3    H217098   4.271   5.460   2.676 -0.0715  0.2976  1.7389
 5712TIP3   OH217099   3.343   0.166   0.243 -0.0070 -0.1956  0.1496
 5712TIP3    H117100   3.255   0.131   0.258 -0.5486  1.2688  0.5366
 5712TIP3    H217101   3.331   0.238   0.182  0.7543  0.7320  1.0477
 5713TIP3   OH217102   3.391   3.770   0.049 -0.3593 -0.1716 -0.5818
 5713TIP3    H117103   3.300   3.785   0.026 -0.4059  1.2206  0.3932
 5713TIP3    H217104   3.432   3.856   0.040  0.4873 -0.4297  0.5737
 5714TIP3   OH217105   0.855   1.623   4.405  0.0923  0.3546  0.4109
 5714TIP3    H117106   0.940   1.648   4.369 -0.0204 -0.5847 -0.5552
 5714TIP3    H217107   0.820   1.704   4.443  1.1884  0.8631  0.3730
 5715TIP3   OH217108   6.309   5.521   3.292 -0.4054  0.5177 -0.2190
 5715TIP3    H117109   6.288   5.611   3.269 -3.4971 -0.3143 -1.0682
 5715TIP3    H217110   6.333   5.480   3.209 -0.3064  0.2386 -0.0556
 5716TIP3   OH217111   3.534   1.977   0.727  0.4032 -0.1021 -0.2130
 5716TIP3    H117112   3.609   1.917   0.722  1.5811  0.8677  3.0152
 5716TIP3    H217113   3.572   2.060   0.758 -2.0852  0.0945  2.7165
 5717TIP3   OH217114   1.828   0.307   2.894  0.0807  0.1215  0.2386
 5717TIP3    H117115   1.756   0.245   2.881 -0.4283  0.7175  0.1936
 5717TIP3    H217116   1.884   0.294   2.817  0.1110 -0.4547  0.3537
 5718TIP3   OH217117   3.320   6.088   4.393  0.2406  0.4450 -0.3748
 5718TIP3    H117118   3.362   6.075   4.307  0.2572 -1.7440 -0.0920
 5718TIP3    H217119   3.261   6.162   4.380  0.8851  0.7149 -2.0354
 5719TIP3   OH217120   6.588   2.611   3.347  0.3887  0.2641 -0.2017
 5719TIP3    H117121   6.565   2.703   3.363 -0.9926 -0.0603 -0.2535
 5719TIP3    H217122   6.532   2.562   3.406  1.5151 -0.5474  0.2344
 5720TIP3   OH217123   0.383   1.700   2.262 -0.0494 -0.4243  0.0683
 5720TIP3    H117124   0.414   1.684   2.351 -0.1208 -0.2946  0.1161
 5720TIP3    H217125   0.293   1.731   2.273  0.3742  0.8475  0.0214
 5721TIP3   OH217126   3.507   2.470   1.493 -0.0625 -0.2985 -0.3071
 5721TIP3    H117127   3.492   2.549   1.544  1.4881  0.8762 -1.5981
 5721TIP3    H217128   3.473   2.399   1.549 -0.6353  1.1513  1.2722
 5722TIP3   OH217129   2.091   5.495   2.123 -0.0760  0.2704  0.2122
 5722TIP3    H117130   2.177   5.505   2.163 -0.9168 -0.0316  2.2221
 5722TIP3    H217131   2.040   5.445   2.188 -1.4165 -0.5984 -1.4353
 5723TIP3   OH217132   2.422   4.992   0.751 -0.1909  0.7864  0.1154
 5723TIP3    H117133   2.343   5.034   0.785 -0.0994  1.3732 -0.3769
 5723TIP3    H217134   2.467   5.062   0.703  0.2950  0.2842 -0.1644
 5724TIP3   OH217135   3.699   0.969   1.310  0.2466  0.0125  0.6419
 5724TIP3    H117136   3.774   0.941   1.259 -0.2453  1.8065 -1.2039
 5724TIP3    H217137   3.733   1.038   1.367 -0.2446  2.5468 -1.8512
 5725TIP3   OH217138   0.806   1.072   0.276  0.2523  0.4105 -0.0422
 5725TIP3    H117139   0.849   0.989   0.297 -1.7349 -0.7011 -0.1486
 5725TIP3    H217140   0.771   1.102   0.360  0.4190  0.8387 -0.1220
 5726TIP3   OH217141   5.426   0.808   0.351  0.3377 -0.1855 -0.3540
 5726TIP3    H117142   5.515   0.840   0.364  0.0261  1.0176 -1.0225
 5726TIP3    H217143   5.409   0.752   0.427  2.2479 -1.8208 -1.0316
 5727TIP3   OH217144   5.770   6.032   2.057  0.9719 -0.2098 -0.2176
 5727TIP3    H117145   5.841   6.082   2.096 -0.8720  1.7456  0.8832
 5727TIP3    H217146   5.708   6.019   2.129 -0.9362  0.4476 -1.6509
 5728TIP3   OH217147   5.415   4.653   3.097 -0.5798  0.5748 -0.3923
 5728TIP3    H117148   5.393   4.742   3.127  1.1876  1.0340 -0.3385
 5728TIP3    H217149   5.500   4.663   3.054 -0.6264 -1.0049 -0.9008
 5729TIP3   OH217150   4.826   5.181   0.953  0.2882  0.5046  0.4526
 5729TIP3    H117151   4.779   5.143   0.879  0.6819  2.8648 -1.1411
 5729TIP3    H217152   4.762   5.238   0.996  0.2114 -0.4491  1.6407
 5730TIP3   OH217153   4.428   3.281   0.610 -0.4241 -0.0145  0.1979
 5730TIP3    H117154   4.357   3.316   0.556 -0.9087 -1.7386 -0.3655
 5730TIP3    H217155   4.508   3.302   0.562 -0.6946  0.3324 -0.1032
 5731TIP3   OH217156   2.576   1.093   5.404  0.0158 -0.2660 -0.5087
 5731TIP3    H117157   2.528   1.164   5.360  1.1322 -0.5631 -2.3078
 5731TIP3    H217158   2.662   1.130   5.421  0.0893 -0.6772  0.0383
 5732TIP3   OH217159   2.018   6.062   3.163  0.3629 -0.1027  0.4246
 5732TIP3    H117160   2.106   6.038   3.192  0.3232 -0.3302  0.3632
 5732TIP3    H217161   2.008   6.154   3.188  0.6570 -0.0472  0.3380
 5733TIP3   OH217162   4.101   1.497   1.092 -0.4528 -0.2923 -0.6946
 5733TIP3    H117163   4.166   1.496   1.022  0.3836 -0.4563  0.0570
 5733TIP3    H217164   4.103   1.587   1.125  0.1101 -0.5339 -0.0399
 5734TIP3   OH217165   2.331   5.437   2.261 -0.2581  0.2646  0.2290
 5734TIP3    H117166   2.402   5.415   2.321 -2.3400  0.8627  3.1033
 5734TIP3    H217167   2.328   5.362   2.201  1.6455 -0.5959  1.0950
 5735TIP3   OH217168   5.058   0.519   0.723 -0.4663 -0.1284 -0.0716
 5735TIP3    H117169   5.084   0.512   0.815  0.3030 -0.0835 -0.2762
 5735TIP3    H217170   5.008   0.600   0.718 -0.3970 -0.0619  0.2834
 5736TIP3   OH217171   4.618   0.334   0.150 -0.5164  0.4974  0.0708
 5736TIP3    H117172   4.599   0.272   0.220  0.2757 -0.8779 -0.8789
 5736TIP3    H217173   4.686   0.391   0.186 -0.4793  0.1283  0.5970
 5737TIP3   OH217174   0.796   5.843   2.064 -0.1134 -0.0522  0.3257
 5737TIP3    H117175   0.887   5.855   2.035  1.1044 -1.1983  3.2147
 5737TIP3    H217176   0.745   5.905   2.012  2.4949  1.5327 -0.5181
 5738TIP3   OH217177   1.637   2.468   2.854  0.3520 -0.0257  0.4565
 5738TIP3    H117178   1.721   2.428   2.877  1.6915  2.1642 -0.2939
 5738TIP3    H217179   1.641   2.479   2.759  0.0590  1.7768  0.6135
 5739TIP3   OH217180   0.262   6.225   2.885 -0.1380  0.2281  0.1343
 5739TIP3    H117181   0.222   6.158   2.940  1.6027 -1.1408 -0.2008
 5739TIP3    H217182   0.343   6.248   2.930  0.3997  0.4499 -0.9102
 5740TIP3   OH217183   3.713   0.315   3.514  0.1297 -0.5527  0.8153
 5740TIP3    H117184   3.735   0.293   3.604 -0.2615 -0.8227  0.8483
 5740TIP3    H217185   3.762   0.395   3.496 -1.4076  0.6878  1.9542
 5741TIP3   OH217186   6.286   2.613   5.532 -0.0518  0.0200 -0.2066
 5741TIP3    H117187   6.323   2.527   5.556  0.4458  0.1752 -0.4129
 5741TIP3    H217188   6.258   2.650   5.615  1.4873  0.4703  0.1472
 5742TIP3   OH217189   2.880   1.275   3.025 -0.3940 -0.2405  0.5474
 5742TIP3    H117190   2.903   1.231   2.943  0.6617  0.7554  0.2774
 5742TIP3    H217191   2.933   1.355   3.025 -1.4417  0.4946  1.5290
 5743TIP3   OH217192   4.947   4.894   0.493 -0.0841 -0.2417 -0.0907
 5743TIP3    H117193   4.986   4.959   0.435 -0.4872 -1.1602 -1.4315
 5743TIP3    H217194   4.960   4.930   0.581 -1.1131  2.1032 -0.8149
 5744TIP3   OH217195   6.709   1.351   5.156  0.2223 -0.3168 -0.1628
 5744TIP3    H117196   6.718   1.427   5.098  0.8253  0.4895  0.9597
 5744TIP3    H217197   6.645   1.378   5.222 -0.1514 -1.0784 -0.2011
 5745TIP3   OH217198   2.635   3.657   0.829 -0.0573 -0.1162  0.5744
 5745TIP3    H117199   2.550   3.684   0.864 -0.0023 -0.9237  1.3707
 5745TIP3    H217200   2.696   3.669   0.902  0.1467 -1.3845  0.6423
 5746TIP3   OH217201   0.689   2.177   0.987 -0.2674  0.3205 -0.3328
 5746TIP3    H117202   0.776   2.174   1.027  0.3994 -0.0259 -1.7322
 5746TIP3    H217203   0.667   2.270   0.985  0.7143  0.5490 -1.2596
 5747TIP3   OH217204   1.983   0.980   0.956  0.3200  0.1307  0.6727
 5747TIP3    H117205   2.003   1.073   0.968  0.2529  0.0593  1.3774
 5747TIP3    H217206   1.911   0.963   1.016  0.4061 -0.4057  0.6292
 5748TIP3   OH217207   1.150   2.272   0.426  0.1152 -0.6534 -0.2704
 5748TIP3    H117208   1.061   2.307   0.421  0.0154 -0.9849 -0.9079
 5748TIP3    H217209   1.197   2.335   0.481 -0.7451 -0.9849  0.8753
 5749TIP3   OH217210   6.602   6.192   1.554  0.0851  0.7636  0.0205
 5749TIP3    H117211   6.600   6.216   1.646 -2.3663  1.2511 -0.0986
 5749TIP3    H217212   6.628   6.272   1.509 -0.2546  0.9713  0.1888
 5750TIP3   OH217213   6.691   6.407   3.363  0.1679 -0.2771 -0.0169
 5750TIP3    H117214   6.756   6.472   3.336 -1.6544  1.8320  0.4034
 5750TIP3    H217215   6.683   6.418   3.458 -0.0512 -1.2546  0.0933
 5751TIP3   OH217216   4.621   6.546   2.080  0.1658 -0.1886  0.0386
 5751TIP3    H117217   4.636   6.452   2.067 -0.0240 -0.0624 -1.3248
 5751TIP3    H217218   4.538   6.563   2.035 -0.7967  0.3066  1.9026
 5752TIP3   OH217219   4.878   2.431   1.215 -0.3509 -0.0225 -0.6866
 5752TIP3    H117220   4.836   2.515   1.229 -1.7089 -0.8883  0.7478
 5752TIP3    H217221   4.972   2.450   1.214 -0.6621  1.6066 -1.3922
 5753TIP3   OH217222   1.956   3.160   2.078 -0.0646  0.1373  0.4257
 5753TIP3    H117223   1.945   3.184   2.170  1.1140 -0.9185  0.8717
 5753TIP3    H217224   1.907   3.079   2.068 -0.8990  0.6880 -0.1185
 5754TIP3   OH217225   6.982   0.122   4.460  0.0865  0.2305  0.3038
 5754TIP3    H117226   6.892   0.150   4.477 -0.0232  0.2621 -0.3109
 5754TIP3    H217227   7.013   0.089   4.544 -0.3113  0.7401  0.6605
 5755TIP3   OH217228   6.326   2.438   3.464  0.2503 -1.1393  0.1695
 5755TIP3    H117229   6.354   2.381   3.535  2.2037 -0.1008  0.3048
 5755TIP3    H217230   6.356   2.395   3.385 -0.1199 -1.3097  0.1222
 5756TIP3   OH217231   3.128   2.376   2.033 -0.5364 -0.0961  0.1861
 5756TIP3    H117232   3.163   2.451   1.984 -0.4368  0.5384  1.1910
 5756TIP3    H217233   3.147   2.396   2.124  1.2201 -2.2641  0.3698
 5757TIP3   OH217234   2.916   2.539   4.322 -0.1760 -0.0201  0.2093
 5757TIP3    H117235   2.911   2.553   4.416 -0.0997  2.4645 -0.1009
 5757TIP3    H217236   2.842   2.588   4.286  0.2955 -0.2121 -1.0860
 5758TIP3   OH217237   1.957   4.389   3.626  0.0354  0.2499  0.4664
 5758TIP3    H117238   1.963   4.368   3.719  0.7924 -0.6205  0.2360
 5758TIP3    H217239   1.990   4.311   3.582 -2.9476 -0.5002 -0.6537
 5759TIP3   OH217240   2.497   4.226   5.663  0.1162 -0.4860 -0.0420
 5759TIP3    H117241   2.541   4.175   5.595  1.6049 -1.7605  1.7685
 5759TIP3    H217242   2.410   4.187   5.670  0.7744 -1.9566  0.3728
 5760TIP3   OH217243   4.093   1.267   5.593  0.3202 -0.4239 -0.0121
 5760TIP3    H117244   4.031   1.317   5.540  0.7719  1.4216  1.1450
 5760TIP3    H217245   4.177   1.311   5.580  0.1625  1.1914  3.4551
 5761TIP3   OH217246   6.646   5.130   2.187 -0.2805  0.3680  0.3905
 5761TIP3    H117247   6.588   5.153   2.260 -1.4174 -0.4457 -0.2305
 5761TIP3    H217248   6.725   5.181   2.203 -0.5091  0.2281  2.1861
 5762TIP3   OH217249   0.760   6.335   1.386  0.0496 -0.0906 -0.1644
 5762TIP3    H117250   0.734   6.412   1.437 -0.3239 -0.9258  0.9398
 5762TIP3    H217251   0.813   6.371   1.314  2.4576  0.9660  1.9763
 5763TIP3   OH217252   3.495   2.313   2.716 -0.2703 -0.2741 -0.0125
 5763TIP3    H117253   3.522   2.395   2.675 -1.0153  1.2259  2.3039
 5763TIP3    H217254   3.575   2.260   2.717  0.4493  0.7339 -0.7848
 5764TIP3   OH217255   1.437   1.808   5.813  0.0543  0.0816  0.1053
 5764TIP3    H117256   1.507   1.746   5.835 -0.3388 -0.5325 -0.3410
 5764TIP3    H217257   1.357   1.755   5.814 -0.4088  0.7704  0.5938
 5765TIP3   OH217258   2.741   4.163   3.695  0.1428  0.6090 -0.2326
 5765TIP3    H117259   2.741   4.130   3.785 -1.5870  4.1456  1.2512
 5765TIP3    H217260   2.662   4.125   3.656  1.3297 -1.6105 -0.6926
 5766TIP3   OH217261   2.988   6.026   5.021 -0.0222  0.4015 -0.5658
 5766TIP3    H117262   3.024   5.995   5.104 -1.1445  2.6981  0.9020
 5766TIP3    H217263   3.063   6.030   4.962  1.3256  1.0321  1.1041
 5767TIP3   OH217264   1.581   0.779   4.469 -0.1617 -0.1647  0.1085
 5767TIP3    H117265   1.515   0.739   4.413  0.6188 -0.9380 -0.2748
 5767TIP3    H217266   1.558   0.872   4.470 -1.9354 -0.5631  0.9133
 5768TIP3   OH217267   2.123   0.839   2.138 -0.1579 -0.3790 -0.1911
 5768TIP3    H117268   2.180   0.762   2.135  0.2573 -0.0958  0.1949
 5768TIP3    H217269   2.145   0.888   2.059  0.0478 -0.3320 -0.1060
 5769TIP3   OH217270   5.433   1.913   4.356  0.2561 -0.4828 -0.1012
 5769TIP3    H117271   5.397   1.998   4.383  0.1113  0.2439 -2.3969
 5769TIP3    H217272   5.371   1.849   4.390 -1.5282  0.5641 -1.2639
 5770TIP3   OH217273   4.700   1.547   5.379 -0.3806  0.2194  0.1140
 5770TIP3    H117274   4.782   1.597   5.388 -1.1299  1.9598 -2.0452
 5770TIP3    H217275   4.640   1.606   5.333 -2.9774 -0.9255  1.8155
 5771TIP3   OH217276   4.032   4.846   2.809 -0.0747  0.4772 -0.6527
 5771TIP3    H117277   4.013   4.939   2.819  2.0516  1.0822 -1.7375
 5771TIP3    H217278   4.038   4.832   2.714 -1.0974 -0.9586 -0.5449
 5772TIP3   OH217279   6.634   3.559   3.546 -0.2134  0.4412 -0.2014
 5772TIP3    H117280   6.626   3.466   3.523  1.0329  0.2222  0.1742
 5772TIP3    H217281   6.683   3.597   3.473  2.0504  0.1367  1.0815
 5773TIP3   OH217282   7.108   0.141   1.465  0.0963 -0.8847 -0.1846
 5773TIP3    H117283   7.148   0.064   1.426 -1.4338 -1.6329 -0.3158
 5773TIP3    H217284   7.164   0.214   1.436  0.3719 -1.6852 -1.7842
 5774TIP3   OH217285   2.271   2.209   4.429 -0.2647 -0.0355  0.3410
 5774TIP3    H117286   2.273   2.237   4.338  3.3787 -1.0433 -0.0451
 5774TIP3    H217287   2.310   2.281   4.478  3.0700 -1.5184  0.1870
 5775TIP3   OH217288   5.619  -0.018   1.492 -0.1597 -0.4383  0.1764
 5775TIP3    H117289   5.567  -0.037   1.570  1.4763  2.2998  2.1059
 5775TIP3    H217290   5.598   0.073   1.471 -1.0900 -1.2845 -3.1396
 5776TIP3   OH217291   2.444   5.400   1.491 -0.2614 -0.0190  0.5058
 5776TIP3    H117292   2.376   5.458   1.526 -0.4491 -0.9470  1.7591
 5776TIP3    H217293   2.459   5.336   1.560  2.7964  0.8451  0.8177
 5777TIP3   OH217294   6.500   2.643   1.159 -0.0134 -0.0168 -0.1225
 5777TIP3    H117295   6.546   2.583   1.101 -0.3763 -0.1677 -0.2570
 5777TIP3    H217296   6.500   2.599   1.244  2.3653  1.1037  0.5645
 5778TIP3   OH217297   3.791   2.780   4.787  0.4617 -0.3750 -0.3865
 5778TIP3    H117298   3.747   2.787   4.702  0.4764  2.5125 -0.2255
 5778TIP3    H217299   3.774   2.863   4.831 -0.2073 -2.0018  2.8319
 5779TIP3   OH217300   6.586   3.760   1.340 -0.4351 -0.0002  0.0838
 5779TIP3    H117301   6.652   3.796   1.400  0.8155 -1.9147 -0.0616
 5779TIP3    H217302   6.503   3.774   1.385 -0.0736  2.9621  0.0357
 5780TIP3   OH217303   3.407   4.893   2.284 -0.1780 -0.2228 -0.4732
 5780TIP3    H117304   3.489   4.938   2.306 -0.8620  1.6670 -1.5978
 5780TIP3    H217305   3.368   4.946   2.215 -2.6417 -0.7711  0.4015
 5781TIP3   OH217306   0.173   5.625   5.116 -0.6805 -0.1095  1.0440
 5781TIP3    H117307   0.155   5.587   5.030 -1.0389 -0.5735  1.3142
 5781TIP3    H217308   0.122   5.570   5.176  1.1524 -1.0715  1.7799
 5782TIP3   OH217309   6.322   0.527   0.243 -0.3095 -0.0563  0.1109
 5782TIP3    H117310   6.373   0.520   0.163 -0.2498  0.2816  0.1201
 5782TIP3    H217311   6.383   0.506   0.314 -0.0690  0.7849  0.1569
 5783TIP3   OH217312   5.143   6.015   5.180 -0.3097 -0.3161 -0.0232
 5783TIP3    H117313   5.151   6.106   5.151  1.5997  0.0555  1.4418
 5783TIP3    H217314   5.126   6.021   5.274 -0.9224 -1.4701 -0.0442
 5784TIP3   OH217315   1.008   0.926   4.802 -0.1557 -0.1275  0.0465
 5784TIP3    H117316   1.059   0.978   4.864 -0.0182  0.7440 -0.7757
 5784TIP3    H217317   1.003   0.980   4.723  0.1036 -1.4125 -0.8916
 5785TIP3   OH217318   7.030   3.791   1.222  0.4561  0.1530 -0.0070
 5785TIP3    H117319   7.056   3.865   1.277 -2.9274  0.6422  1.1801
 5785TIP3    H217320   7.057   3.713   1.272 -0.2630  0.6062  1.1133
 5786TIP3   OH217321   0.886   3.006   4.032 -0.7090 -0.2502 -0.0547
 5786TIP3    H117322   0.965   2.966   4.067 -0.1459  1.5712  0.8572
 5786TIP3    H217323   0.839   3.040   4.108 -1.5815  0.1010 -0.7179
 5787TIP3   OH217324   3.577   6.364   3.160 -0.4545  0.1650  0.0271
 5787TIP3    H117325   3.531   6.412   3.091 -2.3811 -1.2054  0.2971
 5787TIP3    H217326   3.626   6.296   3.114 -0.6958  0.0653 -0.0825
 5788TIP3   OH217327   4.426   5.327   0.387 -0.4663 -0.3151  0.0451
 5788TIP3    H117328   4.336   5.355   0.372 -0.5728 -0.7565 -0.1416
 5788TIP3    H217329   4.420   5.257   0.451 -0.1288  0.6009  1.1059
 5789TIP3   OH217330   6.203   4.547   0.323 -0.0775 -0.3106  0.4103
 5789TIP3    H117331   6.188   4.565   0.416  2.1324  1.8661  0.4770
 5789TIP3    H217332   6.125   4.579   0.279 -1.5493 -2.1988  1.5181
 5790TIP3   OH217333   2.075   4.251   1.485  0.3199  0.2114 -0.2570
 5790TIP3    H117334   2.137   4.299   1.540 -0.4049  1.4938 -0.5319
 5790TIP3    H217335   1.991   4.260   1.530  0.3764 -2.0073  0.4201
 5791TIP3   OH217336   3.853   5.265   3.663 -0.5691  0.1994  0.1276
 5791TIP3    H117337   3.927   5.302   3.616 -0.9157 -0.9593 -1.4051
 5791TIP3    H217338   3.814   5.339   3.709  0.5751  1.1148 -0.3243
 5792TIP3   OH217339   2.145   2.220   2.189 -0.5061  0.1728  0.2674
 5792TIP3    H117340   2.174   2.302   2.150 -0.1875  0.8498  1.8505
 5792TIP3    H217341   2.185   2.152   2.135  0.8546  1.0693  0.1044
 5793TIP3   OH217342   6.213   2.795   4.450 -0.2102  0.2287 -0.1797
 5793TIP3    H117343   6.168   2.711   4.445 -1.0596  0.7311 -2.0390
 5793TIP3    H217344   6.178   2.845   4.376  1.3239  1.7037  0.0257
 5794TIP3   OH217345   0.422   6.776   1.245  0.1752 -0.3055  0.0986
 5794TIP3    H117346   0.483   6.703   1.252  0.9700  0.3274 -0.1149
 5794TIP3    H217347   0.426   6.820   1.330  1.6351  0.9773 -0.5908
 5795TIP3   OH217348   1.333   5.031   0.711 -0.6977 -0.2376  0.3338
 5795TIP3    H117349   1.424   5.060   0.707 -0.4114 -1.2029 -0.7057
 5795TIP3    H217350   1.297   5.074   0.788  0.3966  0.8438  0.2616
 5796TIP3   OH217351   2.604   4.261   1.192 -0.0007 -0.2498  0.1383
 5796TIP3    H117352   2.579   4.192   1.254 -0.5477 -0.7739 -0.6382
 5796TIP3    H217353   2.550   4.244   1.115  0.8250  0.2504 -0.5686
 5797TIP3   OH217354   4.154   4.632   0.403  0.2400 -0.2054  0.0100
 5797TIP3    H117355   4.225   4.583   0.361 -0.7459 -2.2038  0.5263
 5797TIP3    H217356   4.112   4.679   0.331  1.4641  0.2328 -0.4496
 5798TIP3   OH217357   4.190   2.497   0.735 -0.0009 -0.2368 -0.5998
 5798TIP3    H117358   4.099   2.525   0.746  0.2631  0.7711 -0.9119
 5798TIP3    H217359   4.184   2.419   0.680 -0.6606 -0.0467 -0.8117
 5799TIP3   OH217360   0.912   2.894   5.102 -0.1715  0.2047 -0.5974
 5799TIP3    H117361   0.883   2.944   5.025  1.4082  0.7202 -0.8985
 5799TIP3    H217362   0.980   2.835   5.068 -0.8207 -0.9582  0.0710
 5800TIP3   OH217363   1.470   1.193   1.026 -0.6045  0.5344  0.4998
 5800TIP3    H117364   1.409   1.220   0.957 -0.1343 -1.0283 -0.5721
 5800TIP3    H217365   1.429   1.117   1.067  0.6111 -0.6094 -0.3033
 5801TIP3   OH217366   3.850   5.049   5.226 -0.2639  0.5722  0.0483
 5801TIP3    H117367   3.875   5.141   5.214  0.8175  0.2095 -0.6236
 5801TIP3    H217368   3.917   5.000   5.179 -0.1447 -0.6233  1.4090
 5802TIP3   OH217369   0.077   5.696   4.846  0.1352 -0.1776  0.1637
 5802TIP3    H117370   0.007   5.705   4.782 -0.8789  0.2939  1.3078
 5802TIP3    H217371   0.157   5.718   4.797 -0.4689 -0.8096 -1.1767
 5803TIP3   OH217372   5.959   4.814   3.608 -0.2093 -0.2891 -0.1725
 5803TIP3    H117373   5.873   4.788   3.574  0.4390  1.7677 -3.8697
 5803TIP3    H217374   6.013   4.736   3.599 -0.9467 -0.7581 -0.5935
 5804TIP3   OH217375   2.748   5.518   0.673 -0.5629  0.5879 -0.1011
 5804TIP3    H117376   2.714   5.429   0.668  1.8199 -0.3492 -0.9238
 5804TIP3    H217377   2.774   5.539   0.583  1.6776  0.9047  0.5590
 5805TIP3   OH217378   7.061   0.401   1.639 -0.0625 -0.8827  0.1394
 5805TIP3    H117379   6.967   0.417   1.651  0.0413 -0.1413  0.0077
 5805TIP3    H217380   7.067   0.307   1.625 -1.0741 -0.6751 -2.2790
 5806TIP3   OH217381   4.000   6.079   3.861  0.0171 -0.3657 -0.0702
 5806TIP3    H117382   3.926   6.043   3.909 -0.2190  0.6130  0.3023
 5806TIP3    H217383   4.075   6.027   3.890 -0.0126  0.6021  1.8347
 5807TIP3   OH217384   0.916   1.306   0.680 -0.6022  0.2212  0.1580
 5807TIP3    H117385   0.981   1.257   0.629  0.2511  0.4438  0.9983
 5807TIP3    H217386   0.967   1.376   0.722 -1.1638 -0.3553  1.8540
 5808TIP3   OH217387   5.378   1.177   4.704  0.2163 -0.1896  0.0995
 5808TIP3    H117388   5.378   1.254   4.648  0.6640  0.2186  0.6560
 5808TIP3    H217389   5.469   1.149   4.707  0.0411 -0.7941 -0.1740
 5809TIP3   OH217390   0.368   3.904   0.724 -0.4321  0.3914  0.6857
 5809TIP3    H117391   0.371   3.831   0.661  0.0403  1.3698 -0.4698
 5809TIP3    H217392   0.357   3.862   0.809 -4.1042 -0.9364 -0.2236
 5810TIP3   OH217393   2.422   6.463   2.074 -0.3877 -0.0218 -0.3519
 5810TIP3    H117394   2.476   6.407   2.019  0.0051  0.1844 -0.1842
 5810TIP3    H217395   2.404   6.411   2.152  0.1614  0.1555 -0.0984
 5811TIP3   OH217396   5.880   2.571   0.778 -0.3097  1.0906  0.4566
 5811TIP3    H117397   5.920   2.566   0.865  0.5160  0.9554  0.0870
 5811TIP3    H217398   5.800   2.519   0.785  0.9438 -0.9567  0.5195
 5812TIP3   OH217399   5.488   1.078   1.895  0.0680 -0.2303 -0.5263
 5812TIP3    H117400   5.549   1.069   1.822 -0.3974  0.6649 -1.0461
 5812TIP3    H217401   5.431   1.150   1.869 -0.7388 -0.5608  0.2791
 5813TIP3   OH217402   6.035   2.967   2.446  0.4092  0.0643  0.2179
 5813TIP3    H117403   6.110   2.908   2.446  0.2192 -0.1807  0.3939
 5813TIP3    H217404   5.975   2.929   2.382  1.3112  1.4021 -1.4788
 5814TIP3   OH217405   1.357   6.132   0.643 -0.2034  0.3147 -0.3536
 5814TIP3    H117406   1.339   6.076   0.719  0.3898 -0.3821 -0.7265
 5814TIP3    H217407   1.271   6.143   0.601 -1.0667  2.6811  1.6989
 5815TIP3   OH217408   1.089   3.949   5.274  0.0455  0.7803 -0.1994
 5815TIP3    H117409   1.005   3.918   5.241  0.4539  0.5595 -1.0556
 5815TIP3    H217410   1.142   3.963   5.196  1.5111 -1.1156  0.3781
 5816TIP3   OH217411   0.972   0.342   5.475  0.2434  0.2910 -0.2940
 5816TIP3    H117412   0.977   0.299   5.560  2.1736  0.3393 -0.3252
 5816TIP3    H217413   0.887   0.385   5.475  0.6110  1.2103  2.0866
 5817TIP3   OH217414   6.268   1.666   0.966 -0.2246 -0.1322  0.2451
 5817TIP3    H117415   6.282   1.647   1.059 -1.4160  0.3462  0.5341
 5817TIP3    H217416   6.274   1.761   0.960 -0.3019 -0.1525 -0.1485
 5818TIP3   OH217417   7.010   6.210   2.281  0.2311 -0.1882 -0.0942
 5818TIP3    H117418   7.018   6.137   2.221  2.2635 -1.9480  2.1162
 5818TIP3    H217419   7.081   6.270   2.257 -0.4416  0.2986 -0.9017
 5819TIP3   OH217420   0.780   0.241   2.819  0.4265 -0.5325  0.0008
 5819TIP3    H117421   0.776   0.151   2.786  0.5914 -0.6683  0.3465
 5819TIP3    H217422   0.853   0.241   2.881 -0.9835 -0.7679  1.7599
 5820TIP3   OH217423   5.588   5.686   5.119 -0.3416  0.2363 -0.0376
 5820TIP3    H117424   5.572   5.781   5.115  1.1269  0.4723 -1.4199
 5820TIP3    H217425   5.549   5.653   5.038  0.5217 -0.0870 -0.3311
 5821TIP3   OH217426   4.175   4.666   0.789 -0.7087  0.1603 -0.3262
 5821TIP3    H117427   4.087   4.703   0.778 -1.2014 -0.3199  1.4947
 5821TIP3    H217428   4.233   4.742   0.794 -1.2754  0.5701  0.2272
 5822TIP3   OH217429   3.767   5.133   0.627  0.0870  0.0678 -0.4726
 5822TIP3    H117430   3.798   5.078   0.555  1.0687  1.7219 -1.3603
 5822TIP3    H217431   3.751   5.218   0.587 -3.9254 -0.1437  0.3272
 5823TIP3   OH217432   1.034   4.341   0.063 -0.1223 -0.3255 -0.5618
 5823TIP3    H117433   1.112   4.367   0.113 -1.3346 -0.1889  1.3828
 5823TIP3    H217434   1.032   4.245   0.071  0.1329 -0.3798 -1.0962
 5824TIP3   OH217435   7.078   1.846   4.912 -0.1585 -0.4334 -0.3073
 5824TIP3    H117436   7.029   1.771   4.946  3.4361 -2.9028 -0.0049
 5824TIP3    H217437   7.089   1.903   4.988 -2.2082  0.1001 -0.3408
 5825TIP3   OH217438   3.802   1.572   4.009 -0.0303  0.4911  0.4575
 5825TIP3    H117439   3.774   1.563   3.918 -0.1932  0.9167  0.4619
 5825TIP3    H217440   3.849   1.656   4.011  0.3226  0.2910  0.6793
 5826TIP3   OH217441   1.516   0.720   2.544  0.2564  0.1806 -0.2109
 5826TIP3    H117442   1.443   0.759   2.591 -0.3513 -0.2619 -0.7665
 5826TIP3    H217443   1.522   0.631   2.579  1.5143  0.6830  0.9167
 5827TIP3   OH217444   0.411   1.215   4.165 -0.6155  0.2600  0.2046
 5827TIP3    H117445   0.487   1.264   4.198 -0.4033  0.2196 -0.2273
 5827TIP3    H217446   0.346   1.223   4.235  0.2718 -0.8919  1.2078
 5828TIP3   OH217447   4.878   5.117   4.445 -0.1712 -0.1412 -0.5898
 5828TIP3    H117448   4.857   5.026   4.424 -2.0146 -0.8231  3.2134
 5828TIP3    H217449   4.974   5.121   4.441 -0.1069 -1.9039 -1.9470
 5829TIP3   OH217450   3.022   4.200   1.130  0.2297  0.3431 -0.5241
 5829TIP3    H117451   2.958   4.202   1.059 -1.8170  2.6824  1.1931
 5829TIP3    H217452   3.052   4.291   1.137 -0.2348  0.3865  1.9968
 5830TIP3   OH217453   0.658   4.651   1.940  0.0798  0.0118 -0.1701
 5830TIP3    H117454   0.572   4.689   1.954 -1.1043 -2.9035  1.2234
 5830TIP3    H217455   0.647   4.593   1.866  1.2801  0.6650 -0.8995
 5831TIP3   OH217456   1.529   6.229   3.521 -0.5600  0.1615 -0.7057
 5831TIP3    H117457   1.433   6.230   3.526 -0.5751  2.6065 -0.1796
 5831TIP3    H217458   1.557   6.269   3.604  0.9243 -0.4431 -0.8897
 5832TIP3   OH217459   2.801   0.114   3.964  0.3654  0.6284 -0.0340
 5832TIP3    H117460   2.805   0.033   4.015  0.5908  1.8056  1.9175
 5832TIP3    H217461   2.848   0.094   3.883  2.4668 -0.5148  1.3972
 5833TIP3   OH217462   6.705   6.457   5.690  0.5801 -0.0294 -0.3382
 5833TIP3    H117463   6.678   6.372   5.654  0.9353 -0.3112  0.0442
 5833TIP3    H217464   6.753   6.434   5.770  0.2748  0.5550  0.0171
 5834TIP3   OH217465   2.461   3.174   1.468 -0.5316 -0.0717 -0.3320
 5834TIP3    H117466   2.529   3.211   1.524 -0.0745 -0.4698 -0.6144
 5834TIP3    H217467   2.407   3.122   1.528  0.7458 -1.6203 -0.4220
 5835TIP3   OH217468   3.263   5.120   1.693  0.3214  0.4474  0.0973
 5835TIP3    H117469   3.358   5.123   1.678  0.3405 -1.3762 -0.3707
 5835TIP3    H217470   3.226   5.170   1.621  0.8948  0.5961 -0.0997
 5836TIP3   OH217471   3.745   1.313   1.287 -0.7156 -0.0099  0.1147
 5836TIP3    H117472   3.660   1.274   1.268 -0.2890 -0.6351 -0.5756
 5836TIP3    H217473   3.744   1.329   1.381 -1.3947 -0.5003  0.1954
 5837TIP3   OH217474   4.921   1.266   4.267 -0.6362 -0.2807  0.0904
 5837TIP3    H117475   4.926   1.180   4.308  0.8041 -0.1190  0.3144
 5837TIP3    H217476   4.852   1.311   4.314  0.0670 -0.5751  1.4459
 5838TIP3   OH217477   6.964   0.786   3.684  0.2140 -0.0984 -0.2555
 5838TIP3    H117478   6.986   0.751   3.598 -0.5586 -0.2939 -0.3803
 5838TIP3    H217479   6.997   0.720   3.745 -0.8600 -0.8761 -0.4791
 5839TIP3   OH217480   2.909   0.340   0.346 -0.0056  0.6918 -0.0383
 5839TIP3    H117481   2.882   0.369   0.259 -1.8394 -1.6197 -0.3274
 5839TIP3    H217482   2.954   0.257   0.331  1.6124  1.3119  1.0773
 5840TIP3   OH217483   1.469   4.175   2.532  0.4994 -0.8459 -0.5754
 5840TIP3    H117484   1.418   4.158   2.453 -0.8131  1.0190 -0.1941
 5840TIP3    H217485   1.413   4.146   2.604  0.5875 -0.1827 -0.2280
 5841TIP3   OH217486   1.460   6.582   5.518 -0.2293 -0.3708  0.2911
 5841TIP3    H117487   1.430   6.665   5.480 -1.6536 -0.9542  0.0761
 5841TIP3    H217488   1.500   6.607   5.601  0.0784  0.6063 -0.1382
 5842TIP3   OH217489   7.119   6.645   1.388 -0.2017  0.2221 -0.4251
 5842TIP3    H117490   7.060   6.599   1.328  0.0889  1.0042 -1.3310
 5842TIP3    H217491   7.162   6.711   1.334 -0.1015  1.1082  0.7027
 5843TIP3   OH217492   6.562   1.567   0.899 -0.7029  0.2393 -0.3798
 5843TIP3    H117493   6.553   1.526   0.813 -2.3051 -1.9217  0.6904
 5843TIP3    H217494   6.550   1.660   0.884 -2.7557 -0.2619 -2.2952
 5844TIP3   OH217495   4.368   3.142   4.669 -0.3999 -0.3767 -0.0091
 5844TIP3    H117496   4.386   3.186   4.586  2.8651 -0.6074  0.4401
 5844TIP3    H217497   4.320   3.207   4.721 -1.5710  0.1416 -1.6320
 5845TIP3   OH217498   5.979   6.694   1.413  0.3117  0.1472  0.2595
 5845TIP3    H117499   5.892   6.652   1.410 -0.9564  2.4381  1.8115
 5845TIP3    H217500   6.026   6.644   1.480 -0.0547 -0.6568 -0.0573
 5846TIP3   OH217501   6.710   5.373   4.205 -0.1206  0.3389  0.6387
 5846TIP3    H117502   6.690   5.354   4.114 -0.5040  1.1578  0.5403
 5846TIP3    H217503   6.805   5.361   4.212 -0.1361 -0.0604  0.2218
 5847TIP3   OH217504   2.655   4.356   4.321 -0.0702 -0.0561 -0.6969
 5847TIP3    H117505   2.586   4.300   4.357  0.1197  0.3069  0.2691
 5847TIP3    H217506   2.733   4.301   4.322  0.2129  0.3233  0.6539
 5848TIP3   OH217507   0.091   5.185   3.750 -0.0514 -0.0087  0.9852
 5848TIP3    H117508   0.168   5.186   3.806  0.8399  0.4068 -0.1895
 5848TIP3    H217509   0.076   5.277   3.728 -0.8792 -0.0874  1.1772
 5849TIP3   OH217510   7.187   4.741   1.534 -0.1326 -0.3630  0.3423
 5849TIP3    H117511   7.281   4.748   1.552  0.1181  0.1921 -1.0982
 5849TIP3    H217512   7.175   4.782   1.448 -1.1599 -3.3355 -1.0782
 5850TIP3   OH217513   3.226   1.445   0.435 -0.6648 -0.0178 -0.0088
 5850TIP3    H117514   3.137   1.412   0.423 -1.6714  2.4457  0.1649
 5850TIP3    H217515   3.234   1.457   0.530  0.0290 -0.6061  0.0161
 5851TIP3   OH217516   0.571   6.441   1.887  0.4781 -0.5498  0.3540
 5851TIP3    H117517   0.514   6.402   1.954 -0.7736 -2.3444 -1.6063
 5851TIP3    H217518   0.656   6.448   1.929 -0.5536 -0.3258  2.5488
 5852TIP3   OH217519   5.924   2.830   0.370 -0.4376 -0.2248  0.0586
 5852TIP3    H117520   5.855   2.847   0.306 -1.4318  2.8774  1.7230
 5852TIP3    H217521   5.993   2.894   0.348  0.1542 -0.6007  0.7743
 5853TIP3   OH217522   1.703   2.180   2.516 -0.0883 -0.0411 -0.2821
 5853TIP3    H117523   1.788   2.136   2.504  0.2729  0.7981 -0.8366
 5853TIP3    H217524   1.667   2.140   2.596  0.2695 -1.2836 -0.7193
 5854TIP3   OH217525   6.834   6.360   4.557  1.1117 -0.1444 -0.4881
 5854TIP3    H117526   6.898   6.421   4.519  2.4411 -1.6246 -0.7307
 5854TIP3    H217527   6.827   6.387   4.648  2.6341 -0.3518 -0.2766
 5855TIP3   OH217528   5.339   4.548   2.684 -1.0154  0.4718 -0.1726
 5855TIP3    H117529   5.301   4.484   2.624  0.0053 -0.0433 -0.2834
 5855TIP3    H217530   5.303   4.525   2.769 -0.1644 -0.6674 -0.1003
 5856TIP3   OH217531   0.576   1.538   4.370  0.3340 -0.1714 -0.3150
 5856TIP3    H117532   0.624   1.530   4.452 -0.4823 -0.6820  0.1288
 5856TIP3    H217533   0.636   1.506   4.303  1.4124  1.2938 -0.0784
 5857TIP3   OH217534   1.032   3.217   3.447  0.0733 -0.5646 -0.0637
 5857TIP3    H117535   0.978   3.286   3.485  1.0813 -0.1741  0.7086
 5857TIP3    H217536   1.114   3.222   3.496  1.0810 -0.6631 -1.6827
 5858TIP3   OH217537   3.177   0.423   2.723  0.3668 -0.2022 -0.1103
 5858TIP3    H117538   3.226   0.367   2.782 -0.5167 -1.6909 -0.7410
 5858TIP3    H217539   3.244   0.474   2.677  1.4948 -2.8369 -1.6255
 5859TIP3   OH217540   0.930   1.030   3.883  0.2212 -0.1937  0.4120
 5859TIP3    H117541   1.008   1.078   3.911  0.6455  0.1995 -1.3049
 5859TIP3    H217542   0.857   1.090   3.898  0.6220  0.6027 -0.6680
 5860TIP3   OH217543   0.064   4.446   0.833  0.0424 -0.0840  0.3468
 5860TIP3    H117544   0.003   4.517   0.809 -0.6384 -0.5288  0.7124
 5860TIP3    H217545   0.027   4.368   0.792  1.8086  0.0492 -1.6478
 5861TIP3   OH217546   4.214   1.468   3.181  0.0828 -0.4734 -0.1784
 5861TIP3    H117547   4.225   1.531   3.252  2.1662 -0.6523 -0.2799
 5861TIP3    H217548   4.170   1.518   3.111  0.1503  0.3599  0.3563
 5862TIP3   OH217549   1.114   0.821   3.247  0.2643 -0.4822 -0.6417
 5862TIP3    H117550   1.125   0.726   3.259  2.5286 -0.0503  1.2907
 5862TIP3    H217551   1.040   0.843   3.303  0.9492 -0.8580  0.4433
 5863TIP3   OH217552   6.698   3.938   2.525  0.0691 -0.3282 -0.3184
 5863TIP3    H117553   6.672   3.873   2.460  0.4422  1.1265 -2.0155
 5863TIP3    H217554   6.792   3.925   2.536  0.6126  1.2614 -2.3733
 5864TIP3   OH217555   4.543   4.670   5.072 -0.0010  0.0058  0.0647
 5864TIP3    H117556   4.449   4.664   5.054  0.0433  2.1353 -1.2177
 5864TIP3    H217557   4.553   4.633   5.159 -2.3607  1.5092  1.0764
 5865TIP3   OH217558   1.728   4.545   4.819 -0.0615 -0.7316  0.4786
 5865TIP3    H117559   1.653   4.536   4.761 -1.1492 -0.9732  1.8648
 5865TIP3    H217560   1.779   4.465   4.807 -1.2139 -1.5924  1.1043
 5866TIP3   OH217561   4.061   4.027   0.183  0.2266 -0.1088  0.0014
 5866TIP3    H117562   4.118   4.021   0.259  1.1350  0.6346 -0.5897
 5866TIP3    H217563   4.099   3.965   0.120 -1.2520 -1.6623  0.5747
 5867TIP3   OH217564   1.240   6.434   3.004  0.4151  0.0496  0.6482
 5867TIP3    H117565   1.195   6.404   2.925  0.4458  1.8598 -0.1020
 5867TIP3    H217566   1.321   6.383   3.005  0.1922 -0.3533 -0.2031
 5868TIP3   OH217567   5.636   6.045   3.092  0.7751 -0.1710 -0.3308
 5868TIP3    H117568   5.666   6.012   3.177  1.3952 -2.1852 -1.2618
 5868TIP3    H217569   5.542   6.059   3.104  0.3465 -2.7892  0.0817
 5869TIP3   OH217570   1.073   5.615   3.178 -0.2246 -0.1739 -0.0572
 5869TIP3    H117571   1.156   5.608   3.225 -0.9848  0.4611  1.4470
 5869TIP3    H217572   1.035   5.697   3.208 -1.2158 -0.2322 -1.0614
 5870TIP3   OH217573   4.496   4.978   5.264  0.7811  0.5243 -0.6444
 5870TIP3    H117574   4.495   4.993   5.170 -1.3050 -0.6448 -0.8647
 5870TIP3    H217575   4.566   4.915   5.278 -0.6059 -1.4046 -1.8595
 5871TIP3   OH217576   5.589   3.937   5.303 -0.5072 -0.0616  0.3302
 5871TIP3    H117577   5.611   3.937   5.210  0.0805  0.2789  0.4684
 5871TIP3    H217578   5.517   3.874   5.311 -0.7891  0.1612 -0.4063
 5872TIP3   OH217579   6.485   3.603   4.667  0.5287 -0.0177 -0.0064
 5872TIP3    H117580   6.553   3.662   4.635  1.3068 -2.3251 -3.1092
 5872TIP3    H217581   6.531   3.521   4.683 -1.1009 -0.8735  0.5210
 5873TIP3   OH217582   6.778   3.566   0.430 -0.2747  0.7406  0.3808
 5873TIP3    H117583   6.746   3.654   0.411 -0.7460  0.7916  1.3725
 5873TIP3    H217584   6.861   3.560   0.383 -0.8586  1.2394 -0.7668
 5874TIP3   OH217585   1.271   4.450   5.750  0.0295  0.4348 -0.0827
 5874TIP3    H117586   1.330   4.377   5.769  1.4332  1.3844 -0.5976
 5874TIP3    H217587   1.310   4.494   5.675 -1.1249  1.3548 -0.1793
 5875TIP3   OH217588   5.464   2.693   5.362  0.4322  0.5051 -0.1471
 5875TIP3    H117589   5.518   2.770   5.343 -0.9294  1.6986  0.6530
 5875TIP3    H217590   5.527   2.620   5.366  1.7200  1.5222 -1.1377
 5876TIP3   OH217591   0.974   6.033   5.185  0.1355 -0.2301 -0.5673
 5876TIP3    H117592   0.956   6.071   5.271 -1.9263 -2.7455  0.2720
 5876TIP3    H217593   0.890   6.037   5.139  1.0320  0.4213 -2.2467
 5877TIP3   OH217594   2.436   3.484   0.696  1.0098 -0.1880 -0.5260
 5877TIP3    H117595   2.530   3.496   0.705  1.0318 -1.2509  1.3347
 5877TIP3    H217596   2.419   3.400   0.738 -0.7293 -0.2005 -1.1681
 5878TIP3   OH217597   5.452   2.328   4.641 -0.2550 -0.4436 -0.0053
 5878TIP3    H117598   5.502   2.247   4.655 -0.3795 -0.0491  3.7300
 5878TIP3    H217599   5.504   2.395   4.685 -1.5357  0.9879 -0.6251
 5879TIP3   OH217600   5.790   5.373   5.044 -0.3943 -0.3738  0.3362
 5879TIP3    H117601   5.808   5.291   4.999 -0.8730  1.6458 -4.1247
 5879TIP3    H217602   5.873   5.421   5.040 -1.2823  1.1484 -1.7087
 5880TIP3   OH217603   4.689   5.671   1.433  0.3170 -0.1559 -0.0460
 5880TIP3    H117604   4.651   5.687   1.520  0.2437 -1.1465  0.1120
 5880TIP3    H217605   4.759   5.737   1.426 -0.7748  1.0635  0.0448
 5881TIP3   OH217606   0.374   5.564   0.054 -0.0723 -0.6092 -0.4319
 5881TIP3    H117607   0.359   5.609   0.137  0.2361 -1.0477 -0.1321
 5881TIP3    H217608   0.415   5.629  -0.002  1.3490 -0.8065  0.3406
 5882TIP3   OH217609   7.150   4.229   0.731 -0.4464  1.1042  0.1125
 5882TIP3    H117610   7.079   4.251   0.670 -1.3101 -0.0632  0.6450
 5882TIP3    H217611   7.190   4.151   0.694  0.3324  1.5508  0.0091
 5883TIP3   OH217612   1.594   2.289   3.487  0.3606 -0.4655  0.2947
 5883TIP3    H117613   1.669   2.248   3.443  0.6091 -1.8391  1.8906
 5883TIP3    H217614   1.630   2.320   3.571 -0.7053 -0.5463  0.7975
 5884TIP3   OH217615   6.898   6.237   1.348 -0.0554  0.7264 -1.1795
 5884TIP3    H117616   6.859   6.322   1.370 -0.1819  0.5515 -0.7022
 5884TIP3    H217617   6.836   6.198   1.286 -0.0379  0.9503 -1.3380
 5885TIP3   OH217618   1.505   3.777   0.538  0.1760 -0.7614  0.6318
 5885TIP3    H117619   1.474   3.845   0.597  0.6400 -0.4920  0.5711
 5885TIP3    H217620   1.599   3.771   0.555  0.5425  0.1033 -0.8436
 5886TIP3   OH217621   5.120   6.121   3.985  0.6155 -0.1306 -0.1584
 5886TIP3    H117622   5.152   6.196   3.936 -0.4117  0.0143 -0.6327
 5886TIP3    H217623   5.054   6.082   3.929  0.8287 -1.1437  0.2694
 5887TIP3   OH217624   0.998   1.426   2.081  0.4351  0.4574 -0.2930
 5887TIP3    H117625   0.906   1.426   2.055  0.4387  1.6319 -0.3414
 5887TIP3    H217626   1.021   1.518   2.092  1.6179  0.1918 -0.3183
 5888TIP3   OH217627   3.180   3.850   0.493  0.7033 -0.4065  0.7677
 5888TIP3    H117628   3.150   3.896   0.414 -2.1382 -1.5714  1.0386
 5888TIP3    H217629   3.259   3.897   0.520  0.5470  1.3510 -1.5488
 5889TIP3   OH217630   6.820   4.374   4.186  0.7466 -0.7550  0.3589
 5889TIP3    H117631   6.893   4.435   4.193  0.1415  0.1122 -0.7563
 5889TIP3    H217632   6.780   4.376   4.273  0.7039  0.4690  0.3271
 5890TIP3   OH217633   1.066   4.197   4.635  0.3070  0.3871  0.6202
 5890TIP3    H117634   1.005   4.208   4.707 -0.9315 -2.7117  0.2081
 5890TIP3    H217635   1.104   4.110   4.648  0.5723  0.0111 -2.0139
 5891TIP3   OH217636   0.188   3.187   1.196  0.9062  0.0037  0.2349
 5891TIP3    H117637   0.120   3.131   1.158  0.8926 -0.1971  0.5489
 5891TIP3    H217638   0.261   3.182   1.134  0.4598  0.6258 -0.3702
 5892TIP3   OH217639   1.822   3.994   4.462 -0.2056  0.2227 -0.2861
 5892TIP3    H117640   1.901   4.029   4.420 -0.7599 -0.3472 -1.8885
 5892TIP3    H217641   1.850   3.971   4.550  2.0211 -1.8698 -1.3842
 5893TIP3   OH217642   4.314   5.207   4.775 -0.0185 -0.4407 -0.3295
 5893TIP3    H117643   4.281   5.284   4.729  0.1216  0.0243  0.3327
 5893TIP3    H217644   4.407   5.227   4.792  0.1708 -1.0042 -0.6639
 5894TIP3   OH217645   6.287   3.555   1.314  0.1345 -0.0403 -0.5258
 5894TIP3    H117646   6.260   3.505   1.237  0.7959 -1.5758  0.2063
 5894TIP3    H217647   6.383   3.561   1.306 -0.0168  2.7371 -1.5350
 5895TIP3   OH217648   5.736   2.742   1.211 -0.4726 -0.5740  0.4921
 5895TIP3    H117649   5.719   2.827   1.170  0.3429 -0.8556 -0.4652
 5895TIP3    H217650   5.776   2.764   1.295  1.6495  0.0167 -0.6023
 5896TIP3   OH217651   1.847   2.285   2.914 -0.1474 -0.2081 -0.8016
 5896TIP3    H117652   1.940   2.266   2.908 -0.4213 -1.2405 -2.2972
 5896TIP3    H217653   1.805   2.200   2.918 -1.0225  0.2441  0.7427
 5897TIP3   OH217654   3.035   5.285   4.482 -0.1904  0.9081  0.0209
 5897TIP3    H117655   3.032   5.358   4.543 -0.6996  0.2906  0.7621
 5897TIP3    H217656   3.102   5.227   4.517 -0.9044  0.2582  0.3656
 5898TIP3   OH217657   7.131   0.251   2.992 -0.3260 -0.7004  0.3476
 5898TIP3    H117658   7.102   0.219   2.907  0.9635 -0.4013 -0.2364
 5898TIP3    H217659   7.147   0.172   3.044  1.0019 -0.9815 -0.4475
 5899TIP3   OH217660   2.742   5.395   2.006  0.0036 -0.2199 -0.4033
 5899TIP3    H117661   2.823   5.368   2.048 -0.3924 -0.5006  0.1839
 5899TIP3    H217662   2.676   5.336   2.040 -0.5458  0.3365 -0.4852
 5900TIP3   OH217663   1.678   3.354   4.809  0.4499  0.6778 -0.2943
 5900TIP3    H117664   1.700   3.375   4.899  0.2232 -0.4339  0.0412
 5900TIP3    H217665   1.600   3.298   4.816  1.1411 -0.4296 -1.0804
 5901TIP3   OH217666   6.101   0.686   4.225 -0.1866  0.2809  0.6900
 5901TIP3    H117667   6.076   0.732   4.305  1.1283  2.6262 -0.1433
 5901TIP3    H217668   6.096   0.752   4.156 -0.5773 -1.4785 -1.0771
 5902TIP3   OH217669   5.381   2.511   2.768  0.2120 -0.3611  0.3302
 5902TIP3    H117670   5.397   2.439   2.829  1.5353 -1.3240 -1.0944
 5902TIP3    H217671   5.438   2.581   2.799  0.6503 -0.7374  0.3842
 5903TIP3   OH217672   1.646   2.962   5.697 -0.0640 -0.1719  0.3200
 5903TIP3    H117673   1.627   2.912   5.617 -0.7377  1.6316 -0.7143
 5903TIP3    H217674   1.614   2.907   5.768 -2.3452 -0.5299 -0.8837
 5904TIP3   OH217675   5.626   0.814   2.538  0.1475  0.7411 -0.1313
 5904TIP3    H117676   5.582   0.898   2.526 -0.2974  0.4973 -0.2463
 5904TIP3    H217677   5.631   0.777   2.450 -2.0307 -0.5102  0.2132
 5905TIP3   OH217678   6.455   5.032   4.821  0.9315  0.1896  0.1839
 5905TIP3    H117679   6.440   5.127   4.826 -0.6271 -0.0563  0.7663
 5905TIP3    H217680   6.533   5.018   4.875 -0.2045  0.8947  2.1465
 5906TIP3   OH217681   1.775   2.112   4.839  0.1961 -0.1924 -0.0610
 5906TIP3    H117682   1.764   2.017   4.845  0.5809 -0.2120  0.3338
 5906TIP3    H217683   1.722   2.147   4.910  1.5890 -0.2225  1.0455
 5907TIP3   OH217684   0.109   3.012   5.226  0.6592 -0.1577 -0.7947
 5907TIP3    H117685   0.189   2.971   5.259  0.6779  1.2475  1.0600
 5907TIP3    H217686   0.139   3.096   5.191 -0.1354  1.1995  1.5427
 5908TIP3   OH217687   6.059   4.738   5.304  0.4086  0.4721  0.4213
 5908TIP3    H117688   6.055   4.674   5.375 -1.5290  1.0671  0.9183
 5908TIP3    H217689   6.063   4.822   5.348  0.1236  0.8038 -0.1719
 5909TIP3   OH217690   3.746   2.175   0.370  0.2101  0.3102  0.4634
 5909TIP3    H117691   3.800   2.154   0.294  0.4063 -0.2157  0.7392
 5909TIP3    H217692   3.714   2.090   0.401  1.0220  0.3986  1.6159
 5910TIP3   OH217693   0.062   2.047   3.785  0.9705  0.4996  0.4352
 5910TIP3    H117694   0.065   1.975   3.847  1.2294 -0.0009 -0.1513
 5910TIP3    H217695  -0.003   2.108   3.822 -1.0068 -1.1005 -0.1937
 5911TIP3   OH217696   3.807   4.331   4.734  0.3450 -0.6572  0.0662
 5911TIP3    H117697   3.741   4.333   4.665 -1.6886  0.4356  1.9134
 5911TIP3    H217698   3.802   4.242   4.769  0.1590 -0.7022 -0.0746
 5912TIP3   OH217699   6.961   1.646   3.138  0.2892  0.1495 -0.1885
 5912TIP3    H117700   6.919   1.718   3.184  0.6904  0.8950 -0.9615
 5912TIP3    H217701   7.054   1.666   3.140  0.2639  0.7460 -2.1430
 5913TIP3   OH217702   6.402   0.278   5.080 -0.3877 -0.1499 -0.1197
 5913TIP3    H117703   6.337   0.328   5.130 -1.0364  0.1449 -1.2323
 5913TIP3    H217704   6.428   0.207   5.139 -1.7045 -0.2610  0.3734
 5914TIP3   OH217705   4.663   4.777   1.756 -0.2007  0.0140 -0.6388
 5914TIP3    H117706   4.705   4.827   1.685 -0.8824 -0.0737 -1.1131
 5914TIP3    H217707   4.612   4.843   1.804 -0.9915 -0.1870 -1.1828
 5915TIP3   OH217708   3.379   6.406   4.953 -0.0787  0.5740  0.5305
 5915TIP3    H117709   3.350   6.468   5.020  0.2210  0.5748  0.6603
 5915TIP3    H217710   3.473   6.423   4.944 -0.2240  0.9602 -0.2945
 5916TIP3   OH217711   3.898   1.494   5.107  0.4805 -0.1379 -0.2202
 5916TIP3    H117712   3.877   1.510   5.015  0.4285  1.1400 -0.0034
 5916TIP3    H217713   3.966   1.427   5.105 -1.8440 -2.6498 -1.0304
 5917TIP3   OH217714   2.112   5.667   2.779 -0.1325  0.2824  0.0174
 5917TIP3    H117715   2.149   5.594   2.828 -0.9129  1.0814  1.8710
 5917TIP3    H217716   2.169   5.675   2.702  1.3922 -0.7480  0.9850
 5918TIP3   OH217717   2.736   4.333   1.755 -0.2123  0.2985  0.0612
 5918TIP3    H117718   2.710   4.242   1.740  1.8226 -0.3260 -0.0522
 5918TIP3    H217719   2.713   4.350   1.846  1.5483 -1.1844  0.8491
 5919TIP3   OH217720   1.678   0.320   2.156  0.3852 -0.5877  0.3381
 5919TIP3    H117721   1.674   0.327   2.060 -0.8227 -2.4490  0.1770
 5919TIP3    H217722   1.733   0.392   2.184 -0.3227  0.8118 -1.6634
 5920TIP3   OH217723   0.307   6.356   3.347 -0.2347  0.0554 -0.1483
 5920TIP3    H117724   0.345   6.425   3.292  2.9974 -0.7141  0.8759
 5920TIP3    H217725   0.311   6.391   3.436  0.8858 -1.1402  0.3108
 5921TIP3   OH217726   6.281   5.821   3.744 -0.2110 -0.0448  0.5931
 5921TIP3    H117727   6.189   5.845   3.754 -0.3021 -0.8598  1.9164
 5921TIP3    H217728   6.304   5.778   3.826  1.0400 -0.8690 -0.1507
 5922TIP3   OH217729   4.312   0.916   3.246 -0.0608 -0.2133  0.3193
 5922TIP3    H117730   4.346   0.982   3.306  0.3377 -1.3243  1.3386
 5922TIP3    H217731   4.217   0.916   3.261 -0.4319  1.7421 -1.3807
 5923TIP3   OH217732   0.032   3.147   1.427 -0.1603  0.0959 -0.2977
 5923TIP3    H117733   0.073   3.165   1.343 -1.1792 -1.5769 -1.1974
 5923TIP3    H217734  -0.039   3.211   1.433  0.4013  0.7351 -0.3236
 5924TIP3   OH217735   1.634   2.998   1.553  0.2455  0.4205 -0.6310
 5924TIP3    H117736   1.569   3.050   1.507 -0.5924 -0.2825 -0.2582
 5924TIP3    H217737   1.588   2.961   1.628  0.7291 -1.0988 -1.0382
 5925TIP3   OH217738   3.862   0.256   0.586 -0.4879  0.1392 -0.5730
 5925TIP3    H117739   3.881   0.162   0.591  0.1762  0.2619 -0.6060
 5925TIP3    H217740   3.772   0.264   0.617 -0.2164 -0.4018  0.4074
 5926TIP3   OH217741   0.544   0.309   0.518 -0.1188 -0.1840  0.1302
 5926TIP3    H117742   0.586   0.373   0.460  1.0054 -0.9491  0.0706
 5926TIP3    H217743   0.463   0.286   0.474  0.1081  0.2134 -0.5040
 5927TIP3   OH217744   5.951   3.050   1.099 -0.6453  0.2840 -0.3691
 5927TIP3    H117745   6.000   3.109   1.156  0.3061 -0.3054 -0.5461
 5927TIP3    H217746   5.860   3.075   1.111 -0.2599  1.8912 -0.5712
 5928TIP3   OH217747   3.135   1.419   3.061  0.4803 -0.3763  0.1364
 5928TIP3    H117748   3.110   1.499   3.014  0.3986 -1.4301 -1.7517
 5928TIP3    H217749   3.230   1.420   3.061  0.4862 -0.5081 -0.3476
 5929TIP3   OH217750   1.386   5.662   1.383 -0.3736  0.4916 -0.2839
 5929TIP3    H117751   1.421   5.738   1.428 -1.7303 -0.0146  1.7534
 5929TIP3    H217752   1.463   5.612   1.356  0.5212  0.6612  1.7811
 5930TIP3   OH217753   1.201   1.184   3.874  0.9008 -0.1877 -0.1533
 5930TIP3    H117754   1.219   1.242   3.948  3.1879  0.3164 -1.0199
 5930TIP3    H217755   1.287   1.153   3.846  0.1620 -0.0887 -2.8156
 5931TIP3   OH217756   3.714   4.162   5.712  0.1695  0.2495  0.2105
 5931TIP3    H117757   3.787   4.147   5.772 -0.4861 -0.4609  0.8605
 5931TIP3    H217758   3.670   4.077   5.707  0.8822 -0.0398 -2.2068
 5932TIP3   OH217759   1.446   5.113   1.488 -0.0766  0.1375  0.2044
 5932TIP3    H117760   1.359   5.102   1.525 -0.5870  1.6390 -0.4745
 5932TIP3    H217761   1.482   5.189   1.533  0.9498 -0.5264  0.5494
 5933TIP3   OH217762   4.110   0.691   3.543  0.1418 -0.3167 -0.4094
 5933TIP3    H117763   4.131   0.784   3.536  1.1896 -0.5741 -0.8159
 5933TIP3    H217764   4.073   0.682   3.631 -2.2975  0.9001 -1.2211
 5934TIP3   OH217765   3.552   5.652   1.904  0.2612 -0.0227  0.3030
 5934TIP3    H117766   3.632   5.610   1.874 -1.0636 -0.5311 -2.9998
 5934TIP3    H217767   3.561   5.743   1.876 -0.0152  0.0953  0.5914
 5935TIP3   OH217768   4.713   1.674   4.402 -0.4225 -0.4159  0.1940
 5935TIP3    H117769   4.665   1.739   4.454 -2.8398  1.0792 -3.4712
 5935TIP3    H217770   4.780   1.640   4.462 -2.1880  1.8377  3.8264
 5936TIP3   OH217771   2.197   4.522   0.311  0.1726  0.0033 -0.4010
 5936TIP3    H117772   2.111   4.481   0.323  1.2488 -2.3702 -0.2813
 5936TIP3    H217773   2.226   4.493   0.225  1.4881 -0.5085  0.1944
 5937TIP3   OH217774   3.018   2.051   3.697 -0.3862  0.9080 -0.2712
 5937TIP3    H117775   3.029   2.108   3.621 -2.1311 -0.4715 -1.6540
 5937TIP3    H217776   2.924   2.034   3.701 -0.0590 -1.0205  0.6969
 5938TIP3   OH217777   7.163   5.717   5.742 -0.4654  0.6461  0.2126
 5938TIP3    H117778   7.245   5.690   5.783 -0.6221 -0.3305 -0.0930
 5938TIP3    H217779   7.095   5.669   5.791 -0.7815  0.7741 -0.0969
 5939TIP3   OH217780   6.478   2.787   4.501  0.2210 -0.3606  0.1264
 5939TIP3    H117781   6.502   2.854   4.565  0.3344  0.3017 -0.5926
 5939TIP3    H217782   6.383   2.793   4.494  0.3312  0.5698 -0.8188
 5940TIP3   OH217783   5.831   2.358   3.287 -0.1038  0.2753  0.3410
 5940TIP3    H117784   5.740   2.331   3.270 -0.1153  1.1389 -1.2142
 5940TIP3    H217785   5.826   2.409   3.368 -0.9572  0.0631  0.4350
 5941TIP3   OH217786   2.744   0.522   3.845 -0.1773  0.1665  0.2819
 5941TIP3    H117787   2.713   0.547   3.932  0.2428 -0.5852  0.6640
 5941TIP3    H217788   2.694   0.443   3.824 -1.1024  0.9724 -0.6676
 5942TIP3   OH217789   4.716   3.631   1.482  0.0362  0.1817  0.4055
 5942TIP3    H117790   4.627   3.597   1.481  0.0146  0.2411  0.3079
 5942TIP3    H217791   4.717   3.696   1.551  0.2582 -0.5028  1.0656
 5943TIP3   OH217792   3.068   4.886   0.150 -0.0600 -0.5820 -0.1772
 5943TIP3    H117793   2.998   4.825   0.126  0.4766 -1.3141  0.0628
 5943TIP3    H217794   3.114   4.842   0.221 -0.6696  0.8642  1.1676
 5944TIP3   OH217795   1.882   2.260   1.996  0.8306  0.5946 -0.0318
 5944TIP3    H117796   1.927   2.179   1.974  0.7264  0.7527 -0.8839
 5944TIP3    H217797   1.952   2.325   2.004  0.7988  0.7594 -0.9774
 5945TIP3   OH217798   6.124   2.183   5.243  0.0984 -0.1725  0.8124
 5945TIP3    H117799   6.056   2.176   5.176  0.3627  1.6191  0.2847
 5945TIP3    H217800   6.176   2.104   5.232  0.5290  0.3409 -1.6237
 5946TIP3   OH217801   6.048   2.266   4.108 -0.3946 -0.3104 -0.1800
 5946TIP3    H117802   6.078   2.356   4.103  0.3191 -0.4679  0.8667
 5946TIP3    H217803   6.061   2.231   4.020  1.4581 -0.0243 -0.0740
 5947TIP3   OH217804   7.231   4.706   5.349  0.3910  0.1641 -0.2480
 5947TIP3    H117805   7.250   4.781   5.294 -1.0709  0.6910 -0.0887
 5947TIP3    H217806   7.157   4.734   5.403 -0.2404 -1.4129 -0.2389
 5948TIP3   OH217807   5.935   1.155   3.009 -0.2369  0.2440  0.6218
 5948TIP3    H117808   5.935   1.067   2.972  0.6524  0.7104 -0.5404
 5948TIP3    H217809   6.022   1.165   3.048 -0.8693  0.0685  2.1246
 5949TIP3   OH217810   3.389   3.585   1.693  0.1105 -0.0223  0.1842
 5949TIP3    H117811   3.455   3.526   1.658 -1.9063 -1.3276 -1.6768
 5949TIP3    H217812   3.307   3.535   1.689 -1.2009  1.8610  1.4361
 5950TIP3   OH217813   3.202   4.548   1.507 -0.3843 -0.1210  0.3173
 5950TIP3    H117814   3.228   4.624   1.558  0.1807 -0.4191  0.4757
 5950TIP3    H217815   3.282   4.497   1.497 -0.5614 -0.2422 -0.5714
 5951TIP3   OH217816   3.123   3.278   1.303 -0.0342 -0.5052 -0.3583
 5951TIP3    H117817   3.096   3.201   1.353  0.2398 -0.3478  0.0365
 5951TIP3    H217818   3.117   3.351   1.366 -0.3172 -0.1984 -0.7340
 5952TIP3   OH217819   6.455   4.134   3.593  0.3110  0.1718 -0.0800
 5952TIP3    H117820   6.461   4.075   3.669  0.5566  0.0998 -0.1539
 5952TIP3    H217821   6.519   4.099   3.531 -0.8443 -0.5937 -0.8856
 5953TIP3   OH217822   2.513   0.332   3.553 -0.5689 -0.3949 -0.7786
 5953TIP3    H117823   2.419   0.336   3.570 -0.3687  1.6670  0.2114
 5953TIP3    H217824   2.551   0.298   3.635 -0.2567  1.6906 -0.0010
 5954TIP3   OH217825   0.902   6.415   1.765  0.0518 -0.7481 -0.1364
 5954TIP3    H117826   0.957   6.491   1.781  1.0361 -1.4621 -0.0289
 5954TIP3    H217827   0.963   6.346   1.738 -0.8996 -1.2681 -1.0707
 5955TIP3   OH217828   2.983   3.045   5.422  0.3005  0.6746 -0.2937
 5955TIP3    H117829   2.947   3.089   5.345 -0.4728  1.8221  0.6880
 5955TIP3    H217830   2.986   2.953   5.398 -1.9523  0.7222 -0.9394
 5956TIP3   OH217831   0.580   1.598   5.352 -0.5226  0.2313  0.9132
 5956TIP3    H117832   0.612   1.508   5.361  0.6048  0.6758  1.5668
 5956TIP3    H217833   0.627   1.632   5.276 -1.0619  0.2253  0.5750
 5957TIP3   OH217834   3.989   6.189   2.504  0.4399  0.3801 -0.0641
 5957TIP3    H117835   4.015   6.122   2.440  0.7862  0.9947 -0.5818
 5957TIP3    H217836   4.034   6.164   2.585 -0.1833 -0.5325  0.0043
 5958TIP3   OH217837   1.418   0.488   0.667  0.1240  0.2480  0.9127
 5958TIP3    H117838   1.513   0.484   0.651  0.1823 -0.4122  1.3858
 5958TIP3    H217839   1.384   0.540   0.595  0.9927  1.4285  1.3097
 5959TIP3   OH217840   4.125   1.802   4.808 -0.1719  0.1029  0.0656
 5959TIP3    H117841   4.033   1.817   4.829  0.2622  0.8548  1.5763
 5959TIP3    H217842   4.171   1.815   4.891  1.5235  1.9122 -1.0622
 5960TIP3   OH217843   2.774   4.870   1.438 -0.1104 -0.1533 -0.2710
 5960TIP3    H117844   2.718   4.902   1.508 -0.4609  1.4631 -1.2343
 5960TIP3    H217845   2.815   4.949   1.401 -0.0395 -0.9184 -1.9517
 5961TIP3   OH217846   4.164   0.903   4.020 -0.3668  0.0025 -0.1286
 5961TIP3    H117847   4.099   0.859   4.075 -1.4635 -1.3326 -2.2958
 5961TIP3    H217848   4.169   0.992   4.054 -3.5242  0.2249  0.0865
 5962TIP3   OH217849   2.426   6.086   4.134  0.1334 -0.2299  0.1269
 5962TIP3    H117850   2.450   6.005   4.180  0.9115 -0.9057 -1.3986
 5962TIP3    H217851   2.509   6.125   4.108 -0.2284 -0.8267 -2.2303
 5963TIP3   OH217852   3.621   5.045   2.304  0.0387  0.5496 -0.5129
 5963TIP3    H117853   3.592   5.126   2.344 -0.7602  0.4826 -0.9135
 5963TIP3    H217854   3.716   5.051   2.301  0.0439  0.9893  0.4475
 5964TIP3   OH217855   4.607   4.934   4.619  0.1925 -0.0146 -0.8207
 5964TIP3    H117856   4.637   4.894   4.700 -0.1039 -1.0727 -1.2187
 5964TIP3    H217857   4.511   4.932   4.625  0.1607 -0.4692 -1.3627
 5965TIP3   OH217858   1.006   6.194   4.121  0.1858 -0.1505  0.3150
 5965TIP3    H117859   1.071   6.224   4.057 -1.0312 -1.9731 -1.9339
 5965TIP3    H217860   1.002   6.099   4.109 -0.2262 -0.5425  3.0532
 5966TIP3   OH217861   1.243   6.589   4.280 -0.0753  0.2407  0.3279
 5966TIP3    H117862   1.279   6.670   4.315 -1.0925  0.6035  0.5667
 5966TIP3    H217863   1.266   6.591   4.187 -0.2969  0.9229  0.2824
 5967TIP3   OH217864   3.730   6.604   4.603 -0.3104  0.0189 -0.4763
 5967TIP3    H117865   3.708   6.683   4.554  1.1422  1.1998  0.6503
 5967TIP3    H217866   3.807   6.569   4.558 -1.7079 -1.5305 -1.7417
 5968TIP3   OH217867   5.326   6.291   5.737 -0.1654  0.2536 -0.4557
 5968TIP3    H117868   5.238   6.304   5.773  0.1057 -0.9938  0.7226
 5968TIP3    H217869   5.313   6.288   5.643 -1.7787 -2.3236 -0.2483
 5969TIP3   OH217870   2.644   1.984   5.481  0.1421  0.0422  0.0773
 5969TIP3    H117871   2.729   1.960   5.517  0.3610  1.9267  0.9399
 5969TIP3    H217872   2.628   2.073   5.513 -1.8167  0.0263 -0.6815
 5970TIP3   OH217873   3.110   5.162   2.516  0.4179 -0.3340 -0.3590
 5970TIP3    H117874   3.048   5.206   2.458 -0.6977  0.0389  1.0639
 5970TIP3    H217875   3.086   5.191   2.603  1.8356 -1.1535  0.3379
 5971TIP3   OH217876   5.682   3.311   5.900 -0.0256 -0.3047 -0.1829
 5971TIP3    H117877   5.749   3.370   5.866  1.3544 -0.2670  2.3343
 5971TIP3    H217878   5.689   3.232   5.846  1.0878  0.2367 -0.8534
 5972TIP3   OH217879   1.099   4.680   2.266  0.4402  0.0719 -0.3462
 5972TIP3    H117880   1.122   4.648   2.353  1.3182  0.5026 -0.4143
 5972TIP3    H217881   1.026   4.741   2.281  1.4088  1.1152  0.2472
 5973TIP3   OH217882   1.859   4.245   4.772  0.0149  0.2924  0.3034
 5973TIP3    H117883   1.880   4.166   4.821  0.1518 -0.3408 -0.7549
 5973TIP3    H217884   1.767   4.263   4.794  0.2680  0.4236  1.3179
 5974TIP3   OH217885   4.972   1.604   5.736  0.2735 -0.1417  0.0034
 5974TIP3    H117886   4.920   1.532   5.770 -0.6731  1.4393  2.1332
 5974TIP3    H217887   5.045   1.612   5.798  0.3902  0.7048 -0.2351
 5975TIP3   OH217888   0.337   2.580   1.470 -0.1762 -0.9296  0.3364
 5975TIP3    H117889   0.301   2.534   1.546  1.8463  1.0772  2.6719
 5975TIP3    H217890   0.431   2.587   1.488 -0.0616  2.2343 -0.8415
 5976TIP3   OH217891   4.255   0.418   2.810 -0.3214 -0.3657 -0.4373
 5976TIP3    H117892   4.285   0.508   2.826  0.0981 -0.8392  1.8345
 5976TIP3    H217893   4.173   0.429   2.761 -0.8861  1.3418  0.7779
 5977TIP3   OH217894   2.151   1.384   1.336 -0.0396 -0.3789 -0.1457
 5977TIP3    H117895   2.059   1.406   1.347  0.3095  0.5272  1.1729
 5977TIP3    H217896   2.163   1.306   1.391  0.0010 -0.4190 -0.2121
 5978TIP3   OH217897   1.009   1.226   3.292 -0.9526 -0.1271  0.5766
 5978TIP3    H117898   0.934   1.285   3.283 -1.5511 -0.4839  2.5939
 5978TIP3    H217899   1.026   1.224   3.386  0.6050 -1.2889  0.3052
 5979TIP3   OH217900   1.470   5.470   0.391  0.1661 -0.2218  0.1421
 5979TIP3    H117901   1.494   5.525   0.316 -0.3260  0.6116  0.5822
 5979TIP3    H217902   1.445   5.386   0.352  0.1116  0.1363 -0.6133
 5980TIP3   OH217903   2.696   6.562   1.318  0.0732 -0.4545 -0.1927
 5980TIP3    H117904   2.770   6.601   1.365 -0.0308 -0.8128  0.2795
 5980TIP3    H217905   2.733   6.485   1.276 -0.0220 -0.6065  0.0026
 5981TIP3   OH217906   6.482   1.377   5.296  0.2195 -0.3347 -0.3127
 5981TIP3    H117907   6.411   1.421   5.343 -0.7584 -1.9793 -0.1812
 5981TIP3    H217908   6.440   1.342   5.217  1.2264 -0.0587 -0.9922
 5982TIP3   OH217909   0.257   5.413   5.842  0.1227  0.0351  0.0793
 5982TIP3    H117910   0.314   5.446   5.773 -0.0569  1.7272  0.6997
 5982TIP3    H217911   0.315   5.361   5.898  1.3103  2.3142  1.1144
 5983TIP3   OH217912  -0.023   5.559   4.227 -0.5015 -0.4152 -0.1019
 5983TIP3    H117913   0.046   5.566   4.293 -1.2589  0.9812  0.5828
 5983TIP3    H217914   0.021   5.582   4.145 -0.0932  0.2945  0.3009
 5984TIP3   OH217915   5.128   1.827   2.172  0.0788  0.9057 -0.2672
 5984TIP3    H117916   5.041   1.809   2.208  0.7666 -0.8607  0.6750
 5984TIP3    H217917   5.178   1.748   2.192  1.1680  0.7637 -3.1466
 5985TIP3   OH217918   4.942   4.420   1.644 -0.1325  0.0675  0.8855
 5985TIP3    H117919   4.966   4.496   1.696 -0.8678  1.0046 -0.0817
 5985TIP3    H217920   4.853   4.439   1.613  0.5302 -0.0740 -1.2858
 5986TIP3   OH217921   0.125   2.426   3.509  0.0240  0.1637 -0.1188
 5986TIP3    H117922   0.056   2.395   3.450 -0.3272 -0.1146  0.4348
 5986TIP3    H217923   0.091   2.509   3.544 -0.5936 -0.5821  1.1123
 5987TIP3   OH217924   0.761   3.116   4.984 -0.1145  0.3875  0.2365
 5987TIP3    H117925   0.673   3.123   5.020 -0.1143  2.5975 -0.0680
 5987TIP3    H217926   0.748   3.087   4.894 -0.4118 -0.5891  0.5794
 5988TIP3   OH217927   0.753   1.850   1.036  0.6025 -0.5674 -0.1039
 5988TIP3    H117928   0.670   1.875   1.076  0.5434 -0.3610 -0.3578
 5988TIP3    H217929   0.753   1.754   1.040  1.0137 -0.5430  1.2491
 5989TIP3   OH217930   0.513   3.963   3.286  0.4272 -0.6281 -0.4782
 5989TIP3    H117931   0.423   3.990   3.270  0.1298 -1.5865 -0.5034
 5989TIP3    H217932   0.556   4.040   3.322 -0.7152 -0.5085  0.6945
 5990TIP3   OH217933   1.309   1.188   0.807  0.3979 -0.1060 -0.3208
 5990TIP3    H117934   1.273   1.107   0.773  0.1123 -0.4040  0.6513
 5990TIP3    H217935   1.393   1.198   0.763  1.5572 -2.1857  1.2960
 5991TIP3   OH217936   2.580   3.383   2.757 -0.3151  0.0707  0.4952
 5991TIP3    H117937   2.519   3.425   2.818 -0.4785 -0.0039  0.3827
 5991TIP3    H217938   2.561   3.423   2.672 -0.3334 -0.0869  0.4250
 5992TIP3   OH217939   5.910   0.498   1.589 -0.0858 -0.0889 -0.6724
 5992TIP3    H117940   5.966   0.560   1.543 -0.3435 -0.1086 -1.0167
 5992TIP3    H217941   5.821   0.528   1.570 -0.2742  1.9595  2.5025
 5993TIP3   OH217942   4.646   1.102   0.725 -0.0742  0.0960 -0.6552
 5993TIP3    H117943   4.737   1.092   0.752 -0.1246  0.3072 -0.4041
 5993TIP3    H217944   4.634   1.036   0.657 -0.2279 -1.1847  0.5536
 5994TIP3   OH217945   4.830   1.292   5.653 -0.2268 -0.1064 -1.2129
 5994TIP3    H117946   4.900   1.227   5.643 -0.7245 -0.4126 -2.9475
 5994TIP3    H217947   4.849   1.334   5.737  0.0156 -2.6177  0.1068
 5995TIP3   OH217948   2.898   2.026   5.291 -0.2272 -0.1892 -0.0244
 5995TIP3    H117949   2.884   1.977   5.372  0.5168 -3.0373 -1.4980
 5995TIP3    H217950   2.832   1.992   5.231  2.7173 -2.4072 -2.2831
 5996TIP3   OH217951   3.803   0.296   5.153  0.3160  0.1490 -0.1415
 5996TIP3    H117952   3.814   0.389   5.172  1.2949 -0.2109  1.1778
 5996TIP3    H217953   3.800   0.291   5.057 -0.6565  1.6118 -0.2188
 5997TIP3   OH217954   0.989   3.102   0.590  0.4536  0.0596  0.1539
 5997TIP3    H117955   0.947   3.059   0.516  1.2738 -3.0026  1.3118
 5997TIP3    H217956   1.081   3.078   0.583  0.8755  1.2574  1.1684
 5998TIP3   OH217957   5.021   3.054   3.638 -0.7248 -0.1884  0.2401
 5998TIP3    H117958   5.041   3.143   3.668 -0.3652 -0.1647 -0.0629
 5998TIP3    H217959   5.097   3.002   3.664 -0.4024 -0.1624 -0.6418
 5999TIP3   OH217960   0.008   0.521   0.884  0.3900  0.0635  0.8130
 5999TIP3    H117961   0.078   0.458   0.871  0.7086  0.6206 -0.2767
 5999TIP3    H217962   0.036   0.599   0.835  0.2932  1.2841  2.6100
 6000TIP3   OH217963   4.031   6.508   4.848  0.7788  0.1777  0.2411
 6000TIP3    H117964   3.967   6.471   4.788  0.3101  1.4876 -0.0862
 6000TIP3    H217965   4.088   6.434   4.871 -1.1706 -1.1637  1.0142
 6001TIP3   OH217966   6.477   2.983   1.672  0.7216  0.1987  0.0891
 6001TIP3    H117967   6.454   2.919   1.605  0.5161 -0.0249  0.3690
 6001TIP3    H217968   6.394   3.028   1.690  0.7415  0.1466  0.3084
 6002TIP3   OH217969   1.429   0.490   2.225  0.5192 -0.3528  0.3251
 6002TIP3    H117970   1.505   0.500   2.168  0.8128 -2.5415  0.2714
 6002TIP3    H217971   1.466   0.480   2.313  0.2473 -0.5603  0.4181
 6003TIP3   OH217972   3.839   0.052   5.387 -0.3341 -0.4079  0.0466
 6003TIP3    H117973   3.892   0.128   5.409 -0.8226 -0.5572  2.0298
 6003TIP3    H217974   3.786   0.080   5.312  1.4067  0.2411 -0.9923
 6004TIP3   OH217975   3.592   4.005   4.313 -0.2144  0.3646 -0.0767
 6004TIP3    H117976   3.653   4.000   4.386  0.0696 -1.8396 -0.3869
 6004TIP3    H217977   3.506   4.009   4.354  0.0210  0.9847  0.3654
 6005TIP3   OH217978   2.495   6.521   0.178  0.4932  0.0222  0.0392
 6005TIP3    H117979   2.566   6.570   0.218  1.3919 -2.0136  1.0910
 6005TIP3    H217980   2.430   6.510   0.247  0.1109  0.1142 -0.3036
 6006TIP3   OH217981   0.914   3.274   4.213  0.3084  0.5488 -0.4330
 6006TIP3    H117982   0.997   3.281   4.261  0.2929 -0.3008 -0.2669
 6006TIP3    H217983   0.862   3.213   4.264  0.1281 -0.0416 -1.3046
 6007TIP3   OH217984   4.225   1.019   2.622  0.3225 -0.4446 -0.0776
 6007TIP3    H117985   4.316   1.011   2.652 -0.1124 -1.5250  1.0474
 6007TIP3    H217986   4.176   0.960   2.679 -1.3142  1.1279  0.2463
 6008TIP3   OH217987   4.427   5.206   3.480  0.6094  0.6979 -0.0917
 6008TIP3    H117988   4.503   5.211   3.422 -0.0490 -2.5251 -1.4877
 6008TIP3    H217989   4.352   5.218   3.422 -0.0565 -2.3473 -0.0711
 6009TIP3   OH217990   4.360   4.693   2.239 -0.0796 -0.0227 -0.0806
 6009TIP3    H117991   4.439   4.718   2.191  1.2408 -0.6907  1.6438
 6009TIP3    H217992   4.342   4.769   2.296  1.2566 -1.0830  1.8499
 6010TIP3   OH217993   6.479   4.364   3.767  0.1308 -0.6449  0.4357
 6010TIP3    H117994   6.458   4.315   3.688 -0.2198  0.2289 -0.0244
 6010TIP3    H217995   6.432   4.318   3.837 -0.7615 -0.5738 -0.1007
 6011TIP3   OH217996   0.863   4.849   5.783  0.3945 -0.1455 -0.5314
 6011TIP3    H117997   0.856   4.846   5.687 -0.7831 -0.0364 -0.4744
 6011TIP3    H217998   0.839   4.761   5.811 -0.8019  0.2236 -0.2967
 6012TIP3   OH217999   6.761   1.768   3.940  0.7728  0.6321 -0.4802
 6012TIP3    H118000   6.851   1.756   3.970 -0.1782  0.0657  2.3885
 6012TIP3    H218001   6.744   1.862   3.950  0.3848  0.4111  1.1176
 6013TIP3   OH218002   5.960   5.097   1.247 -0.4382 -0.2085 -0.3503
 6013TIP3    H118003   6.020   5.171   1.253 -0.7166 -0.0083  0.0065
 6013TIP3    H218004   5.964   5.069   1.155 -1.1441  0.9265 -0.7424
 6014TIP3   OH218005   5.558   2.077   2.425  0.0230 -0.3871  0.1788
 6014TIP3    H118006   5.569   2.121   2.509 -1.6224 -1.6081  1.0693
 6014TIP3    H218007   5.543   2.148   2.363  1.3321  0.5328  0.8583
 6015TIP3   OH218008   5.341   5.831   0.160 -0.0427  0.1713 -0.4727
 6015TIP3    H118009   5.306   5.800   0.077 -0.3039 -1.2903  0.1614
 6015TIP3    H218010   5.435   5.818   0.153 -0.1953 -1.3677 -0.0035
 6016TIP3   OH218011   1.376   2.777   4.927  0.4660  0.2090  0.4272
 6016TIP3    H118012   1.463   2.805   4.898  0.9507 -0.3982  1.2318
 6016TIP3    H218013   1.379   2.788   5.022 -0.9500  1.8326  0.3304
 6017TIP3   OH218014   3.567   1.397   4.327  0.0276 -0.0118 -0.0491
 6017TIP3    H118015   3.506   1.406   4.254 -1.0746  0.4150  0.9069
 6017TIP3    H218016   3.569   1.483   4.368  0.1470 -0.4099  0.8098
 6018TIP3   OH218017   4.506   2.924   0.080  0.2839 -0.0522 -0.1774
 6018TIP3    H118018   4.516   2.873  -0.000  1.6939  0.4732 -0.3663
 6018TIP3    H218019   4.454   2.868   0.138 -1.0990 -0.2856 -1.5674
 6019TIP3   OH218020   3.926   6.341   1.422  0.3666  0.6101 -0.1303
 6019TIP3    H118021   3.876   6.412   1.461  2.0568  1.5472  0.4154
 6019TIP3    H218022   3.924   6.271   1.488  1.0396  1.2233  0.5604
 6020TIP3   OH218023   6.717   2.977   4.993  0.1635 -0.0902  0.3911
 6020TIP3    H118024   6.808   2.971   5.021  0.9499 -0.8413 -2.0466
 6020TIP3    H218025   6.690   3.066   5.019  2.0385  0.6564 -0.0165
 6021TIP3   OH218026   1.117   5.584   5.283  0.2432 -0.3129 -0.3395
 6021TIP3    H118027   1.138   5.616   5.195  0.4990  0.2868 -0.0687
 6021TIP3    H218028   1.022   5.578   5.284  0.2657 -0.9197 -0.8572
 6022TIP3   OH218029   4.860   1.538   2.600  0.3940  0.3996  0.1608
 6022TIP3    H118030   4.943   1.586   2.603  1.4181 -1.1332 -1.4870
 6022TIP3    H218031   4.793   1.605   2.612  1.8021  2.0330 -0.6372
 6023TIP3   OH218032   2.731   6.808   2.621 -0.2779 -0.0963 -0.1024
 6023TIP3    H118033   2.692   6.747   2.683 -1.4243  0.9126  0.1976
 6023TIP3    H218034   2.676   6.800   2.543  0.2359 -0.2352 -0.4573
 6024TIP3   OH218035   0.133   2.237   1.828 -0.3722 -0.1328  0.1252
 6024TIP3    H118036   0.113   2.303   1.895  1.3109 -0.6536  1.1943
 6024TIP3    H218037   0.101   2.155   1.864 -2.1724 -0.0084 -1.0664
 6025TIP3   OH218038   2.615   6.738   1.532 -0.0053 -0.2619  0.6055
 6025TIP3    H118039   2.664   6.659   1.511  1.7931  0.5890  1.4093
 6025TIP3    H218040   2.651   6.805   1.474 -2.5613 -0.2793 -1.1681
 6026TIP3   OH218041   7.221   4.026   2.176  0.4328  0.0006  0.2193
 6026TIP3    H118042   7.164   4.045   2.251 -0.0016  0.6634 -0.2647
 6026TIP3    H218043   7.190   3.942   2.142 -0.4312  0.4772 -0.1924
 6027TIP3   OH218044   1.344   2.433   3.636  0.2255  0.0161  0.1045
 6027TIP3    H118045   1.403   2.358   3.639 -1.0406 -1.0217 -0.1170
 6027TIP3    H218046   1.392   2.499   3.586  0.9917 -0.9801 -0.5113
 6028TIP3   OH218047   5.844   4.632   3.111 -0.3249  0.3680 -0.8087
 6028TIP3    H118048   5.881   4.603   3.028  0.4212  1.9966 -1.0702
 6028TIP3    H218049   5.784   4.702   3.089 -0.8093  0.2106 -0.0474
 6029TIP3   OH218050   2.176   5.505   1.872 -0.3904 -0.0523  0.0819
 6029TIP3    H118051   2.144   5.526   1.960 -0.4323 -0.1345  0.0861
 6029TIP3    H218052   2.181   5.410   1.870 -1.9937 -0.1634 -0.5550
 6030TIP3   OH218053   2.690   0.099   4.278  0.0281  0.3490  0.0704
 6030TIP3    H118054   2.599   0.096   4.249  0.3179 -2.1148 -0.8050
 6030TIP3    H218055   2.737   0.044   4.215  2.0114  0.9991  0.9064
 6031TIP3   OH218056   2.590   1.418   2.838  0.4278 -0.0142  0.0712
 6031TIP3    H118057   2.557   1.503   2.866  0.0341  0.4506 -1.6724
 6031TIP3    H218058   2.561   1.357   2.906 -0.6795  1.0127  0.5451
 6032TIP3   OH218059   3.931   2.081   5.641  0.5678  0.2095 -0.2241
 6032TIP3    H118060   3.921   2.110   5.550  1.2913 -1.0434 -0.7213
 6032TIP3    H218061   3.882   1.999   5.646  1.1480 -0.1113  0.3262
 6033TIP3   OH218062   4.842   5.633   2.365  0.2480  0.0816 -0.0313
 6033TIP3    H118063   4.905   5.563   2.382  0.4079  0.1807 -0.2199
 6033TIP3    H218064   4.870   5.704   2.424 -1.6618 -1.0407  2.4129
 6034TIP3   OH218065   6.314   6.563   5.027  0.5779 -0.0136  0.0151
 6034TIP3    H118066   6.257   6.487   5.015 -0.1347  0.6543 -1.0270
 6034TIP3    H218067   6.399   6.535   4.994  0.0900 -0.0891 -1.2086
 6035TIP3   OH218068   0.593   5.935   3.031  0.0247  0.0763  0.7254
 6035TIP3    H118069   0.600   6.020   3.075 -0.1573 -0.0583  1.0194
 6035TIP3    H218070   0.594   5.871   3.103  2.9777 -0.3548  0.4222
 6036TIP3   OH218071   4.650   6.697   5.212  0.3068 -0.6676 -0.1443
 6036TIP3    H118072   4.682   6.767   5.268 -1.7639  1.1218 -1.0644
 6036TIP3    H218073   4.726   6.673   5.159  0.7466  1.9824 -0.8687
 6037TIP3   OH218074   4.980   2.856   5.445  0.9749 -0.2246 -0.3823
 6037TIP3    H118075   5.066   2.891   5.470  0.4424  0.9836 -0.1536
 6037TIP3    H218076   4.999   2.794   5.375  2.2206 -1.4846  1.0062
 6038TIP3   OH218077   0.672   5.402   2.445  0.3293  0.1784  0.6458
 6038TIP3    H118078   0.695   5.458   2.370  1.6793  0.1829  1.0339
 6038TIP3    H218079   0.596   5.444   2.484 -0.2232  0.3418 -0.5388
 6039TIP3   OH218080   6.709   6.435   1.442  0.3196  0.3364 -0.2460
 6039TIP3    H118081   6.735   6.523   1.468 -0.7720 -0.0437  2.3860
 6039TIP3    H218082   6.634   6.449   1.383  0.2813  1.1588 -0.0160
 6040TIP3   OH218083   6.633   3.030   0.351 -0.2832  0.1861 -0.8042
 6040TIP3    H118084   6.551   2.985   0.374  0.2906  0.1527  1.4187
 6040TIP3    H218085   6.668   2.979   0.278 -1.7987 -0.3439 -1.2044
 6041TIP3   OH218086   5.536   3.699   5.473 -0.0820 -0.0724  0.9226
 6041TIP3    H118087   5.441   3.706   5.472 -0.0324  3.5620 -2.2692
 6041TIP3    H218088   5.566   3.780   5.515  1.4138  0.9100 -1.7084
 6042TIP3   OH218089   2.419   3.685   4.675 -0.3203  0.0915  0.6437
 6042TIP3    H118090   2.439   3.774   4.705 -1.1058  0.4356  0.1947
 6042TIP3    H218091   2.330   3.692   4.640  1.2010  0.2761 -3.7650
 6043TIP3   OH218092   3.938   6.355   2.916 -0.0605  0.1754  0.4967
 6043TIP3    H118093   3.966   6.423   2.978 -2.5064  0.3190  1.5650
 6043TIP3    H218094   3.884   6.402   2.852 -3.4802 -0.8712  2.3830
 6044TIP3   OH218095   5.182   2.314   1.664 -0.0748  0.0259 -0.2107
 6044TIP3    H118096   5.263   2.272   1.694 -0.1147 -0.7031 -1.0849
 6044TIP3    H218097   5.119   2.295   1.733  0.2400 -0.2710  0.0006
 6045TIP3   OH218098   6.272   4.693   4.960 -0.1939 -0.1733 -0.4189
 6045TIP3    H118099   6.261   4.768   4.901  0.3205  0.0471 -0.2407
 6045TIP3    H218100   6.343   4.719   5.019  0.2712 -0.9744 -0.6211
 6046TIP3   OH218101   1.076   3.061   2.803  0.0461 -0.1084  0.7542
 6046TIP3    H118102   0.998   3.018   2.838 -0.2740 -0.0726  0.0963
 6046TIP3    H218103   1.069   3.152   2.834  0.2401 -0.2889  1.3535
 6047TIP3   OH218104   1.829   2.401   0.098  0.7075 -0.9801  0.0710
 6047TIP3    H118105   1.784   2.481   0.123  0.2479 -0.3258 -2.5439
 6047TIP3    H218106   1.770   2.330   0.124 -0.0280 -0.3231  0.2179
 6048TIP3   OH218107   6.448   6.535   2.376  0.1483  0.6989 -0.3030
 6048TIP3    H118108   6.438   6.615   2.324  0.7387 -0.4223 -2.2500
 6048TIP3    H218109   6.431   6.464   2.314  0.7531 -0.7181  1.0829
 6049TIP3   OH218110   5.648   2.101   4.415  0.1863 -0.8369  0.1608
 6049TIP3    H118111   5.577   2.105   4.352  0.2746  4.4319 -0.0567
 6049TIP3    H218112   5.728   2.096   4.362  0.1272 -2.0147  0.1723
 6050TIP3   OH218113   3.087   2.920   0.477  0.4190  0.3572 -0.2905
 6050TIP3    H118114   3.142   2.940   0.552  0.0074  0.2152  0.0542
 6050TIP3    H218115   2.999   2.913   0.513 -0.0117  1.7166 -1.0052
 6051TIP3   OH218116   4.312   2.017   3.570  0.0492 -0.3022 -0.3707
 6051TIP3    H118117   4.280   1.985   3.486  0.7107 -1.5455 -0.1682
 6051TIP3    H218118   4.403   1.986   3.574 -0.2385 -1.0234  1.1811
 6052TIP3   OH218119   3.546   3.234   3.955  0.0307  0.3325 -0.3800
 6052TIP3    H118120   3.472   3.272   3.907 -0.7280 -0.6666 -0.0202
 6052TIP3    H218121   3.508   3.163   4.007  1.3463 -0.6471 -0.7054
 6053TIP3   OH218122   3.231   4.974   0.676  0.5845  0.2556 -0.3885
 6053TIP3    H118123   3.141   4.948   0.654  0.6931 -1.3151  0.9332
 6053TIP3    H218124   3.226   5.070   0.683 -0.6617  0.3277 -1.6847
 6054TIP3   OH218125   2.960   1.496   0.196  0.1589 -0.2167  0.5122
 6054TIP3    H118126   2.963   1.487   0.291 -0.5930 -0.2764  0.5377
 6054TIP3    H218127   3.047   1.470   0.167  0.9376  1.3713  1.2996
 6055TIP3   OH218128   1.910   5.189   4.472 -0.3587  0.5455  0.2862
 6055TIP3    H118129   1.830   5.218   4.516 -0.6928 -0.4201  0.3430
 6055TIP3    H218130   1.898   5.094   4.461 -0.2161  0.7090 -1.7383
 6056TIP3   OH218131   7.176   6.101   3.262  0.1266 -0.2714  0.4956
 6056TIP3    H118132   7.082   6.104   3.280  0.1678 -0.6029  0.7763
 6056TIP3    H218133   7.211   6.040   3.327  0.0891 -2.6757 -1.6029
 6057TIP3   OH218134   0.578   6.188   4.792  0.1571  0.2759  0.4750
 6057TIP3    H118135   0.541   6.267   4.752  1.4838  1.0436  0.7120
 6057TIP3    H218136   0.673   6.204   4.795  0.2065 -0.0166  3.3063
 6058TIP3   OH218137   3.042   0.599   4.696 -0.6036 -0.2194  0.1376
 6058TIP3    H118138   3.119   0.633   4.650 -0.4426 -0.4234  0.2527
 6058TIP3    H218139   2.984   0.569   4.626 -0.7597  0.3098  0.0327
 6059TIP3   OH218140   4.838   3.300   4.697 -0.0569  0.1195  0.5147
 6059TIP3    H118141   4.875   3.231   4.643  0.1868  1.0149 -0.5048
 6059TIP3    H218142   4.842   3.266   4.787  1.9735 -0.3695  0.2846
 6060TIP3   OH218143   1.851   6.565   0.960  0.2515  0.0709  0.1583
 6060TIP3    H118144   1.798   6.503   1.012  0.1486  1.8542  2.3290
 6060TIP3    H218145   1.786   6.621   0.918  0.3762 -0.1296 -0.3032
 6061TIP3   OH218146   2.849   4.185   0.927 -0.9426 -0.6438 -0.1507
 6061TIP3    H118147   2.800   4.262   0.900 -0.7449 -0.3663  0.2783
 6061TIP3    H218148   2.810   4.113   0.877 -0.7215 -0.1718 -1.0031
 6062TIP3   OH218149   0.426   0.800   5.165 -0.0867 -0.9869 -0.3160
 6062TIP3    H118150   0.373   0.841   5.234  0.0919 -0.7540 -0.3140
 6062TIP3    H218151   0.447   0.873   5.106  1.4814 -0.7713  0.4670
 6063TIP3   OH218152   0.793   6.173   4.538 -0.3982 -0.3402  0.9450
 6063TIP3    H118153   0.861   6.108   4.523 -1.0201 -1.4135  2.5137
 6063TIP3    H218154   0.828   6.228   4.608  0.0171  0.9094 -0.1958
 6064TIP3   OH218155   5.635   4.083   1.300 -0.8006  0.6717  0.4804
 6064TIP3    H118156   5.607   4.119   1.215 -0.6974  1.0172  0.5934
 6064TIP3    H218157   5.564   4.105   1.360 -2.1117 -1.7795 -0.0361
 6065TIP3   OH218158   3.111   1.193   5.663 -0.2482 -0.1053  0.0963
 6065TIP3    H118159   3.132   1.109   5.704 -1.0441 -0.2464  0.2374
 6065TIP3    H218160   3.126   1.258   5.733 -0.3195 -0.2063  0.2064
 6066TIP3   OH218161   6.365   6.382   5.594  0.0556 -0.1781  0.2596
 6066TIP3    H118162   6.276   6.370   5.561 -0.6932 -0.2933  2.1614
 6066TIP3    H218163   6.390   6.295   5.627  0.7501 -0.0708  0.0289
 6067TIP3   OH218164   4.089   5.206   2.329 -0.6294  0.5434 -0.0642
 6067TIP3    H118165   4.080   5.282   2.386 -0.3452 -0.2094  1.0326
 6067TIP3    H218166   4.127   5.240   2.248 -1.3421  1.6921  0.0713
 6068TIP3   OH218167   0.495   6.408   4.640 -0.0510 -0.1502 -0.1372
 6068TIP3    H118168   0.539   6.475   4.693  0.6139 -1.4577  1.0341
 6068TIP3    H218169   0.403   6.414   4.667 -0.6062  2.2365 -2.2119
 6069TIP3   OH218170   2.168   6.197   2.036  0.1228  0.5080  0.6551
 6069TIP3    H118171   2.173   6.210   1.941  1.8285 -2.9924  0.0965
 6069TIP3    H218172   2.077   6.175   2.053  0.1151 -0.4718 -0.5018
 6070TIP3   OH218173   2.874   5.223   0.848 -0.4343 -0.3093  0.4607
 6070TIP3    H118174   2.797   5.186   0.806  0.7282 -1.4466 -0.7817
 6070TIP3    H218175   2.917   5.275   0.779 -0.4258  0.8749  1.3247
 6071TIP3   OH218176   3.257   0.994   1.150 -0.1691 -0.0642 -0.0658
 6071TIP3    H118177   3.258   0.964   1.241  1.0934  2.6020  0.9018
 6071TIP3    H218178   3.342   0.967   1.116 -0.4091 -0.5464 -0.2958
 6072TIP3   OH218179   0.192   0.067   2.103 -0.1367 -0.6118 -0.4136
 6072TIP3    H118180   0.237   0.151   2.110  0.9592 -1.2189  0.1384
 6072TIP3    H218181   0.104   0.083   2.137 -0.4270  0.6473 -1.6899
 6073TIP3   OH218182   5.875   0.212   0.202  0.6449 -0.5649 -0.2809
 6073TIP3    H118183   5.798   0.249   0.159  1.8381 -0.6326 -2.6927
 6073TIP3    H218184   5.845   0.127   0.235  0.1607 -1.7981 -3.4617
 6074TIP3   OH218185   4.554   2.646   2.523 -0.9255  0.1860  0.1813
 6074TIP3    H118186   4.566   2.552   2.537  0.4598  0.3700  0.3727
 6074TIP3    H218187   4.574   2.686   2.607 -1.5367  0.6661  0.1116
 6075TIP3   OH218188   6.726   4.551   0.478  0.5035 -0.6301  0.0820
 6075TIP3    H118189   6.762   4.564   0.390 -0.3270 -0.5607 -0.2526
 6075TIP3    H218190   6.635   4.527   0.464 -0.2826  1.5244  0.9724
 6076TIP3   OH218191   0.198   1.072   0.199  0.1505 -0.3634 -0.2938
 6076TIP3    H118192   0.109   1.050   0.228  0.2038  0.7611  0.7989
 6076TIP3    H218193   0.201   1.042   0.109 -1.0431 -1.2365 -0.0780
 6077TIP3   OH218194   6.179   4.002   3.907 -0.1654  0.3028 -0.1940
 6077TIP3    H118195   6.231   3.964   3.978 -1.1601 -0.8034 -0.0374
 6077TIP3    H218196   6.096   4.025   3.947 -1.1527 -1.3351 -1.1852
 6078TIP3   OH218197   4.477   0.588   2.122  0.1216  0.0584 -0.2957
 6078TIP3    H118198   4.419   0.634   2.182  1.1413  1.0958 -0.0740
 6078TIP3    H218199   4.551   0.647   2.109  0.5943 -0.7393 -1.4731
 6079TIP3   OH218200   4.067   0.835   0.841  0.3973 -0.1746 -0.4351
 6079TIP3    H118201   4.149   0.837   0.791 -1.1544 -0.3795 -3.2316
 6079TIP3    H218202   4.022   0.916   0.816 -0.8131 -0.6944 -0.0311
 6080TIP3   OH218203   3.056   1.563   4.532 -0.0963  0.4113  0.2734
 6080TIP3    H118204   3.135   1.594   4.487  1.1411 -0.0262  2.0635
 6080TIP3    H218205   3.072   1.581   4.624 -1.5781 -0.8192  0.8047
 6081TIP3   OH218206   1.727   1.351   2.089  0.0752  0.0745  0.1309
 6081TIP3    H118207   1.708   1.329   1.998  1.5670 -0.4244 -0.0816
 6081TIP3    H218208   1.694   1.440   2.098 -0.1193  0.1288 -0.9046
 6082TIP3   OH218209   4.389   6.546   2.347  0.4335 -0.2571 -0.3173
 6082TIP3    H118210   4.303   6.587   2.341  0.6493  0.3043  0.2794
 6082TIP3    H218211   4.430   6.566   2.263  0.0523 -0.3717 -0.5338
 6083TIP3   OH218212   3.018   6.747   4.784 -0.0461 -0.4630  0.1991
 6083TIP3    H118213   3.085   6.752   4.716 -0.0171  2.9706  0.3150
 6083TIP3    H218214   2.935   6.752   4.737 -0.1142 -0.7776  0.2823
 6084TIP3   OH218215   1.209   0.569   1.947 -0.1671  0.4781 -0.0312
 6084TIP3    H118216   1.167   0.518   2.016  1.0000  0.0967  0.4231
 6084TIP3    H218217   1.224   0.655   1.986 -1.2994  0.8911 -0.4868
 6085TIP3   OH218218   4.574   4.300   3.034  0.1723 -0.3824 -0.1749
 6085TIP3    H118219   4.639   4.233   3.012  0.7058 -0.1841  0.7202
 6085TIP3    H218220   4.561   4.290   3.129 -2.9416 -2.0609 -0.6229
 6086TIP3   OH218221   0.307   5.087   0.229 -0.0746  0.2254 -0.4628
 6086TIP3    H118222   0.355   5.062   0.150 -0.7910 -0.0680 -0.8172
 6086TIP3    H218223   0.298   5.182   0.223  0.9174  0.3542 -0.1186
 6087TIP3   OH218224   1.368   6.278   0.975  0.3871  0.3732  0.2132
 6087TIP3    H118225   1.393   6.323   1.056 -0.3415 -0.5967  0.9950
 6087TIP3    H218226   1.337   6.348   0.917 -1.7154  0.8118  1.7743
 6088TIP3   OH218227   6.425   1.716   0.664 -0.2570  0.0331 -0.4905
 6088TIP3    H118228   6.425   1.755   0.751  0.2109  0.3990 -0.6496
 6088TIP3    H218229   6.347   1.752   0.621  0.6016  1.4530 -0.9153
 6089TIP3   OH218230   7.185   2.524   4.400  0.4916 -0.1030  0.4208
 6089TIP3    H118231   7.227   2.489   4.479  0.9635 -0.0985  0.1740
 6089TIP3    H218232   7.134   2.599   4.431  1.1327  0.2472  0.6344
 6090TIP3   OH218233   3.575   0.840   4.434 -0.2836 -0.2307 -0.0705
 6090TIP3    H118234   3.644   0.896   4.470  0.9438 -0.9192 -1.2578
 6090TIP3    H218235   3.610   0.809   4.351  0.2450 -4.8219  1.5642
 6091TIP3   OH218236   4.188   0.925   2.922 -0.1558 -0.4045  0.0215
 6091TIP3    H118237   4.248   0.999   2.925 -0.7734  0.1373 -0.5875
 6091TIP3    H218238   4.123   0.945   2.989  0.9292 -1.5413  1.4797
 6092TIP3   OH218239   2.882   4.606   2.762  0.3201  0.4558  0.0541
 6092TIP3    H118240   2.907   4.520   2.795  2.6135  0.7373 -0.7853
 6092TIP3    H218241   2.791   4.596   2.735  0.1098 -1.3047  1.2507
 6093TIP3   OH218242   0.809   4.158   4.064 -0.3230  0.5232 -0.0117
 6093TIP3    H118243   0.878   4.217   4.096  0.4281 -0.1253 -0.4084
 6093TIP3    H218244   0.780   4.197   3.982 -1.2512  1.4176  0.7182
 6094TIP3   OH218245   3.194   0.572   0.243 -0.2981 -0.0940 -0.4223
 6094TIP3    H118246   3.212   0.505   0.310  3.8734 -0.2211 -1.3574
 6094TIP3    H218247   3.216   0.655   0.286 -0.1706  0.0982 -0.8545
 6095TIP3   OH218248   1.617   1.598   0.185  0.3976  0.2903 -0.5634
 6095TIP3    H118249   1.683   1.665   0.200  0.5128  0.0350  0.0681
 6095TIP3    H218250   1.654   1.518   0.221 -0.4144  0.2218  0.1462
 6096TIP3   OH218251   2.096   0.985   4.195  0.5767 -0.0291  0.4237
 6096TIP3    H118252   2.058   1.047   4.257 -2.3394 -1.6400  0.4304
 6096TIP3    H218253   2.122   0.910   4.248  2.1557  0.2920  0.1590
 6097TIP3   OH218254   5.142   5.907   2.756 -0.1473  0.2727  0.9028
 6097TIP3    H118255   5.127   5.851   2.680 -1.9143  1.7157  0.1029
 6097TIP3    H218256   5.057   5.912   2.800  0.4175  0.8661  1.9820
 6098TIP3   OH218257   5.079   4.423   2.552  0.9640  0.4747 -0.3142
 6098TIP3    H118258   5.132   4.355   2.511 -0.5050 -0.8340 -0.1363
 6098TIP3    H218259   5.033   4.466   2.479 -1.3526 -1.5972 -0.2030
 6099TIP3   OH218260   3.388   0.781   3.168 -0.3610  0.0084  0.1003
 6099TIP3    H118261   3.464   0.776   3.110 -1.1500 -0.0363 -0.9633
 6099TIP3    H218262   3.350   0.693   3.165 -0.6789  0.1370  0.3124
 6100TIP3   OH218263   1.786   4.803   4.728 -0.3597 -0.9086 -0.7903
 6100TIP3    H118264   1.803   4.870   4.794 -0.0568 -0.2335 -1.5407
 6100TIP3    H218265   1.770   4.723   4.778 -0.6969 -0.2825  0.1144
 6101TIP3   OH218266   4.939   6.198   5.260 -0.3672  0.1525 -0.1190
 6101TIP3    H118267   4.929   6.107   5.287  0.8858 -0.7594 -2.4263
 6101TIP3    H218268   4.976   6.242   5.336  0.8086 -1.7217  0.4713
 6102TIP3   OH218269   1.503   3.371   2.206 -0.6365 -0.3466 -0.2833
 6102TIP3    H118270   1.438   3.312   2.167  0.2489  0.2681 -2.8273
 6102TIP3    H218271   1.485   3.457   2.168 -0.0938  0.4627  1.1728
 6103TIP3   OH218272   5.779   2.545   4.421  0.2811  0.5772 -0.1073
 6103TIP3    H118273   5.725   2.528   4.344  0.3923  2.5956 -0.6847
 6103TIP3    H218274   5.721   2.592   4.481  0.7715  0.8170  0.1864
 6104TIP3   OH218275   5.110   0.211   3.274 -0.7935 -0.6505  0.1739
 6104TIP3    H118276   5.095   0.238   3.365 -0.2218 -1.1871  0.4275
 6104TIP3    H218277   5.158   0.285   3.235 -0.1029 -0.8666  0.6012
 6105TIP3   OH218278   4.966   3.812   0.691  0.1782  0.3175  0.2173
 6105TIP3    H118279   4.893   3.759   0.723 -0.1014 -0.1288 -1.0841
 6105TIP3    H218280   4.934   3.848   0.608  0.6457  1.9154  0.6983
 6106TIP3   OH218281   4.208   0.639   0.256  0.3471 -0.9444 -1.0755
 6106TIP3    H118282   4.192   0.624   0.349  1.2141 -2.9785 -1.2158
 6106TIP3    H218283   4.183   0.731   0.242  3.6220  0.6490  1.9383
 6107TIP3   OH218284   3.022   2.129   0.309  0.3940 -0.4168 -0.4303
 6107TIP3    H118285   2.984   2.209   0.346 -0.0765 -0.4353 -0.8649
 6107TIP3    H218286   3.020   2.143   0.215  3.4600  0.4990 -0.4574
 6108TIP3   OH218287   5.963   2.447   3.817 -0.0455  0.1335 -0.2755
 6108TIP3    H118288   6.035   2.496   3.777  1.1829 -0.3100  1.2694
 6108TIP3    H218289   5.989   2.355   3.808 -0.1355 -0.0059  0.7855
 6109TIP3   OH218290   4.053   2.032   2.202  0.1250 -0.0534  0.2151
 6109TIP3    H118291   4.033   2.114   2.247  0.2863 -0.8653  1.8187
 6109TIP3    H218292   3.985   1.971   2.232  0.4075 -0.7036 -0.4342
 6110TIP3   OH218293   0.192   5.705   5.850 -0.5712 -0.6538 -0.0009
 6110TIP3    H118294   0.203   5.759   5.928  1.2898  0.4524 -0.9613
 6110TIP3    H218295   0.228   5.620   5.875  0.9695 -0.0158  0.1014
 6111TIP3   OH218296   0.317   0.688   3.837  0.1274 -0.1543 -0.3440
 6111TIP3    H118297   0.401   0.643   3.844 -0.2755 -1.1900 -1.7224
 6111TIP3    H218298   0.262   0.628   3.786 -0.5173  1.7961 -2.0929
 6112TIP3   OH218299   0.506   4.835   1.724  0.1163  0.7702  0.5998
 6112TIP3    H118300   0.566   4.763   1.745 -3.3281 -1.9969  2.0683
 6112TIP3    H218301   0.519   4.850   1.630 -0.1049 -3.1473 -0.2642
 6113TIP3   OH218302   1.721   3.829   2.103  0.0596 -0.3535  0.1492
 6113TIP3    H118303   1.801   3.879   2.121 -0.9230  2.6199 -2.7110
 6113TIP3    H218304   1.652   3.877   2.148 -0.6507 -0.3019 -0.9605
 6114TIP3   OH218305   4.345   2.092   1.637 -0.0940  0.2125 -0.2852
 6114TIP3    H118306   4.251   2.101   1.654  0.0814 -0.7633  1.4727
 6114TIP3    H218307   4.364   2.159   1.572 -2.3649 -0.8350 -2.1704
 6115TIP3   OH218308   5.677   5.075   1.647  0.6606 -0.2176  0.3020
 6115TIP3    H118309   5.612   5.006   1.630  0.1908  0.2810  0.0291
 6115TIP3    H218310   5.729   5.042   1.720 -1.3776  0.3308  2.1393
 6116TIP3   OH218311   6.932   4.556   3.645 -0.3268  0.0341 -0.0795
 6116TIP3    H118312   6.868   4.579   3.577  0.4556 -0.3276 -0.9586
 6116TIP3    H218313   6.880   4.513   3.712 -1.1785  0.7153 -0.2746
 6117TIP3   OH218314   0.574   6.717   2.330  0.5282  0.3425  0.2243
 6117TIP3    H118315   0.496   6.734   2.383  0.5590  1.2390 -0.0007
 6117TIP3    H218316   0.539   6.698   2.243  0.5132 -0.4068  0.3865
 6118TIP3   OH218317   0.582   2.573   3.796  0.7227  0.0512  0.4478
 6118TIP3    H118318   0.503   2.546   3.750  0.6676 -0.7508  0.9809
 6118TIP3    H218319   0.555   2.647   3.849  0.0510 -0.8564  1.4123
 6119TIP3   OH218320   2.843   5.987   1.344 -0.1013  0.1051 -0.3954
 6119TIP3    H118321   2.849   5.906   1.292  1.2118  0.6478 -1.1210
 6119TIP3    H218322   2.773   5.969   1.406  0.0897 -1.5660 -0.6055
 6120TIP3   OH218323   6.077   2.084   4.315 -0.2213 -0.6497  0.0919
 6120TIP3    H118324   6.007   2.025   4.286  0.7946 -0.3352 -3.4876
 6120TIP3    H218325   6.059   2.166   4.270  0.8335  0.4114  1.5206
 6121TIP3   OH218326   3.450   1.190   2.333 -0.3232 -0.2751  0.2286
 6121TIP3    H118327   3.467   1.123   2.400 -1.9029 -1.6181 -0.6419
 6121TIP3    H218328   3.359   1.175   2.307 -0.0146  0.7737 -1.6047
 6122TIP3   OH218329   3.509   1.333   0.843  0.2041  0.6760  0.3903
 6122TIP3    H118330   3.548   1.246   0.836 -0.2184  0.5014  0.1245
 6122TIP3    H218331   3.516   1.369   0.754  1.0140  1.1946  0.6589
 6123TIP3   OH218332   5.331   4.295   0.034  0.4302 -0.4333  0.0689
 6123TIP3    H118333   5.310   4.205   0.008  0.7817 -0.3274 -0.6252
 6123TIP3    H218334   5.247   4.340   0.034 -0.0011 -1.1479  2.0970
 6124TIP3   OH218335   6.465   3.769   3.317 -0.2710 -0.3431  1.0937
 6124TIP3    H118336   6.512   3.845   3.352 -0.5235  0.7633 -0.8423
 6124TIP3    H218337   6.406   3.743   3.387 -0.0752  1.1669  1.8644
 6125TIP3   OH218338   0.617   1.587   1.731  0.0676 -0.3286 -0.2565
 6125TIP3    H118339   0.710   1.582   1.709 -0.1941  1.7706 -2.1686
 6125TIP3    H218340   0.573   1.541   1.659 -0.4173 -0.9338  0.4108
 6126TIP3   OH218341   6.054   3.697   5.244 -0.2849  0.7198 -0.0369
 6126TIP3    H118342   5.969   3.681   5.286 -0.5369 -0.6769 -1.0036
 6126TIP3    H218343   6.118   3.687   5.315 -0.7731 -0.5552  0.2623
 6127TIP3   OH218344   4.005   2.106   5.903  0.2039 -0.3270 -0.0857
 6127TIP3    H118345   3.989   2.096   5.809  0.0165  0.1112 -0.1059
 6127TIP3    H218346   4.016   2.017   5.935 -2.0091 -0.6815 -0.1372
 6128TIP3   OH218347   4.446   6.383   2.910  0.8938  0.1232  0.0583
 6128TIP3    H118348   4.426   6.335   2.990  2.0636 -4.4903 -2.0947
 6128TIP3    H218349   4.541   6.396   2.913  0.7729  1.1591 -0.0461
 6129TIP3   OH218350   1.075   0.436   5.218  0.5299  0.4198 -0.6936
 6129TIP3    H118351   1.083   0.360   5.160  0.7259 -1.3770  1.5620
 6129TIP3    H218352   1.028   0.403   5.295 -1.3012  3.1405 -0.5055
 6130TIP3   OH218353   1.901   5.759   1.063  0.0159 -0.3651  0.1470
 6130TIP3    H118354   1.899   5.676   1.015 -2.1005  0.1813 -0.7970
 6130TIP3    H218355   1.813   5.768   1.100 -0.2842  2.1544 -1.0079
 6131TIP3   OH218356   2.210   3.829   4.264  0.1260  0.1206 -0.2779
 6131TIP3    H118357   2.188   3.850   4.355  0.5753 -2.7750  0.5975
 6131TIP3    H218358   2.127   3.836   4.217 -0.6137 -0.6142  0.8638
 6132TIP3   OH218359   1.693   6.786   1.112 -0.4327  0.6389  0.4394
 6132TIP3    H118360   1.695   6.743   1.027  2.1488  0.0664  0.7291
 6132TIP3    H218361   1.777   6.832   1.119 -0.7607  1.0542  2.4942
 6133TIP3   OH218362   2.320   0.581   2.135  0.1315  0.3029 -0.4529
 6133TIP3    H118363   2.406   0.622   2.132  0.5724 -0.5980 -0.5216
 6133TIP3    H218364   2.301   0.573   2.229  0.8003 -0.8346 -0.3932
 6134TIP3   OH218365   5.007   5.032   1.121 -0.3701 -0.2346 -0.4810
 6134TIP3    H118366   4.951   5.074   1.056  0.3106  3.0995  0.8948
 6134TIP3    H218367   4.961   5.046   1.204  0.3114 -1.5955  0.1500
 6135TIP3   OH218368   5.197   0.645   5.108  0.5400 -0.4194 -0.3063
 6135TIP3    H118369   5.114   0.692   5.105 -0.2327 -1.6669  0.7736
 6135TIP3    H218370   5.258   0.702   5.060 -0.6430  1.0783 -0.1152
 6136TIP3   OH218371   5.654   0.484   2.755 -0.7954 -0.3820  0.1116
 6136TIP3    H118372   5.747   0.464   2.765 -1.1334 -2.0233  0.1800
 6136TIP3    H218373   5.650   0.580   2.758  0.9863 -0.2318 -0.7884
 6137TIP3   OH218374  -0.030   3.855   1.813 -0.2075  0.5177  0.0627
 6137TIP3    H118375   0.015   3.832   1.894  0.8016 -1.1910 -0.9223
 6137TIP3    H218376   0.040   3.866   1.749 -1.0499  0.7582 -0.8430
 6138TIP3   OH218377   4.545   0.681   0.543 -0.9668  0.0535  0.2590
 6138TIP3    H118378   4.542   0.626   0.465  2.0471 -2.0943  1.4714
 6138TIP3    H218379   4.577   0.765   0.512 -2.2187  0.0573 -1.1306
 6139TIP3   OH218380   2.882   6.795   3.974 -0.4768  0.1568 -0.3734
 6139TIP3    H118381   2.925   6.731   3.917 -0.3414  2.4590 -3.0690
 6139TIP3    H218382   2.806   6.748   4.008  0.2180 -1.7902 -1.3073
 6140TIP3   OH218383   2.642   4.398   0.405  0.0432 -0.4427 -0.9672
 6140TIP3    H118384   2.628   4.327   0.468 -1.2564 -1.7237 -2.6199
 6140TIP3    H218385   2.566   4.395   0.347  0.2973  1.8844 -1.5197
 6141TIP3   OH218386   2.754   2.902   1.950  0.0327  0.3546  0.3474
 6141TIP3    H118387   2.693   2.901   1.876 -0.1887 -1.5279  0.5143
 6141TIP3    H218388   2.698   2.886   2.026  0.6374 -0.6720  0.5806
 6142TIP3   OH218389   4.108   2.527   5.480  0.2187 -0.7047 -0.3947
 6142TIP3    H118390   4.065   2.473   5.414 -0.6654 -1.9230  1.1108
 6142TIP3    H218391   4.127   2.467   5.551 -1.6183  1.0596  1.7375
 6143TIP3   OH218392   0.045   2.660   3.619 -0.0373  0.0771 -0.4207
 6143TIP3    H118393  -0.007   2.734   3.587 -0.8604  0.9819  2.6537
 6143TIP3    H218394   0.002   2.635   3.702  1.5096 -2.4456 -0.2801
 6144TIP3   OH218395   0.771   4.218   5.880 -0.0746  0.1629 -0.2562
 6144TIP3    H118396   0.854   4.265   5.889  0.3453 -0.2526 -1.6714
 6144TIP3    H218397   0.718   4.273   5.822  0.1387 -0.7198 -1.3170
 6145TIP3   OH218398   2.912   6.693   0.141  0.3007 -0.4475 -0.0237
 6145TIP3    H118399   2.956   6.742   0.210 -1.4943  0.3605  0.5988
 6145TIP3    H218400   2.959   6.610   0.136  1.4727  0.1286  1.0257
 6146TIP3   OH218401   0.389   4.015   5.205  0.4495 -0.8823 -0.5984
 6146TIP3    H118402   0.355   3.983   5.289  1.5635  0.8928  0.6124
 6146TIP3    H218403   0.325   4.081   5.177 -0.1547 -1.7841 -1.4203
 6147TIP3   OH218404   3.789   4.213   3.815 -0.1389 -0.1929  0.0376
 6147TIP3    H118405   3.821   4.123   3.808 -0.4614 -0.5693  2.5129
 6147TIP3    H218406   3.861   4.267   3.784 -0.0217 -1.2498 -1.7232
 6148TIP3   OH218407   2.111   3.693   3.532  0.2746 -0.0538  0.8218
 6148TIP3    H118408   2.158   3.776   3.523 -0.1868  0.1721  0.4233
 6148TIP3    H218409   2.123   3.668   3.623 -0.7486  1.1737  1.3236
 6149TIP3   OH218410   4.795   1.369   4.947  0.3063  0.1974 -0.2239
 6149TIP3    H118411   4.859   1.327   5.005  0.5183 -1.0311 -1.3026
 6149TIP3    H218412   4.782   1.456   4.985  2.1228  0.2435  0.4008
 6150TIP3   OH218413   2.682   1.779   3.599 -0.4532 -0.9091  0.4673
 6150TIP3    H118414   2.661   1.711   3.664 -2.0333  1.0055  2.0903
 6150TIP3    H218415   2.702   1.856   3.650 -0.2480  0.2951 -1.3349
 6151TIP3   OH218416   3.021   4.758   3.895 -0.1951  0.5360 -0.0900
 6151TIP3    H118417   2.987   4.760   3.984  0.9278  0.9793  0.3444
 6151TIP3    H218418   3.046   4.849   3.876  0.0853  0.3533 -0.6436
 6152TIP3   OH218419   2.178   3.263   5.709  0.0851  0.2794  0.1181
 6152TIP3    H118420   2.121   3.202   5.755  1.1034 -0.5355  0.3314
 6152TIP3    H218421   2.263   3.254   5.752  0.1485  2.2221  0.4871
 6153TIP3   OH218422   6.591   4.306   1.340  0.5854  0.4051  0.9252
 6153TIP3    H118423   6.541   4.387   1.331 -0.7470 -0.1741  2.6146
 6153TIP3    H218424   6.682   4.334   1.346  0.4594  1.5454 -1.4016
 6154TIP3   OH218425   6.295   1.410   4.746  0.8456 -0.2894 -0.2133
 6154TIP3    H118426   6.351   1.470   4.796 -0.4972  1.0288 -0.2321
 6154TIP3    H218427   6.337   1.325   4.756  1.0058  0.0163  2.6434
 6155TIP3   OH218428   1.825   1.915   1.897  0.0506  0.7671  0.7305
 6155TIP3    H118429   1.751   1.925   1.837 -0.2680  0.3273  1.0437
 6155TIP3    H218430   1.902   1.912   1.840 -0.4084 -1.9809  0.0968
 6156TIP3   OH218431   7.222   4.426   5.434 -0.6289  0.3250  0.3258
 6156TIP3    H118432   7.171   4.385   5.364  2.4633 -1.3290 -1.1393
 6156TIP3    H218433   7.228   4.518   5.408 -0.7503  0.0186 -0.8341
 6157TIP3   OH218434   4.074   3.657   2.299  0.5396  0.2039 -0.0633
 6157TIP3    H118435   4.058   3.589   2.365 -0.9726  0.1771 -0.4133
 6157TIP3    H218436   4.121   3.726   2.345 -0.6635  0.2691  1.1279
 6158TIP3   OH218437   6.148   1.716   5.020  0.2857  0.0002  0.0149
 6158TIP3    H118438   6.081   1.763   4.972  0.2630  0.3339  0.3663
 6158TIP3    H218439   6.160   1.766   5.101 -0.8149 -1.3876  1.0991
 6159TIP3   OH218440   2.901   3.844   4.551  0.1916 -0.0858 -0.4720
 6159TIP3    H118441   2.806   3.847   4.555  0.1020 -1.4524 -1.1743
 6159TIP3    H218442   2.924   3.753   4.570  1.2010 -0.2958 -2.4056
 6160TIP3   OH218443   2.458   4.704   4.184  0.0636 -0.5723  0.1347
 6160TIP3    H118444   2.437   4.638   4.250  2.0157 -1.3533  0.0501
 6160TIP3    H218445   2.434   4.664   4.101 -2.5253  0.4646  0.2803
 6161TIP3   OH218446   2.184   6.643   5.729  0.5952  0.8264 -0.0537
 6161TIP3    H118447   2.209   6.552   5.746  0.8108  0.7064 -0.9336
 6161TIP3    H218448   2.159   6.678   5.814  2.3244  0.4993  0.6201
 6162TIP3   OH218449   2.182   5.623   0.395 -0.0588 -0.1000  0.0968
 6162TIP3    H118450   2.211   5.655   0.481 -1.0882 -1.6558  1.0708
 6162TIP3    H218451   2.198   5.529   0.398 -1.1138 -0.3309 -0.9940
 6163TIP3   OH218452   5.347   5.739   0.608 -0.0699  0.3103  0.4700
 6163TIP3    H118453   5.258   5.744   0.643 -0.7453 -1.1744 -0.8752
 6163TIP3    H218454   5.334   5.722   0.514  1.5654 -2.5023  0.6358
 6164TIP3   OH218455   2.497   1.811   2.664  0.5231 -0.1672  0.4744
 6164TIP3    H118456   2.406   1.781   2.669 -0.0817  1.3973 -0.4850
 6164TIP3    H218457   2.543   1.741   2.617 -0.4955 -0.3249 -0.3148
 6165TIP3   OH218458   3.954   0.405   1.644 -0.5031 -0.5258  0.1882
 6165TIP3    H118459   4.010   0.482   1.646 -0.6530 -0.4107 -0.0832
 6165TIP3    H218460   4.011   0.335   1.611 -1.0705  0.0455 -2.1354
 6166TIP3   OH218461   1.251   0.558   4.464 -0.0952 -0.3130 -0.4020
 6166TIP3    H118462   1.279   0.612   4.390 -1.3031  1.4881  0.3801
 6166TIP3    H218463   1.256   0.616   4.540 -1.7233 -1.1789  0.4321
 6167TIP3   OH218464   6.313   3.952   1.874  0.3251 -0.1267 -0.3128
 6167TIP3    H118465   6.225   3.981   1.897 -0.2720 -0.4511 -1.9991
 6167TIP3    H218466   6.316   3.860   1.901  0.9065  0.4091  1.6085
 6168TIP3   OH218467   1.463   2.522   2.112 -0.0428 -0.1938 -0.2167
 6168TIP3    H118468   1.435   2.433   2.134 -0.9332  0.0491 -0.3317
 6168TIP3    H218469   1.556   2.524   2.135 -0.1158 -1.0169  0.1998
 6169TIP3   OH218470   2.518   4.502   3.689 -0.7788  0.5328 -0.3432
 6169TIP3    H118471   2.574   4.500   3.611 -0.8915  0.0889 -0.4153
 6169TIP3    H218472   2.456   4.430   3.675 -0.5568  0.2048  0.3293
 6170TIP3   OH218473   3.912   0.828   4.666 -0.2009  0.1079 -0.0185
 6170TIP3    H118474   3.928   0.754   4.607  1.0041  1.1831 -1.1076
 6170TIP3    H218475   3.869   0.894   4.611  1.7794  1.4970 -0.0333
 6171TIP3   OH218476   6.804   4.708   2.265 -0.0099  0.1413 -0.2871
 6171TIP3    H118477   6.831   4.622   2.297  0.4334  0.2875 -0.2590
 6171TIP3    H218478   6.723   4.727   2.312 -0.4377 -0.5261 -0.7372
 6172TIP3   OH218479   2.790   4.999   4.267 -0.5068  0.6164  0.1658
 6172TIP3    H118480   2.777   5.087   4.230  1.4428  1.7730  1.9856
 6172TIP3    H218481   2.884   4.992   4.280 -0.6644 -1.6201  0.4428
 6173TIP3   OH218482   4.513   4.513   3.503  0.6672  0.2811  0.4040
 6173TIP3    H118483   4.456   4.444   3.538  2.0217 -2.2413 -1.9101
 6173TIP3    H218484   4.488   4.521   3.411  2.3163  0.9110 -0.0352
 6174TIP3   OH218485   0.767   4.218   0.314  0.2809 -0.3986  0.3805
 6174TIP3    H118486   0.797   4.132   0.284 -1.7923 -1.5297  1.3081
 6174TIP3    H218487   0.737   4.261   0.234  0.7225 -0.7925 -0.0076
 6175TIP3   OH218488   3.810   3.890   4.978 -0.1206  0.3821 -0.4200
 6175TIP3    H118489   3.732   3.836   4.983 -0.0623  0.0088 -2.5671
 6175TIP3    H218490   3.883   3.829   4.991 -0.1077  0.1029 -1.6090
 6176TIP3   OH218491   7.067   2.489   2.226 -0.3736  0.3045  0.3796
 6176TIP3    H118492   7.058   2.524   2.138 -1.0387  0.7317  0.6080
 6176TIP3    H218493   7.047   2.563   2.283  1.5962  0.4624  0.9224
 6177TIP3   OH218494   4.107   5.761   4.575 -0.9530 -0.1708 -0.9032
 6177TIP3    H118495   4.170   5.736   4.643  0.1753  1.6361 -1.2423
 6177TIP3    H218496   4.023   5.727   4.607  0.0060 -1.8818 -0.0336
 6178TIP3   OH218497   5.041   4.592   0.490  0.1827 -0.3941  0.1724
 6178TIP3    H118498   4.946   4.585   0.490 -0.0544  1.6473 -1.8063
 6178TIP3    H218499   5.064   4.609   0.398  2.4410 -0.6194  0.6244
 6179TIP3   OH218500   3.772   2.776   0.862 -0.5578 -0.4844  0.4500
 6179TIP3    H118501   3.691   2.771   0.912 -0.3954 -0.5266  0.7162
 6179TIP3    H218502   3.748   2.818   0.780 -1.3512 -2.7469 -0.5556
 6180TIP3   OH218503   6.368   5.265   5.670 -0.1333 -0.3602 -0.2596
 6180TIP3    H118504   6.278   5.298   5.681 -0.2943 -0.8929  0.0453
 6180TIP3    H218505   6.398   5.306   5.589 -0.1674  0.8782  0.3251
 6181TIP3   OH218506   3.014   5.683   4.726 -0.2426 -0.5304  0.2723
 6181TIP3    H118507   3.037   5.718   4.640  2.0348  0.4169  1.1791
 6181TIP3    H218508   2.919   5.673   4.724 -0.2712 -0.3768 -2.2654
 6182TIP3   OH218509   0.522   4.513   0.816  0.8608  0.1380 -0.1590
 6182TIP3    H118510   0.499   4.573   0.744  2.5567 -1.3285 -2.0525
 6182TIP3    H218511   0.454   4.445   0.813  0.2175  0.7318  0.5019
 6183TIP3   OH218512   1.285   3.461   1.740 -0.4019 -0.0510 -0.1905
 6183TIP3    H118513   1.297   3.368   1.756  1.6656  0.0242 -0.9068
 6183TIP3    H218514   1.195   3.480   1.767 -0.9640 -2.2997 -0.3281
 6184TIP3   OH218515   4.299   1.558   5.310 -0.0431  0.3412 -0.3039
 6184TIP3    H118516   4.324   1.635   5.362  1.3990 -0.0270 -0.4089
 6184TIP3    H218517   4.257   1.499   5.373  0.8891  0.2796  0.2821
 6185TIP3   OH218518   5.422   2.793   3.391 -0.1352 -0.2625  0.1056
 6185TIP3    H118519   5.498   2.836   3.351 -0.6875 -1.4561 -2.4034
 6185TIP3    H218520   5.447   2.702   3.401 -1.2405 -0.7033 -0.8736
 6186TIP3   OH218521   0.741   0.095   0.583  0.0782 -0.6325  0.3008
 6186TIP3    H118522   0.691   0.173   0.559  1.9791  1.1108  1.6637
 6186TIP3    H218523   0.679   0.043   0.636 -1.0408  0.2340 -0.1142
 6187TIP3   OH218524   5.361   5.927   1.825 -0.5802 -0.3072 -0.0256
 6187TIP3    H118525   5.272   5.915   1.792 -0.7435 -1.6442  0.8475
 6187TIP3    H218526   5.354   5.917   1.920  0.1095  2.1319  0.3647
 6188TIP3   OH218527   6.269   1.434   5.505 -0.1345  0.1361  0.2015
 6188TIP3    H118528   6.308   1.373   5.568  2.2264  0.6270 -0.7190
 6188TIP3    H218529   6.195   1.386   5.468  1.5262 -2.1036 -0.3515
 6189TIP3   OH218530   1.665   0.432   0.518  0.0191  0.1729 -0.1900
 6189TIP3    H118531   1.752   0.471   0.521 -0.6274  1.7951 -1.0668
 6189TIP3    H218532   1.680   0.341   0.490  1.3724  0.5960 -0.9042
 6190TIP3   OH218533   6.407   1.486   2.702  0.3259  0.1043  0.5201
 6190TIP3    H118534   6.397   1.396   2.731  2.3961  0.1890  1.6969
 6190TIP3    H218535   6.449   1.479   2.616  0.7763 -0.0476  0.7530
 6191TIP3   OH218536   0.550   0.222   5.183 -0.1717  0.3402  0.1481
 6191TIP3    H118537   0.472   0.174   5.158 -0.6284  1.6720 -1.2007
 6191TIP3    H218538   0.536   0.247   5.274 -1.3888  0.6338 -0.0964
 6192TIP3   OH218539   6.095   6.759   1.157 -0.1933  0.2192  0.6909
 6192TIP3    H118540   6.076   6.727   1.245  0.6645 -0.6335  0.5794
 6192TIP3    H218541   6.090   6.681   1.102 -1.9601  0.9316 -0.2402
 6193TIP3   OH218542   4.109   0.201   1.592 -0.1015 -0.1467 -0.3127
 6193TIP3    H118543   4.139   0.188   1.682  0.0711  0.2845 -0.3044
 6193TIP3    H218544   4.179   0.166   1.538  1.2099  2.2673 -0.3281
 6194TIP3   OH218545   7.215   5.842   2.562  0.2790 -0.2712  0.4867
 6194TIP3    H118546   7.208   5.812   2.652  0.0233  0.8227  0.8490
 6194TIP3    H218547   7.178   5.930   2.563  1.9600  0.5047 -0.2942
 6195TIP3   OH218548   0.472   6.761   5.095  0.3115  0.1116  0.6187
 6195TIP3    H118549   0.425   6.692   5.048 -1.9415  1.1685  1.1867
 6195TIP3    H218550   0.409   6.794   5.159  1.9285  1.4957  1.5840
 6196TIP3   OH218551   3.175   6.316   4.349  0.3310 -0.2860  0.0974
 6196TIP3    H118552   3.122   6.370   4.407  0.4371 -1.8374  1.7240
 6196TIP3    H218553   3.119   6.301   4.273  0.0095  1.4089 -0.0391
 6197TIP3   OH218554   6.658   2.659   5.851  0.2531  0.2072  0.0414
 6197TIP3    H118555   6.745   2.665   5.890  0.8323  1.1800 -1.3130
 6197TIP3    H218556   6.616   2.742   5.875 -0.4578 -0.4042  0.9881
 6198TIP3   OH218557   5.430   5.831   2.537 -0.2088  0.4702  0.6541
 6198TIP3    H118558   5.484   5.820   2.615  0.5805 -0.4680  0.0077
 6198TIP3    H218559   5.412   5.924   2.532  1.5313  0.8428  0.7922
 6199TIP3   OH218560   3.022   6.242   4.091 -0.0277  0.2497 -0.1321
 6199TIP3    H118561   3.077   6.163   4.090  1.4599  1.2282 -1.5779
 6199TIP3    H218562   3.055   6.294   4.018 -0.0422  2.8479  1.5907
 6200TIP3   OH218563   2.007   0.740   5.738  0.0465 -0.4127 -0.2887
 6200TIP3    H118564   2.085   0.685   5.744  1.9898  2.1663 -0.4457
 6200TIP3    H218565   2.029   0.807   5.673 -2.7318 -0.1789 -1.1456
 6201TIP3   OH218566   0.405   4.488   5.321 -0.0302  0.3094  0.0839
 6201TIP3    H118567   0.488   4.509   5.363  1.5006 -1.2691 -1.9458
 6201TIP3    H218568   0.345   4.557   5.350  2.2017  1.9868  0.9577
 6202TIP3   OH218569   4.102   4.808   4.660  0.1571  1.1471 -0.1353
 6202TIP3    H118570   4.040   4.820   4.732  3.0646 -0.2436  2.8860
 6202TIP3    H218571   4.074   4.728   4.616  0.0968  0.1895  1.5720
 6203TIP3   OH218572   3.146   4.847   2.899 -0.0258  0.4473 -0.3972
 6203TIP3    H118573   3.172   4.867   2.810  0.2438  2.0154  0.0004
 6203TIP3    H218574   3.227   4.853   2.950 -0.3127  0.4058  0.0740
 6204TIP3   OH218575   6.815   0.626   2.750  0.1124  0.2068 -0.1872
 6204TIP3    H118576   6.858   0.637   2.835 -0.9099  0.4036  0.3141
 6204TIP3    H218577   6.806   0.531   2.741 -1.1128  0.2176  0.6323
 6205TIP3   OH218578   5.758   3.838   2.946 -0.5279 -0.5852  0.4033
 6205TIP3    H118579   5.825   3.856   3.012  0.4100 -0.3942 -0.5697
 6205TIP3    H218580   5.732   3.924   2.914  1.3712 -0.6859 -1.7108
 6206TIP3   OH218581   3.474   3.203   4.663  0.0101  0.3607  0.2246
 6206TIP3    H118582   3.559   3.221   4.623  0.3378 -0.8978  0.3219
 6206TIP3    H218583   3.410   3.239   4.601  0.6091  1.5405  0.2720
 6207TIP3   OH218584   6.263   1.650   3.216 -0.2548  0.1854 -0.8811
 6207TIP3    H118585   6.277   1.608   3.131 -0.2880 -1.6103 -0.0588
 6207TIP3    H218586   6.351   1.665   3.251 -0.2301 -0.9303 -0.4112
 6208TIP3   OH218587   1.157   4.890   5.587  0.0752  0.0222  0.7563
 6208TIP3    H118588   1.110   4.834   5.525 -0.3097 -0.8510  1.8023
 6208TIP3    H218589   1.154   4.842   5.669  0.0921  1.3970  1.5931
 6209TIP3   OH218590   5.699   5.480   5.276 -0.2334 -0.0675 -0.1014
 6209TIP3    H118591   5.663   5.560   5.237 -3.6263 -2.2143 -1.8907
 6209TIP3    H218592   5.743   5.436   5.203  0.7575 -0.3143  0.6256
 6210TIP3   OH218593   3.778   1.250   5.866 -0.3013  0.1861  0.1875
 6210TIP3    H118594   3.713   1.247   5.795  0.6428 -0.6382 -0.6829
 6210TIP3    H218595   3.727   1.240   5.946 -1.3729  0.8270 -0.3912
 6211TIP3   OH218596   0.023   4.806   1.824 -0.1015 -0.0048 -0.0915
 6211TIP3    H118597  -0.002   4.775   1.737  0.0472 -1.2070  0.2810
 6211TIP3    H218598   0.113   4.837   1.813 -1.0437  2.7716 -1.0459
 6212TIP3   OH218599   5.125   1.861   3.825  0.4162 -0.5118 -0.2169
 6212TIP3    H118600   5.165   1.872   3.911  0.3694 -0.8529 -0.1508
 6212TIP3    H218601   5.031   1.863   3.842  0.4034 -1.3099 -0.1615
 6213TIP3   OH218602   5.957   2.925   4.777 -0.1456  0.4199  0.0737
 6213TIP3    H118603   6.012   3.000   4.754  0.2360 -0.0445 -0.5583
 6213TIP3    H218604   5.995   2.892   4.859 -1.6161  2.1848  1.5316
 6214TIP3   OH218605   6.587   4.899   1.623 -0.3372 -0.2712 -0.3936
 6214TIP3    H118606   6.603   4.993   1.625  3.5432 -0.7417  1.1606
 6214TIP3    H218607   6.507   4.887   1.674 -0.2834  2.1213  0.3741
 6215TIP3   OH218608   3.075   3.308   5.806  0.1789  0.0535  0.6880
 6215TIP3    H118609   3.008   3.312   5.738 -1.6273  1.0881  2.4227
 6215TIP3    H218610   3.111   3.220   5.798 -1.7488 -0.7392  0.0015
 6216TIP3   OH218611   2.857   2.053   0.729 -0.3075 -0.2633 -0.4330
 6216TIP3    H118612   2.945   2.046   0.764 -1.0373 -2.8473  1.1919
 6216TIP3    H218613   2.815   2.121   0.781 -0.1942 -1.3216  1.0950
 6217TIP3   OH218614   5.139   0.472   5.706  0.6553  0.3002 -0.0055
 6217TIP3    H118615   5.168   0.401   5.764  1.1896  0.0238 -0.5903
 6217TIP3    H218616   5.220   0.502   5.664  0.4570  1.3731  0.3595
 6218TIP3   OH218617   4.397   6.179   0.056 -0.2335 -0.3915  1.0780
 6218TIP3    H118618   4.351   6.120   0.115  1.5814 -1.7598  1.2146
 6218TIP3    H218619   4.435   6.122  -0.010  0.3782  0.7955  0.3665
 6219TIP3   OH218620   2.390   2.254   0.445 -0.4430 -0.4267 -0.5842
 6219TIP3    H118621   2.301   2.286   0.456 -0.6160 -1.3749  1.1467
 6219TIP3    H218622   2.395   2.178   0.504  0.5921 -2.2271 -2.8395
 6220TIP3   OH218623   4.769   4.215   2.351 -0.3339  0.4328  0.3368
 6220TIP3    H118624   4.813   4.243   2.271 -0.0471  2.3459  1.1014
 6220TIP3    H218625   4.794   4.123   2.362 -1.6216 -0.3749 -2.5352
 6221TIP3   OH218626   5.105   6.337   2.433  0.1295  0.2397  0.2876
 6221TIP3    H118627   5.157   6.286   2.371  0.3438 -0.8107  1.2891
 6221TIP3    H218628   5.113   6.289   2.516 -0.3107  1.4926  1.0804
 6222TIP3   OH218629   6.963   5.221   0.567  0.6431  0.1041  0.2510
 6222TIP3    H118630   7.041   5.228   0.511  0.9214  0.6466  0.6961
 6222TIP3    H218631   6.940   5.312   0.586 -0.4639 -0.0320 -0.3706
 6223TIP3   OH218632   6.896   3.859   2.224  0.1919 -0.4625  0.0030
 6223TIP3    H118633   6.942   3.775   2.220  2.8830  0.8342  1.0870
 6223TIP3    H218634   6.881   3.883   2.133 -1.1015 -2.3029 -0.3219
 6224TIP3   OH218635   3.988   3.727   0.657 -0.1847 -0.3161  0.0302
 6224TIP3    H118636   3.971   3.717   0.564 -1.9944 -1.9134  0.4596
 6224TIP3    H218637   4.066   3.673   0.674 -0.4427 -0.8145 -0.3837
 6225TIP3   OH218638   6.638   3.522   0.808  0.1276 -0.3678  0.6969
 6225TIP3    H118639   6.621   3.593   0.870 -1.8158  0.4830 -0.7014
 6225TIP3    H218640   6.561   3.521   0.751  1.1333 -2.1346 -0.7411
 6226TIP3   OH218641   1.884   2.578   3.615 -0.0992 -0.2941 -0.0271
 6226TIP3    H118642   1.889   2.592   3.521 -0.3682 -3.3236 -0.6143
 6226TIP3    H218643   1.975   2.564   3.642 -0.2528 -3.9148 -0.8303
 6227TIP3   OH218644   6.902   1.806   0.948  0.2999  0.7262  0.1033
 6227TIP3    H118645   6.925   1.743   0.880 -0.7507  0.9105 -0.4527
 6227TIP3    H218646   6.870   1.882   0.900 -1.3418  0.5177  0.7767
 6228TIP3   OH218647   3.814   0.333   4.889  0.2094 -0.0637 -0.1544
 6228TIP3    H118648   3.788   0.318   4.798  0.8374 -0.4280 -0.2759
 6228TIP3    H218649   3.898   0.288   4.898 -0.4786 -1.1863  0.9760
 6229TIP3   OH218650   3.361   1.587   3.081  0.1699  0.4092 -0.2163
 6229TIP3    H118651   3.329   1.582   2.991  0.3398  0.3772 -0.2757
 6229TIP3    H218652   3.433   1.650   3.076  3.1416 -2.7959 -0.9740
 6230TIP3   OH218653   5.075   1.539   2.236 -0.1508  0.3402  0.4002
 6230TIP3    H118654   5.083   1.462   2.292 -2.7614  0.0581  0.5274
 6230TIP3    H218655   5.007   1.515   2.172  0.5676  1.7588 -0.9617
 6231TIP3   OH218656   5.391   2.799   0.616  0.4160  0.1981  0.1514
 6231TIP3    H118657   5.447   2.786   0.692  0.5304  0.1170  0.0544
 6231TIP3    H218658   5.434   2.750   0.546  0.0228 -0.1818  0.1683
 6232TIP3   OH218659   6.355   2.126   1.747 -0.4068 -0.0342  0.0995
 6232TIP3    H118660   6.307   2.043   1.748 -1.8373  0.7653  0.6712
 6232TIP3    H218661   6.415   2.120   1.822 -0.7769 -0.3919  0.3736
 6233TIP3   OH218662   3.627   6.224   4.743 -0.0367 -0.0602 -0.8608
 6233TIP3    H118663   3.602   6.303   4.791  0.9289  0.6709 -1.5127
 6233TIP3    H218664   3.544   6.182   4.720 -0.5408  0.4241  0.0554
 6234TIP3   OH218665   1.296   1.974   2.821 -0.2368  0.0099  0.3991
 6234TIP3    H118666   1.232   1.911   2.788 -0.7321 -0.2241  1.7587
 6234TIP3    H218667   1.349   1.925   2.883 -1.1899  1.1105  2.1414
 6235TIP3   OH218668   3.541   4.562   5.499  0.3066 -0.2878  0.2914
 6235TIP3    H118669   3.599   4.611   5.441  0.1637 -1.6846 -1.0875
 6235TIP3    H218670   3.592   4.550   5.579  0.7647  1.0785  0.2245
 6236TIP3   OH218671   1.608   2.313   0.662  0.0348  0.6465 -0.1150
 6236TIP3    H118672   1.681   2.290   0.719 -0.1437  1.6170  0.5306
 6236TIP3    H218673   1.596   2.236   0.606  0.3224 -0.2521  1.0317
 6237TIP3   OH218674   4.301   4.711   1.605 -0.2210 -0.2692 -0.0227
 6237TIP3    H118675   4.289   4.775   1.535  0.8922 -1.1987 -1.1282
 6237TIP3    H218676   4.309   4.627   1.559 -0.8024 -1.1017  1.3264
 6238TIP3   OH218677   0.255   6.593   1.498 -0.0131 -0.4773 -0.0476
 6238TIP3    H118678   0.305   6.588   1.579 -0.4596 -0.7668  0.2149
 6238TIP3    H218679   0.242   6.687   1.484  0.4589 -0.4078 -0.0347
 6239TIP3   OH218680   2.867   6.268   4.680  0.1258  0.0290 -0.4892
 6239TIP3    H118681   2.821   6.224   4.609  1.6016 -0.7696 -0.9896
 6239TIP3    H218682   2.874   6.359   4.652  0.8158 -0.3109 -1.4511
 6240TIP3   OH218683   0.902   2.688   0.727  1.4593 -0.6699  0.1513
 6240TIP3    H118684   0.936   2.600   0.743  0.7935 -0.5904  2.3638
 6240TIP3    H218685   0.945   2.743   0.793 -0.9716 -0.1067  1.3964
 6241TIP3   OH218686   6.670   4.151   1.598  0.7197  0.1880  0.7513
 6241TIP3    H118687   6.726   4.220   1.564 -0.4187  0.7864  0.0126
 6241TIP3    H218688   6.602   4.141   1.531 -0.5282  0.0910  1.9918
 6242TIP3   OH218689   4.882   0.234   2.728 -0.3446 -0.2387  0.2693
 6242TIP3    H118690   4.966   0.256   2.770  0.4458 -0.4516 -1.1544
 6242TIP3    H218691   4.897   0.246   2.635 -2.6510  2.1886  0.0825
 6243TIP3   OH218692   2.430   0.346   0.607  0.2001 -0.1844  0.3499
 6243TIP3    H118693   2.459   0.365   0.518 -0.5400  1.2783  0.3964
 6243TIP3    H218694   2.504   0.301   0.647  0.7137 -0.4578 -0.8573
 6244TIP3   OH218695   5.055   0.392   3.489  0.4232  0.7578  0.4160
 6244TIP3    H118696   5.103   0.332   3.546 -0.8299  1.4252  2.2997
 6244TIP3    H218697   5.036   0.468   3.545 -1.4489  1.1749 -0.7030
 6245TIP3   OH218698   6.261   4.264   3.452 -0.6838  1.0121  0.0252
 6245TIP3    H118699   6.328   4.206   3.487 -0.6273  0.4857 -0.9079
 6245TIP3    H218700   6.299   4.352   3.460  0.3090  0.6884 -0.8704
 6246TIP3   OH218701   4.141   2.923   3.112 -0.2593  0.2653  0.0145
 6246TIP3    H118702   4.075   2.990   3.133  0.0709  0.8979 -0.8627
 6246TIP3    H218703   4.091   2.843   3.101 -1.0154  0.8992 -1.4399
 6247TIP3   OH218704   3.779   6.475   1.071  0.3129 -0.0682  0.3532
 6247TIP3    H118705   3.859   6.490   1.121  0.0705  1.8006  0.2575
 6247TIP3    H218706   3.721   6.548   1.096 -1.6559 -1.7658  0.9930
 6248TIP3   OH218707   5.764   6.680   3.408 -0.0246  0.4249  0.4112
 6248TIP3    H118708   5.691   6.715   3.460 -0.6858 -0.6040  0.2040
 6248TIP3    H218709   5.722   6.638   3.333  0.5817 -2.0557  1.3419
 6249TIP3   OH218710   1.523   4.243   3.969  0.1546  0.1192 -0.2556
 6249TIP3    H118711   1.537   4.292   4.050  1.0473  0.2357 -0.4701
 6249TIP3    H218712   1.488   4.159   3.998 -1.0721  0.7412  0.1375
 6250TIP3   OH218713   1.387   1.365   0.338  0.5580  0.5712  0.2608
 6250TIP3    H118714   1.421   1.278   0.362  2.0469  1.1787  0.4770
 6250TIP3    H218715   1.338   1.393   0.415  0.5091  0.1433  0.3904
 6251TIP3   OH218716   6.746   0.113   2.989 -0.1928 -0.0033 -0.0367
 6251TIP3    H118717   6.826   0.080   3.030  0.7502  0.0119 -1.7767
 6251TIP3    H218718   6.744   0.070   2.903 -1.8095  0.3722 -0.2209
 6252TIP3   OH218719   2.122   3.065   5.243  0.1809  0.4209  0.4082
 6252TIP3    H118720   2.164   2.991   5.198  2.8531  2.8018 -1.3370
 6252TIP3    H218721   2.042   3.081   5.192  0.6018 -0.0657 -0.4317
 6253TIP3   OH218722   5.037   6.177   2.986 -0.0313  0.3806 -0.0719
 6253TIP3    H118723   5.056   6.201   3.077 -1.6193  0.3561  0.2915
 6253TIP3    H218724   5.084   6.242   2.933 -1.9202  2.6079  0.8338
 6254TIP3   OH218725   0.714   6.538   4.176  0.0329  0.1628 -0.5742
 6254TIP3    H118726   0.726   6.603   4.246  0.2858  0.6268 -1.0423
 6254TIP3    H218727   0.734   6.454   4.218 -0.2599  0.3920  0.0264
 6255TIP3   OH218728   1.017   4.972   0.754  0.2368  0.2428 -0.0900
 6255TIP3    H118729   0.982   4.904   0.810 -0.0350 -0.2461 -0.8465
 6255TIP3    H218730   1.088   5.012   0.806  1.1169 -1.3170 -0.0462
 6256TIP3   OH218731   1.809   5.476   4.219  0.2109  0.0139  0.1859
 6256TIP3    H118732   1.870   5.402   4.223  0.5676  0.2904 -0.0246
 6256TIP3    H218733   1.799   5.494   4.126 -1.4134 -1.0062  0.1225
 6257TIP3   OH218734   4.396   5.785   2.484 -0.5645 -0.3363 -0.1690
 6257TIP3    H118735   4.365   5.767   2.573 -2.4998  2.2998 -0.1614
 6257TIP3    H218736   4.440   5.705   2.457 -0.5274 -1.4916  2.8785
 6258TIP3   OH218737   2.059   5.190   4.801  0.6971  0.2317 -0.6595
 6258TIP3    H118738   2.127   5.185   4.733  0.4041  0.0632 -0.9457
 6258TIP3    H218739   2.060   5.281   4.830 -1.5559  1.2993 -3.3932
 6259TIP3   OH218740   0.258   3.949   3.072  0.2170 -0.4279 -0.8093
 6259TIP3    H118741   0.296   4.014   3.012 -0.1094 -2.3014 -3.2255
 6259TIP3    H218742   0.169   3.935   3.039  0.6170 -2.8175 -1.0574
 6260TIP3   OH218743   0.802   0.621   5.832  0.3341 -0.1232  0.1427
 6260TIP3    H118744   0.742   0.546   5.837  2.2715 -1.6938  1.9706
 6260TIP3    H218745   0.786   0.658   5.746 -2.2372 -1.2969 -0.0028
 6261TIP3   OH218746   5.408   0.672   0.918 -0.6006  0.4829 -0.1379
 6261TIP3    H118747   5.405   0.682   0.823  1.0129 -2.9417 -0.7023
 6261TIP3    H218748   5.442   0.756   0.950 -0.3572  1.4342 -2.6636
 6262TIP3   OH218749   1.218   5.858   5.545 -0.0691 -0.2098  0.0294
 6262TIP3    H118750   1.134   5.868   5.501 -0.5605  0.0261  0.9812
 6262TIP3    H218751   1.224   5.764   5.562 -0.4270 -0.1637  0.4641
 6263TIP3   OH218752   5.959   6.563   5.335  0.2783 -0.1266  0.3925
 6263TIP3    H118753   5.917   6.644   5.307  0.1234  0.0156  1.0215
 6263TIP3    H218754   5.995   6.583   5.421  1.3898 -0.3319 -0.0090
 6264TIP3   OH218755   0.783   2.954   2.865  0.2992 -0.3969 -0.4003
 6264TIP3    H118756   0.738   2.940   2.782 -3.2129 -1.5499  1.4764
 6264TIP3    H218757   0.786   3.049   2.875 -0.5192 -0.2654 -1.2442
 6265TIP3   OH218758   3.695   2.975   1.561 -0.2568  0.3999  0.2297
 6265TIP3    H118759   3.786   2.996   1.585 -0.3868 -0.3971  1.5084
 6265TIP3    H218760   3.702   2.924   1.480  0.6069 -1.3001  1.3155
 6266TIP3   OH218761   4.812   4.719   2.113 -0.1431  0.4381  0.1696
 6266TIP3    H118762   4.817   4.810   2.082  0.0726  0.0388 -1.0023
 6266TIP3    H218763   4.871   4.671   2.055  1.5849 -0.0869  2.2212
 6267TIP3   OH218764   6.508   3.580   4.188  0.3005 -0.5683 -0.2464
 6267TIP3    H118765   6.558   3.535   4.256  2.4673  0.2055 -1.2591
 6267TIP3    H218766   6.500   3.670   4.219 -3.3390 -1.2560  1.3935
 6268TIP3   OH218767   4.566   4.410   3.827 -0.0299 -0.0079 -0.0656
 6268TIP3    H118768   4.545   4.474   3.759  1.0927  0.2380 -0.2040
 6268TIP3    H218769   4.634   4.453   3.879 -1.0594 -0.0687  1.4020
 6269TIP3   OH218770   3.056   4.748   2.245 -0.5641  0.1584  0.2067
 6269TIP3    H118771   3.081   4.718   2.332 -1.0160  0.6620  0.5161
 6269TIP3    H218772   3.005   4.675   2.208  0.8663 -0.6670 -0.2354
 6270TIP3   OH218773   4.526   3.835   3.253 -0.5088  0.2422  0.0194
 6270TIP3    H118774   4.603   3.879   3.290  1.0498 -0.2862 -2.3360
 6270TIP3    H218775   4.534   3.745   3.284  0.4248 -0.0476 -1.0039
 6271TIP3   OH218776   6.070   5.492   4.717  0.0630 -0.1658 -0.4547
 6271TIP3    H118777   6.118   5.573   4.699  1.7107 -0.9916  0.0573
 6271TIP3    H218778   6.085   5.476   4.811 -0.3418 -1.0057 -0.5278
 6272TIP3   OH218779   0.689   5.942   4.675 -0.0409  0.3524 -0.1029
 6272TIP3    H118780   0.709   6.018   4.622  1.1876  1.2326  1.5470
 6272TIP3    H218781   0.594   5.945   4.686 -0.2414  0.5187 -1.6357
 6273TIP3   OH218782   4.954   5.376   4.732  0.1866 -0.0707 -0.3544
 6273TIP3    H118783   4.883   5.370   4.669 -0.0926 -1.1719  0.0351
 6273TIP3    H218784   4.964   5.287   4.766  1.1214  0.2540  0.2878
 6274TIP3   OH218785   2.911   5.371   3.735 -0.1355 -0.1861 -0.1066
 6274TIP3    H118786   2.927   5.414   3.818 -0.8961 -0.9112  0.4272
 6274TIP3    H218787   2.998   5.363   3.695  0.3241 -0.4496  0.9234
 6275TIP3   OH218788   0.593   0.205   2.461  0.6243  0.4100  0.9215
 6275TIP3    H118789   0.668   0.211   2.402  0.2498  1.3016  0.5271
 6275TIP3    H218790   0.588   0.290   2.503 -1.1871  0.9779 -0.3332
 6276TIP3   OH218791   1.002   1.420   4.581  0.3851  0.0836  0.2793
 6276TIP3    H118792   1.092   1.447   4.564  0.5528 -0.5574  0.0844
 6276TIP3    H218793   0.950   1.472   4.520  0.6645  0.1765  0.1161
 6277TIP3   OH218794   3.217   3.278   4.210 -0.2658 -0.1546  0.1398
 6277TIP3    H118795   3.204   3.373   4.204  1.9744  0.1345 -1.2424
 6277TIP3    H218796   3.189   3.245   4.124  0.0372 -0.5947  0.2097
 6278TIP3   OH218797   1.872   2.882   3.751  0.1454  0.0949 -0.3104
 6278TIP3    H118798   1.801   2.916   3.806  0.6643  0.5288  0.1013
 6278TIP3    H218799   1.885   2.793   3.783 -0.7696 -0.2786 -0.9444
 6279TIP3   OH218800   4.263   4.762   0.040  0.0893  0.1160 -0.0402
 6279TIP3    H118801   4.258   4.722  -0.047 -0.7948  2.1444 -0.9790
 6279TIP3    H218802   4.195   4.829   0.040  0.5127  0.6154  1.9975
 6280TIP3   OH218803   6.761   4.587   5.149  0.2674  0.0458 -0.1632
 6280TIP3    H118804   6.711   4.629   5.079 -0.3451  2.7468  1.7568
 6280TIP3    H218805   6.850   4.621   5.140  0.2750  0.1159  0.1603
 6281TIP3   OH218806   3.413   6.499  -0.020 -0.0288  0.0060 -0.3591
 6281TIP3    H118807   3.362   6.418  -0.023 -1.2514  0.7633 -2.9456
 6281TIP3    H218808   3.373   6.550   0.051  1.4058 -1.9388  2.0037
 6282TIP3   OH218809   5.812   3.360   3.822  0.2461  0.4764 -0.0787
 6282TIP3    H118810   5.897   3.391   3.854  0.2191  0.6473 -0.1726
 6282TIP3    H218811   5.828   3.338   3.730 -0.0095  1.3059 -0.3329
 6283TIP3   OH218812   1.049   3.901   4.275  0.0616 -0.4206  0.5405
 6283TIP3    H118813   0.964   3.908   4.318 -0.0967 -0.2088  0.1979
 6283TIP3    H218814   1.099   3.976   4.307  0.0877 -0.4922  0.6685
 6284TIP3   OH218815   2.561   2.081   0.944  0.4011 -0.1821 -0.2682
 6284TIP3    H118816   2.613   2.159   0.926  1.0792 -0.1498  1.6024
 6284TIP3    H218817   2.567   2.070   1.039  1.3450 -3.1886 -0.5609
 6285TIP3   OH218818   3.690   6.602   1.855 -1.3488 -0.5907  0.4117
 6285TIP3    H118819   3.707   6.538   1.786 -0.8895  1.2383 -1.2656
 6285TIP3    H218820   3.618   6.655   1.821  1.1683  2.6155 -0.4486
 6286TIP3   OH218821   2.616   6.331   1.911  0.1785 -0.2138 -0.2166
 6286TIP3    H118822   2.700   6.375   1.898  0.3203 -0.8395 -1.6574
 6286TIP3    H218823   2.639   6.240   1.927 -0.1982 -0.2357  0.2117
 6287TIP3   OH218824   6.129   0.131   0.602 -0.3458  0.1841 -0.5812
 6287TIP3    H118825   6.087   0.211   0.570 -1.8514  0.1126  1.0484
 6287TIP3    H218826   6.057   0.079   0.637  0.9846 -0.4379  1.3778
 6288TIP3   OH218827   4.709   1.903   0.896  0.5424  0.5374 -1.0563
 6288TIP3    H118828   4.797   1.900   0.934  0.1412  0.7812 -0.0889
 6288TIP3    H218829   4.654   1.942   0.964 -0.3118  0.4321 -1.6649
 6289TIP3   OH218830   3.526   5.151   1.661 -0.4147 -0.0301  0.0670
 6289TIP3    H118831   3.606   5.149   1.713 -1.5954  1.1130  2.0473
 6289TIP3    H218832   3.536   5.228   1.605  0.2480 -0.4332 -0.3865
 6290TIP3   OH218833   5.332   4.341   0.696 -0.0839  0.1564  0.1920
 6290TIP3    H118834   5.374   4.424   0.720 -0.0758 -0.0290  0.8400
 6290TIP3    H218835   5.387   4.274   0.736 -1.0526 -0.0884  1.1634
 6291TIP3   OH218836   7.036   2.358   0.846  0.1473 -0.2921  0.7676
 6291TIP3    H118837   7.119   2.328   0.809 -0.5068 -1.4877  0.2205
 6291TIP3    H218838   6.974   2.349   0.774 -0.7955 -0.9826  1.6499
 6292TIP3   OH218839   4.272   1.219   0.134  0.3196  0.2531 -0.1260
 6292TIP3    H118840   4.277   1.270   0.215  1.3983 -1.8937  1.2396
 6292TIP3    H218841   4.275   1.285   0.064  1.5398  2.0667  1.5319
 6293TIP3   OH218842   5.999   2.744   5.031  0.0125  0.0872 -0.1241
 6293TIP3    H118843   6.089   2.739   5.063  0.1223 -1.3794 -0.5516
 6293TIP3    H218844   5.951   2.790   5.100  0.6426 -1.1358  1.1917
 6294TIP3   OH218845   1.878   6.584   2.246  0.1964 -0.1290  0.0060
 6294TIP3    H118846   1.865   6.679   2.253  0.0963 -0.2791  3.2524
 6294TIP3    H218847   1.973   6.573   2.256 -0.0147 -0.4397  2.0389
 6295TIP3   OH218848   1.100   0.995   2.348 -0.2017  0.4827 -0.0665
 6295TIP3    H118849   1.194   0.984   2.366 -0.1721 -0.2711 -0.6584
 6295TIP3    H218850   1.092   1.087   2.321  0.2284  0.7854  0.7913
 6296TIP3   OH218851   5.875   5.260   5.455 -0.2543 -0.0547 -0.0951
 6296TIP3    H118852   5.819   5.232   5.383 -0.1505  1.3152 -0.7415
 6296TIP3    H218853   5.825   5.330   5.498  0.7921  0.9526 -0.4760
 6297TIP3   OH218854   3.210   4.346   4.492  0.2660  0.4450 -0.0206
 6297TIP3    H118855   3.186   4.357   4.400 -1.4045  1.1329  0.4532
 6297TIP3    H218856   3.133   4.376   4.540  0.9788 -0.2219  1.6037
 6298TIP3   OH218857   2.537   1.744   4.794 -0.7829  0.4844  0.3232
 6298TIP3    H118858   2.520   1.814   4.857 -0.0072 -1.0964  2.3889
 6298TIP3    H218859   2.632   1.733   4.795 -0.6778  0.8545 -1.6832
 6299TIP3   OH218860   4.287   2.604   3.422 -0.2565  0.1621  0.3259
 6299TIP3    H118861   4.291   2.656   3.342  0.6242  2.3429  1.6836
 6299TIP3    H218862   4.353   2.536   3.410 -2.3891 -1.6880 -2.0687
 6300TIP3   OH218863   2.281   4.682   3.684 -0.5006  0.2648 -0.8576
 6300TIP3    H118864   2.242   4.769   3.683 -1.0056  0.1338  1.5361
 6300TIP3    H218865   2.375   4.698   3.695 -0.7058  0.5513  0.7721
 6301TIP3   OH218866   6.726   5.225   5.604  0.1833  0.1535 -0.2109
 6301TIP3    H118867   6.784   5.184   5.539 -0.1480  2.1368 -1.8609
 6301TIP3    H218868   6.781   5.290   5.647  0.1321 -0.4869  0.8582
 6302TIP3   OH218869   5.668   6.143   0.331  0.5569  0.3321 -0.0278
 6302TIP3    H118870   5.579   6.110   0.346 -0.5154  2.2366 -1.7620
 6302TIP3    H218871   5.723   6.065   0.335 -1.2445 -0.9812  0.5035
 6303TIP3   OH218872   3.651   5.351   5.384  0.2070  0.0593 -0.3160
 6303TIP3    H118873   3.703   5.279   5.420 -0.2760 -0.0699  0.1278
 6303TIP3    H218874   3.623   5.401   5.461 -0.8239 -0.2152 -0.5020
 6304TIP3   OH218875   0.708   4.485   3.115 -0.2283 -0.6870 -0.1901
 6304TIP3    H118876   0.801   4.497   3.097  0.1366  0.3642  2.0808
 6304TIP3    H218877   0.665   4.501   3.031  1.5768 -0.4587 -1.1106
 6305TIP3   OH218878   0.988   5.192   0.579  1.3184 -0.2628  0.0621
 6305TIP3    H118879   1.072   5.215   0.541  0.6265  0.7176 -0.9242
 6305TIP3    H218880   1.010   5.140   0.657  2.8372  0.6901  0.3011
 6306TIP3   OH218881   5.348   2.664   4.675 -0.2200  0.1020  0.3277
 6306TIP3    H118882   5.337   2.605   4.750 -2.2263 -1.3418 -0.9981
 6306TIP3    H218883   5.274   2.644   4.617  1.0189  1.4443 -1.8726
 6307TIP3   OH218884   1.062   1.882   3.267 -0.1508  0.5383 -0.6503
 6307TIP3    H118885   1.022   1.874   3.353  0.7751 -0.8077 -0.3182
 6307TIP3    H218886   1.146   1.925   3.283 -0.3117  0.9935 -0.9967
 6308TIP3   OH218887   7.197   3.408   4.080 -0.2941  0.5311 -0.3567
 6308TIP3    H118888   7.174   3.480   4.021 -1.1943 -0.1001 -0.7961
 6308TIP3    H218889   7.249   3.349   4.025  0.7163  0.9856  0.0892
 6309TIP3   OH218890   0.671   3.604   0.388 -0.0001 -0.4565 -0.2200
 6309TIP3    H118891   0.627   3.680   0.427 -1.1102 -1.1426 -0.0765
 6309TIP3    H218892   0.672   3.622   0.294  1.1413  0.4282 -0.0519
 6310TIP3   OH218893   2.762   6.574   3.171  0.4931 -0.2731  0.0548
 6310TIP3    H118894   2.772   6.491   3.124  1.0412  0.7604 -1.7716
 6310TIP3    H218895   2.672   6.601   3.152  0.1106 -0.6915  1.1505
 6311TIP3   OH218896   2.626   2.406   4.483  0.5502 -0.1284  0.1041
 6311TIP3    H118897   2.688   2.479   4.487  0.1125  0.3643 -1.4754
 6311TIP3    H218898   2.617   2.387   4.390  0.5811 -2.1604  0.4759
 6312TIP3   OH218899   3.509   6.164   5.122  0.2941  0.0721 -0.0644
 6312TIP3    H118900   3.418   6.135   5.125  0.8071 -1.8323 -1.3568
 6312TIP3    H218901   3.503   6.259   5.128 -1.8296  0.0530 -0.8380
 6313TIP3   OH218902   4.446   2.200   4.339  0.3064  0.5296 -0.4800
 6313TIP3    H118903   4.363   2.215   4.293 -0.2282 -0.8034  0.0111
 6313TIP3    H218904   4.490   2.134   4.286  0.2399 -0.0978  0.2445
 6314TIP3   OH218905   3.874   3.288   1.445 -0.5500 -0.6012 -0.3931
 6314TIP3    H118906   3.896   3.354   1.379 -1.7598 -1.8438 -2.1327
 6314TIP3    H218907   3.920   3.209   1.417 -1.8834 -1.4284 -0.3412
 6315TIP3   OH218908   6.182   6.323   4.990 -0.1459  0.3189  0.2423
 6315TIP3    H118909   6.132   6.285   4.918 -0.7666  0.3933  0.6263
 6315TIP3    H218910   6.126   6.312   5.067 -1.2875  3.7677  0.0715
 6316TIP3   OH218911   1.528   3.309   4.166  0.2832  0.4056  0.5760
 6316TIP3    H118912   1.490   3.236   4.119  1.2781 -0.1163  0.5504
 6316TIP3    H218913   1.455   3.369   4.181 -0.3077 -0.0428 -0.4291
 6317TIP3   OH218914   2.499   1.957   1.768  0.6203 -0.3919 -0.2261
 6317TIP3    H118915   2.530   2.046   1.748  0.3648 -0.0100  0.9631
 6317TIP3    H218916   2.572   1.900   1.745  0.4445  0.0227 -1.8953
 6318TIP3   OH218917   6.082   4.229   0.273 -0.2521 -0.1679 -0.2286
 6318TIP3    H118918   6.028   4.301   0.306 -0.7740 -1.5637  2.2349
 6318TIP3    H218919   6.113   4.259   0.188 -1.0537  2.6385  0.3667
 6319TIP3   OH218920   3.975   4.946   1.117 -0.0341  0.6322 -0.4227
 6319TIP3    H118921   4.019   5.031   1.109  0.9276  0.2798  0.7281
 6319TIP3    H218922   4.045   4.882   1.105 -0.5757  0.0199 -0.3473
 6320TIP3   OH218923   0.372   5.464   3.272  0.3100  0.1239 -0.5566
 6320TIP3    H118924   0.340   5.468   3.362  0.2174  1.0152 -0.6209
 6320TIP3    H218925   0.353   5.375   3.243 -0.2505  0.0304  0.0917
 6321TIP3   OH218926   6.030   4.770   0.773  0.0864  0.2920  0.1205
 6321TIP3    H118927   5.996   4.857   0.791  0.7590  0.3343  1.3628
 6321TIP3    H218928   6.125   4.783   0.767  0.2015 -0.3570  0.4516
 6322TIP3   OH218929   6.892   4.418   5.669  0.3778  0.5108  0.5050
 6322TIP3    H118930   6.875   4.442   5.578 -0.4064 -1.7440 -0.0247
 6322TIP3    H218931   6.952   4.344   5.664 -0.4984 -0.3402  1.7345
 6323TIP3   OH218932   1.553   6.332   4.804  0.1920  0.4832 -0.5008
 6323TIP3    H118933   1.500   6.410   4.820 -0.3158  0.1201 -0.3884
 6323TIP3    H218934   1.490   6.260   4.803  1.0863 -0.7811  4.8923
 6324TIP3   OH218935   7.022   6.274   3.907  0.1461  0.4812  1.2783
 6324TIP3    H118936   6.984   6.191   3.935  1.1726  0.1782  1.8403
 6324TIP3    H218937   7.031   6.266   3.812  0.0548  0.0200  1.3071
 6325TIP3   OH218938   3.408   1.985   2.276 -0.0422  0.5469 -0.2369
 6325TIP3    H118939   3.326   2.023   2.310 -0.8650 -1.9957  0.8379
 6325TIP3    H218940   3.464   1.977   2.353  0.4676  0.4116 -0.6227
 6326TIP3   OH218941   3.194   0.089   2.337  0.4202 -0.1413 -0.3256
 6326TIP3    H118942   3.117   0.036   2.357 -0.4151  0.8664 -0.7812
 6326TIP3    H218943   3.202   0.149   2.412 -0.6844  1.3463 -1.3450
 6327TIP3   OH218944   2.417   0.488   4.355  0.2916 -0.2946 -0.0451
 6327TIP3    H118945   2.335   0.451   4.322  0.8547  0.4647 -2.5719
 6327TIP3    H218946   2.391   0.570   4.396 -0.2652 -0.2553 -0.4594
 6328TIP3   OH218947   1.983   0.018   5.828 -0.7428  0.1614 -0.1995
 6328TIP3    H118948   1.889   0.011   5.816 -0.5536 -1.2265 -1.0287
 6328TIP3    H218949   2.021  -0.028   5.754  0.6221  1.6911 -0.5234
 6329TIP3   OH218950   1.199   1.070   1.095 -0.3905  0.1920 -0.2025
 6329TIP3    H118951   1.137   1.016   1.045 -1.0796 -0.2845  1.1227
 6329TIP3    H218952   1.208   1.150   1.042 -1.8061  0.0882 -0.6475
 6330TIP3   OH218953   2.666   0.299   4.652  0.4708 -0.1975  0.4747
 6330TIP3    H118954   2.682   0.207   4.634 -2.3403 -0.7761  0.4733
 6330TIP3    H218955   2.683   0.344   4.569 -0.5452 -1.1000 -0.2408
 6331TIP3   OH218956   3.238   5.386   3.383  0.3384 -0.5641 -0.2814
 6331TIP3    H118957   3.263   5.464   3.433  1.2916 -0.3437 -1.0641
 6331TIP3    H218958   3.285   5.315   3.426 -0.0977 -0.6314  0.0951
 6332TIP3   OH218959   6.973   3.861   0.591  0.3722 -0.2013 -0.0377
 6332TIP3    H118960   6.953   3.773   0.624  0.2445  0.0774  0.6244
 6332TIP3    H218961   7.044   3.847   0.528  0.2836 -0.7916 -0.0137
 6333TIP3   OH218962   1.697   0.055   5.813 -0.2441 -0.1455 -0.1688
 6333TIP3    H118963   1.638   0.101   5.754 -1.5161 -0.1181  1.0850
 6333TIP3    H218964   1.643   0.029   5.887  1.3058 -0.1705  1.0137
 6334TIP3   OH218965   1.976   0.437   0.350 -0.5275 -0.3783 -0.5528
 6334TIP3    H118966   1.909   0.444   0.281 -0.2612  0.1825 -0.7575
 6334TIP3    H218967   1.931   0.466   0.430 -0.7997 -0.9040 -0.5126
 6335TIP3   OH218968   6.559   3.590   1.105 -0.0921  0.2848 -0.3939
 6335TIP3    H118969   6.514   3.645   1.041 -0.0400  1.6881  0.7224
 6335TIP3    H218970   6.583   3.650   1.175  1.2468 -0.9206  0.2230
 6336TIP3   OH218971   7.148   5.719   3.640  0.2934  0.1957  0.4872
 6336TIP3    H118972   7.196   5.640   3.616  0.1914  0.6836 -1.5230
 6336TIP3    H218973   7.063   5.710   3.595 -0.2860  0.7860  1.4244
 6337TIP3   OH218974   6.252   0.599   2.684  0.0963 -0.9570 -0.0003
 6337TIP3    H118975   6.308   0.672   2.657 -0.2181 -0.2930  1.0984
 6337TIP3    H218976   6.177   0.603   2.624  0.7693 -1.2855 -0.8832
 6338TIP3   OH218977   3.144   0.190   3.608 -0.2827  0.0928 -0.0645
 6338TIP3    H118978   3.105   0.277   3.616  1.7092  0.9006  1.6786
 6338TIP3    H218979   3.231   0.199   3.645  0.2043 -2.5311 -0.3801
 6339TIP3   OH218980   0.220   1.203   4.367  0.2863  0.1048 -0.2346
 6339TIP3    H118981   0.170   1.284   4.357  0.1770  0.1040  0.2551
 6339TIP3    H218982   0.193   1.169   4.452 -0.1297 -0.7762 -0.7061
 6340TIP3   OH218983   0.189   6.710   2.712  0.9252  0.2846  0.3594
 6340TIP3    H118984   0.149   6.771   2.774  0.3684  0.4441 -0.1439
 6340TIP3    H218985   0.128   6.709   2.638  2.3956  1.4323 -0.9452
 6341TIP3   OH218986   5.025   3.520   1.607 -0.3879  0.6944  0.0656
 6341TIP3    H118987   5.061   3.599   1.568  0.7155 -0.1148 -0.6132
 6341TIP3    H218988   5.099   3.481   1.654 -0.3682 -0.9084 -1.2014
 6342TIP3   OH218989   2.412   4.957   5.074 -0.6095 -0.0967  0.2778
 6342TIP3    H118990   2.378   5.009   5.002 -1.6249 -1.0064  0.0748
 6342TIP3    H218991   2.445   4.877   5.033 -1.6482 -0.8420  0.8230
 6343TIP3   OH218992   6.031   2.633   5.395  0.2047  0.2468 -0.1038
 6343TIP3    H118993   5.992   2.691   5.460 -0.9233 -0.3439 -0.2228
 6343TIP3    H218994   6.111   2.601   5.436 -0.6553 -0.3739  1.1669
 6344TIP3   OH218995   4.199   5.463   0.940  0.1365 -0.5911 -0.2587
 6344TIP3    H118996   4.113   5.458   0.982 -0.2522 -0.1985 -0.9985
 6344TIP3    H218997   4.197   5.395   0.873 -0.7783  1.4145 -2.3774
 6345TIP3   OH218998   0.555   6.661   3.549  0.1579  0.3107 -0.1953
 6345TIP3    H118999   0.636   6.681   3.502  2.9682 -3.2544  2.5396
 6345TIP3    H219000   0.543   6.735   3.609  1.8572  0.5981 -0.1557
 6346TIP3   OH219001   1.195   5.779   4.015  0.5384  0.1939 -0.6361
 6346TIP3    H119002   1.278   5.789   4.063  1.3523 -0.6690 -1.8238
 6346TIP3    H219003   1.219   5.733   3.935 -1.0381  0.3179 -1.2053
 6347TIP3   OH219004   3.309   0.880   5.415 -0.2673  0.2968 -0.0256
 6347TIP3    H119005   3.289   0.819   5.486 -1.6769  0.3639 -0.3359
 6347TIP3    H219006   3.373   0.834   5.361 -0.9693 -0.7287 -0.0036
 6348TIP3   OH219007   5.616   6.343   0.066 -0.1607 -0.2538 -0.0358
 6348TIP3    H119008   5.590   6.388  -0.015  0.2567  0.4342  0.2063
 6348TIP3    H219009   5.683   6.400   0.105  1.4166 -1.7396 -0.4225
 6349TIP3   OH219010   1.472   3.678   2.878 -0.2340 -0.3146  0.4626
 6349TIP3    H119011   1.563   3.664   2.907  0.0502  2.1817  1.0329
 6349TIP3    H219012   1.425   3.601   2.910  1.5718 -1.4500  0.5682
 6350TIP3   OH219013   5.355   6.710   1.678 -0.4196 -0.2442  0.4122
 6350TIP3    H119014   5.303   6.750   1.747  0.5121 -0.6884  1.4046
 6350TIP3    H219015   5.442   6.751   1.687  0.2971 -1.7882  0.8682
 6351TIP3   OH219016   4.090   2.973   5.588  0.3615 -0.3491  0.1407
 6351TIP3    H119017   4.001   2.971   5.553  0.1359 -0.0469  0.6904
 6351TIP3    H219018   4.079   2.957   5.682  0.8953 -0.3745  0.2020
 6352TIP3   OH219019   5.616   0.997   4.744 -0.0636 -0.2144 -0.3850
 6352TIP3    H119020   5.681   1.022   4.809 -0.8331  0.0025  0.3195
 6352TIP3    H219021   5.573   0.920   4.781 -0.6513  0.0353 -0.5297
 6353TIP3   OH219022   5.151   1.713   1.663 -0.7075  0.4683  0.0338
 6353TIP3    H119023   5.245   1.699   1.649 -0.7831 -0.2833  0.2143
 6353TIP3    H219024   5.109   1.672   1.587 -0.9051  0.4949  0.1281
 6354TIP3   OH219025   3.042   5.229   2.767 -0.5138 -0.0135  0.0518
 6354TIP3    H119026   3.115   5.283   2.797  1.5793 -0.9000 -2.9321
 6354TIP3    H219027   3.009   5.188   2.847  0.3199  2.6273  1.8927
 6355TIP3   OH219028   5.102   6.672   0.500 -0.5852  0.0191 -0.2640
 6355TIP3    H119029   5.013   6.687   0.531 -0.4042  0.1547  0.2080
 6355TIP3    H219030   5.102   6.581   0.470 -0.2932 -0.7818  1.9461
 6356TIP3   OH219031   4.515   4.304   2.645  0.1957 -0.5552  0.3953
 6356TIP3    H119032   4.476   4.227   2.604 -1.6426  0.0022  0.9601
 6356TIP3    H219033   4.608   4.298   2.625 -0.1159 -2.1577 -0.7839
 6357TIP3   OH219034   6.001   0.565   5.164  0.2954  0.0544 -0.1081
 6357TIP3    H119035   5.978   0.639   5.108 -1.8684  1.0608  1.9469
 6357TIP3    H219036   5.995   0.489   5.105 -0.3964  1.1923 -1.5897
 6358TIP3   OH219037   6.105   4.729   1.755 -0.0604  0.3277 -0.0666
 6358TIP3    H119038   6.169   4.770   1.696  0.2290  2.1501  1.4151
 6358TIP3    H219039   6.030   4.788   1.753 -0.8267 -0.6264 -0.0766
 6359TIP3   OH219040   1.717   4.255   4.440  0.1131 -0.8932  0.4485
 6359TIP3    H119041   1.808   4.285   4.448 -0.0967 -0.6772  2.9082
 6359TIP3    H219042   1.721   4.161   4.457 -0.3703 -0.4089  4.1394
 6360TIP3   OH219043   3.294   6.117   5.497 -0.4518  0.6037 -0.0694
 6360TIP3    H119044   3.388   6.133   5.505 -0.6552  3.9493 -2.2932
 6360TIP3    H219045   3.262   6.117   5.587  1.2778  2.8997  0.6484
 6361TIP3   OH219046   1.526   2.647   4.553  0.1078 -0.2601  0.5103
 6361TIP3    H119047   1.573   2.710   4.608 -0.2648 -0.5676  1.1885
 6361TIP3    H219048   1.586   2.629   4.480  0.3564  0.6131  0.4883
 6362TIP3   OH219049   5.057   5.260   0.374 -0.1792 -0.5845  0.2852
 6362TIP3    H119050   5.017   5.306   0.301  2.6833 -0.6670 -1.4927
 6362TIP3    H219051   5.085   5.328   0.435  0.6069 -0.2136 -0.4740
 6363TIP3   OH219052   2.197   3.607   0.624  0.0588  0.0923 -0.0447
 6363TIP3    H119053   2.136   3.570   0.687  1.0377 -0.1122  0.8246
 6363TIP3    H219054   2.280   3.612   0.671  0.8377 -0.0924 -1.3342
 6364TIP3   OH219055   0.353   4.851   4.448 -0.1250 -0.1290  0.3106
 6364TIP3    H119056   0.316   4.924   4.399  0.0051 -0.1886  0.1209
 6364TIP3    H219057   0.414   4.810   4.387 -1.2035 -1.2301 -0.0732
 6365TIP3   OH219058   1.218   2.495   5.595  0.3850 -0.4463 -0.1981
 6365TIP3    H119059   1.155   2.437   5.638 -0.3712 -0.3108 -1.1149
 6365TIP3    H219060   1.248   2.446   5.519 -0.8395  0.6421 -1.4153
 6366TIP3   OH219061   3.002   2.740   3.429 -0.0211 -0.3643  0.0610
 6366TIP3    H119062   3.060   2.743   3.506  0.2772  1.3162 -0.1746
 6366TIP3    H219063   2.957   2.824   3.431 -2.6566 -1.7003  0.3289
 6367TIP3   OH219064   1.070   4.220   5.335 -0.2705  0.4124  0.1154
 6367TIP3    H119065   1.030   4.247   5.418  3.0765  2.8289  1.1557
 6367TIP3    H219066   1.088   4.127   5.346 -1.2150  0.3664  1.4868
 6368TIP3   OH219067   5.471   4.783   4.113  0.0800 -0.2313 -0.2524
 6368TIP3    H119068   5.551   4.836   4.110  0.6298 -0.8296  1.9232
 6368TIP3    H219069   5.501   4.693   4.100 -0.6137 -0.2647 -1.9703
 6369TIP3   OH219070   2.734   1.406   3.438  0.5496 -0.2145 -0.2923
 6369TIP3    H119071   2.692   1.320   3.446  1.4305 -0.6722 -0.4552
 6369TIP3    H219072   2.789   1.413   3.517  0.8130  0.0182 -0.4943
 6370TIP3   OH219073   2.462   3.478   2.520 -0.2576  0.2102  0.0261
 6370TIP3    H119074   2.385   3.451   2.569  0.5835 -2.3232  0.1088
 6370TIP3    H219075   2.476   3.569   2.544 -1.5979 -0.0903  2.1443
 6371TIP3   OH219076   5.135   3.861   5.687  0.1455  0.3353 -0.8522
 6371TIP3    H119077   5.186   3.792   5.645  0.1581 -1.1801  1.4788
 6371TIP3    H219078   5.051   3.820   5.707  1.0506 -0.0641  2.9972
 6372TIP3   OH219079   2.292   2.613   4.212  0.5321 -0.6482 -0.0364
 6372TIP3    H119080   2.258   2.631   4.124  1.0050  1.9549  0.2486
 6372TIP3    H219081   2.381   2.580   4.197  0.2176 -1.3058 -0.5400
 6373TIP3   OH219082   1.593   0.896   5.124  0.2193 -0.3525 -0.0508
 6373TIP3    H119083   1.514   0.858   5.163 -0.5204  0.3202 -0.8347
 6373TIP3    H219084   1.563   0.932   5.040  0.8968  1.7784  0.5553
 6374TIP3   OH219085   7.059   0.414   4.670 -0.6678 -0.1194  0.2927
 6374TIP3    H119086   7.071   0.478   4.740 -0.9280  0.9143 -0.5805
 6374TIP3    H219087   7.028   0.335   4.714  0.8817 -0.0753  1.5492
 6375TIP3   OH219088   3.288   4.853   1.871 -0.2326  0.1261 -0.5446
 6375TIP3    H119089   3.243   4.908   1.807  0.6290  1.7871  0.2322
 6375TIP3    H219090   3.221   4.790   1.899 -0.6650 -0.6050 -2.9654
 6376TIP3   OH219091   0.070   5.632   3.372 -0.2751  0.0088 -0.1307
 6376TIP3    H119092   0.130   5.579   3.425 -0.7056  0.1364  0.4986
 6376TIP3    H219093   0.012   5.568   3.330  0.9873 -0.1967 -1.6460
 6377TIP3   OH219094   6.503   1.279   0.972 -0.1571 -0.1062  0.1450
 6377TIP3    H119095   6.435   1.262   0.907  0.0797  2.3678 -0.8685
 6377TIP3    H219096   6.523   1.372   0.962  1.5211 -0.1594  2.2327
 6378TIP3   OH219097   2.678   2.653   4.194  0.1378 -0.4090  0.1102
 6378TIP3    H119098   2.634   2.573   4.168 -1.1197  0.0520  0.7229
 6378TIP3    H219099   2.630   2.723   4.151 -0.9237  0.2361  2.1754
 6379TIP3   OH219100   6.551   3.966   2.954 -0.2213  0.3744  0.6895
 6379TIP3    H119101   6.522   4.039   2.899  1.3944  0.3755 -0.2297
 6379TIP3    H219102   6.587   3.902   2.892 -1.5429 -1.2068  1.4855
 6380TIP3   OH219103   0.865   2.254   3.610 -0.1137 -0.3472  0.1553
 6380TIP3    H119104   0.949   2.280   3.573 -0.3670 -0.6003 -0.6062
 6380TIP3    H219105   0.814   2.335   3.614  1.0116  0.3577  3.0294
 6381TIP3   OH219106   2.621   0.359   2.701  0.2000 -0.1173  0.9326
 6381TIP3    H119107   2.556   0.378   2.634 -0.0078  0.2179  1.2257
 6381TIP3    H219108   2.574   0.367   2.783  0.2610 -1.3253  1.0990
 6382TIP3   OH219109   2.855   0.195   0.818 -0.6365  0.3829 -0.1279
 6382TIP3    H119110   2.861   0.291   0.814 -2.6118  0.5800  0.3973
 6382TIP3    H219111   2.892   0.172   0.903 -0.1056  0.6760 -0.2770
 6383TIP3   OH219112   2.040   4.713   2.154 -0.0125 -0.2186 -0.6497
 6383TIP3    H119113   2.113   4.705   2.093  0.7877 -0.8128  0.3660
 6383TIP3    H219114   1.991   4.632   2.142  0.2028 -0.3818 -0.4284
 6384TIP3   OH219115   0.242   3.636   4.532 -0.2544  0.0194 -0.4830
 6384TIP3    H119116   0.191   3.588   4.597 -0.3920 -0.4036 -0.8966
 6384TIP3    H219117   0.184   3.640   4.455  0.6591 -1.2259 -1.2636
 6385TIP3   OH219118   1.925   4.541   4.565 -0.2104  0.3938  0.1557
 6385TIP3    H119119   1.945   4.560   4.657  0.6661  0.8419 -0.1193
 6385TIP3    H219120   1.845   4.591   4.548  0.6791  1.8897  0.1530
 6386TIP3   OH219121   0.572   1.969   4.804  0.5650 -0.0318 -0.1181
 6386TIP3    H119122   0.601   1.961   4.713 -0.9052 -0.4269 -0.5872
 6386TIP3    H219123   0.477   1.972   4.799  0.4590  0.3181  1.3969
 6387TIP3   OH219124   2.148   2.768   0.694 -0.5303 -0.4088 -0.4179
 6387TIP3    H119125   2.135   2.858   0.664  0.9190 -0.3765 -1.0272
 6387TIP3    H219126   2.069   2.722   0.668 -0.7642  0.4162 -1.2070
 6388TIP3   OH219127   7.037   6.559   4.662 -0.8687  0.0560  0.2296
 6388TIP3    H119128   7.107   6.499   4.636 -0.7208  0.1363  0.4433
 6388TIP3    H219129   7.077   6.646   4.656 -0.3917 -0.0056  2.1049
 6389TIP3   OH219130   4.615   3.968   2.049  0.6622  0.2190 -0.2681
 6389TIP3    H119131   4.657   3.883   2.060  1.7885  0.7898  0.0112
 6389TIP3    H219132   4.536   3.964   2.104 -0.3519 -1.3010 -1.7297
 6390TIP3   OH219133   6.299   1.088   4.312 -0.0745 -0.5159 -0.2974
 6390TIP3    H119134   6.335   1.022   4.252 -1.5073  0.1115 -1.9447
 6390TIP3    H219135   6.313   1.171   4.267 -1.9945 -0.1126 -0.2417
 6391TIP3   OH219136   6.963   6.522   3.973 -0.0030 -0.2136  0.0421
 6391TIP3    H119137   6.868   6.527   3.972  0.0026  0.0158  0.5087
 6391TIP3    H219138   6.983   6.430   3.957 -0.2813 -0.1024 -1.0178
 6392TIP3   OH219139   2.501   0.718   3.975 -0.5497 -0.1434  0.2008
 6392TIP3    H119140   2.470   0.630   3.996  0.6273 -0.7516 -0.4809
 6392TIP3    H219141   2.434   0.777   4.010 -0.4242 -1.2166  2.3762
 6393TIP3   OH219142   2.237   4.557   2.955 -0.0007  0.1901  0.3382
 6393TIP3    H119143   2.194   4.487   3.004 -1.9312  1.0150 -0.0756
 6393TIP3    H219144   2.270   4.515   2.876 -0.5132 -0.3847  0.4257
 6394TIP3   OH219145   2.375   1.185   4.523  0.3941  0.0601  0.4895
 6394TIP3    H119146   2.456   1.181   4.574  1.1090 -1.3018 -0.6710
 6394TIP3    H219147   2.353   1.094   4.505 -1.1660  0.4257  0.3945
 6395TIP3   OH219148   0.293   1.520   4.399  0.7772 -0.4596  0.7021
 6395TIP3    H119149   0.381   1.483   4.387  0.0116 -1.9276 -0.7144
 6395TIP3    H219150   0.289   1.592   4.336  0.6581 -1.0031  0.0749
 6396TIP3   OH219151   3.725   4.531   5.709 -0.1575  0.3444  0.6030
 6396TIP3    H119152   3.774   4.467   5.760 -0.4342 -0.4342 -0.0799
 6396TIP3    H219153   3.786   4.603   5.695 -0.3713  1.0395  2.8371
 6397TIP3   OH219154   1.811   2.408   3.220 -0.0919  0.2617 -0.5006
 6397TIP3    H119155   1.819   2.317   3.249 -0.5865  0.7551  1.3299
 6397TIP3    H219156   1.845   2.408   3.131 -0.7530 -1.8519 -0.8035
 6398TIP3   OH219157   3.830   4.433   4.218 -0.3726 -0.1875  0.1771
 6398TIP3    H119158   3.864   4.348   4.244  1.3583  0.6414  0.7524
 6398TIP3    H219159   3.859   4.493   4.287  0.3912  1.2593 -1.3215
 6399TIP3   OH219160   2.751   0.348   5.179 -0.8000  1.0579  0.4487
 6399TIP3    H119161   2.747   0.314   5.090  2.6762 -0.4675  0.7338
 6399TIP3    H219162   2.760   0.443   5.169 -0.2459  0.8793 -0.8388
 6400TIP3   OH219163   1.279   4.126   3.533  0.5491 -0.1236  0.3907
 6400TIP3    H119164   1.343   4.068   3.575 -0.0445 -0.7509  0.4350
 6400TIP3    H219165   1.202   4.072   3.519 -0.0611  0.6865  0.5365
 6401TIP3   OH219166   0.409   5.364   2.196  0.1778  0.1930  0.1510
 6401TIP3    H119167   0.470   5.437   2.190  0.3083 -0.0007 -1.2159
 6401TIP3    H219168   0.337   5.387   2.137 -0.7974  0.1405  1.2730
 6402TIP3   OH219169   5.009   5.199   1.792  0.0368 -0.1056 -0.0765
 6402TIP3    H119170   5.094   5.184   1.835 -0.4421 -1.1334  0.5522
 6402TIP3    H219171   5.025   5.272   1.732  1.2997 -0.1112  0.2232
 6403TIP3   OH219172   2.134   5.207   3.444  0.1670 -0.2602  0.3278
 6403TIP3    H119173   2.091   5.148   3.382 -1.6316 -0.4557  1.6939
 6403TIP3    H219174   2.172   5.276   3.389  0.6309 -1.6257 -1.1347
 6404TIP3   OH219175   4.747   3.689   4.284 -0.3811 -0.4238 -0.3740
 6404TIP3    H119176   4.679   3.635   4.324 -1.2448 -1.2721 -2.8503
 6404TIP3    H219177   4.826   3.636   4.290 -0.3363 -0.2720  0.7008
 6405TIP3   OH219178   2.966   0.522   0.113 -0.3734  0.0393 -0.3606
 6405TIP3    H119179   3.053   0.533   0.151  0.0561 -0.5619 -1.1419
 6405TIP3    H219180   2.914   0.593   0.151  0.3588  0.1872  0.3892
 6406TIP3   OH219181   3.133   4.686   5.022  0.0633 -0.6771 -0.6928
 6406TIP3    H119182   3.132   4.635   5.103  0.6236 -0.5543 -0.6034
 6406TIP3    H219183   3.155   4.623   4.954  0.8366 -0.5457 -0.5708
 6407TIP3   OH219184   5.925   6.453   0.670 -0.3259  1.1085  0.2181
 6407TIP3    H119185   5.850   6.513   0.674 -1.2477 -0.0750  1.8493
 6407TIP3    H219186   5.948   6.436   0.761 -0.6474 -1.6189 -0.1183
 6408TIP3   OH219187   0.027   6.371   1.553  0.5318  0.4452 -0.1446
 6408TIP3    H119188   0.087   6.313   1.507 -0.0761  1.3829 -2.2113
 6408TIP3    H219189  -0.026   6.411   1.484 -2.3334 -0.1624  1.5466
 6409TIP3   OH219190   3.229   1.950   5.319  0.6015  0.0467  0.3634
 6409TIP3    H119191   3.136   1.967   5.329  0.0432 -0.0028 -3.3098
 6409TIP3    H219192   3.266   2.035   5.294  0.4967 -0.7884 -3.1845
 6410TIP3   OH219193   1.299   6.226   4.978  0.1643 -0.2617  0.4297
 6410TIP3    H119194   1.242   6.156   4.946 -0.0645 -0.2405  0.7792
 6410TIP3    H219195   1.304   6.288   4.906 -0.1431 -0.3365  0.3419
 6411TIP3   OH219196   4.676   3.634   1.022 -0.3017  0.2197  0.1153
 6411TIP3    H119197   4.658   3.568   1.088 -1.9334  0.7171  0.1976
 6411TIP3    H219198   4.698   3.713   1.073  1.2397 -0.1008  0.0171
 6412TIP3   OH219199   5.464   0.498   3.095  0.5083  0.3062 -0.1967
 6412TIP3    H119200   5.529   0.562   3.123 -0.3731  0.8012  0.8244
 6412TIP3    H219201   5.506   0.449   3.024  1.2097  1.9971 -0.9816
 6413TIP3   OH219202   2.277   4.731   4.556  0.1438  0.1974 -0.2778
 6413TIP3    H119203   2.259   4.745   4.649 -0.1611  1.1621 -0.4702
 6413TIP3    H219204   2.218   4.792   4.511 -0.7223 -1.2355 -1.1684
 6414TIP3   OH219205   2.470   0.912   1.138 -0.0062  0.3674  0.3488
 6414TIP3    H119206   2.498   0.986   1.193  1.0719  0.2667 -0.0327
 6414TIP3    H219207   2.379   0.931   1.116 -0.7364  0.0514  2.7676
 6415TIP3   OH219208   3.231   0.609   5.318 -0.0277  0.7173  0.0072
 6415TIP3    H119209   3.235   0.632   5.411 -2.1351 -0.9446  0.5739
 6415TIP3    H219210   3.210   0.516   5.317 -0.3896  0.7755 -2.1391
 6416TIP3   OH219211   3.956   6.094   1.204  0.0845 -1.0782  0.1470
 6416TIP3    H119212   3.968   6.150   1.281 -0.3391  0.9934 -1.2371
 6416TIP3    H219213   3.900   6.023   1.235 -0.6334  0.0716  1.5982
 6417TIP3   OH219214   0.150   5.729   4.468  0.1351 -0.5187 -0.0508
 6417TIP3    H119215   0.124   5.815   4.436  1.3619  0.3077  1.1009
 6417TIP3    H219216   0.084   5.706   4.533 -1.3795 -1.4282 -1.8180
 6418TIP3   OH219217   4.681   5.754   0.323  0.0562  0.2831 -0.7130
 6418TIP3    H119218   4.773   5.778   0.312  0.2446 -0.0159  0.0917
 6418TIP3    H219219   4.684   5.666   0.361 -0.4656  1.4026  2.1768
 6419TIP3   OH219220   5.977   1.637   2.825  1.2450  0.0669 -0.5004
 6419TIP3    H119221   6.045   1.665   2.887  1.0053 -2.7907  1.2745
 6419TIP3    H219222   6.024   1.583   2.761  0.6864 -2.9326  1.4197
 6420TIP3   OH219223   6.218   2.982   1.729  0.3912  0.5225 -0.1512
 6420TIP3    H119224   6.126   3.008   1.727 -0.0555 -0.9765 -0.7345
 6420TIP3    H219225   6.229   2.941   1.815  0.9515  2.0478  0.5473
 6421TIP3   OH219226   3.861   2.312   1.276 -0.6439  0.0934  0.2601
 6421TIP3    H119227   3.886   2.404   1.264  1.6245 -0.6193 -1.1779
 6421TIP3    H219228   3.896   2.289   1.362 -1.2589  0.5850  0.6453
 6422TIP3   OH219229   5.660   3.214   2.597  0.0654  0.1115  0.2742
 6422TIP3    H119230   5.637   3.130   2.558  1.5391 -0.2180  0.0494
 6422TIP3    H219231   5.616   3.279   2.542  1.6263 -0.3762 -1.6710
 6423TIP3   OH219232   4.136   3.255   3.651 -0.2739  0.0829 -0.5825
 6423TIP3    H119233   4.116   3.203   3.573  1.6834 -0.4197 -0.8229
 6423TIP3    H219234   4.229   3.238   3.667 -0.4175  0.8850  1.3495
 6424TIP3   OH219235   6.283   5.946   4.529  0.3408  0.1219 -0.5744
 6424TIP3    H119236   6.351   5.942   4.596  0.1233  1.5389 -0.2469
 6424TIP3    H219237   6.327   5.983   4.452  0.7607 -2.0867 -1.4936
 6425TIP3   OH219238   6.931   1.177   5.178  0.3796 -0.4554  0.0352
 6425TIP3    H119239   6.848   1.217   5.154 -0.4122 -1.4888  0.9415
 6425TIP3    H219240   6.962   1.227   5.253  0.4800 -0.1953 -0.1789
 6426TIP3   OH219241   0.508   3.969   5.653 -0.2150  0.3366 -0.0897
 6426TIP3    H119242   0.533   4.048   5.605  0.1204  0.3775  0.1497
 6426TIP3    H219243   0.590   3.934   5.687  0.1260 -2.0325 -3.0323
 6427TIP3   OH219244   6.977   5.387   4.169 -0.5023  0.5156  0.3447
 6427TIP3    H119245   7.008   5.299   4.188 -1.5546  0.1084  0.2450
 6427TIP3    H219246   7.036   5.444   4.217 -0.8070 -0.3279  1.7870
 6428TIP3   OH219247   0.201   3.002   4.283 -0.3726 -0.4927  0.8423
 6428TIP3    H119248   0.205   2.913   4.319 -2.4930 -1.9954 -2.2178
 6428TIP3    H219249   0.136   3.047   4.338  1.6080 -0.2508  3.2072
 6429TIP3   OH219250   3.005   0.007   3.176 -0.5623  0.1014 -0.2717
 6429TIP3    H119251   3.002  -0.030   3.087  0.4481  0.9471 -0.6674
 6429TIP3    H219252   3.060   0.085   3.168 -0.7456  0.3800  1.0358
 6430TIP3   OH219253   0.231   1.789   1.091  0.5685  0.0412 -0.6240
 6430TIP3    H119254   0.300   1.804   1.027  0.3820 -0.2489 -0.8967
 6430TIP3    H219255   0.234   1.695   1.109 -0.8765 -0.2902 -1.9476
 6431TIP3   OH219256   5.996   6.218   4.768  0.1858 -0.5957 -0.1499
 6431TIP3    H119257   6.056   6.274   4.720  1.4734  0.1866  2.2378
 6431TIP3    H219258   5.910   6.238   4.731  1.1774 -0.6651 -2.6370
 6432TIP3   OH219259   6.103   0.353   0.128  0.6368  0.1856 -0.1894
 6432TIP3    H119260   6.023   0.321   0.169  0.1154  0.6080 -0.8574
 6432TIP3    H219261   6.165   0.364   0.200 -0.3418  1.1535  0.5155
 6433TIP3   OH219262   3.026   6.633   1.241  0.2298 -0.1263  0.2358
 6433TIP3    H119263   3.016   6.726   1.224 -1.7369 -0.3334  0.0268
 6433TIP3    H219264   2.989   6.620   1.328  1.0616 -0.6305  0.5302
 6434TIP3   OH219265   2.588   5.867   3.169  0.1497  0.2934  0.6878
 6434TIP3    H119266   2.552   5.949   3.203 -0.6369  0.7625 -1.1877
 6434TIP3    H219267   2.605   5.815   3.248  0.5352  2.1691  1.9282
 6435TIP3   OH219268   4.206   5.662   3.130 -0.1744  0.0105  0.7525
 6435TIP3    H119269   4.137   5.696   3.074  0.0701 -0.3452  0.2203
 6435TIP3    H219270   4.162   5.599   3.187 -0.3432  0.0167  0.6288
 6436TIP3   OH219271   6.382   4.543   3.210 -0.1231  0.0145  0.1027
 6436TIP3    H119272   6.409   4.493   3.287 -1.5284 -0.4548  0.3088
 6436TIP3    H219273   6.334   4.480   3.156 -0.9464  0.8641 -0.1711
 6437TIP3   OH219274   0.119   3.741   0.697  0.0573  0.3418 -0.3827
 6437TIP3    H119275   0.191   3.700   0.650  0.7195  0.5840  0.4055
 6437TIP3    H219276   0.104   3.685   0.772 -1.9283 -0.8216 -1.5568
 6438TIP3   OH219277   5.654   4.850   4.824 -0.1051  0.3279  0.1079
 6438TIP3    H119278   5.582   4.850   4.888  0.6774 -1.2123  1.0469
 6438TIP3    H219279   5.687   4.760   4.826  1.6973  0.9395 -0.4779
 6439TIP3   OH219280   0.025   5.228   0.131 -0.3098 -0.2897 -0.0447
 6439TIP3    H119281  -0.011   5.314   0.111  0.0616 -0.5105 -1.8731
 6439TIP3    H219282   0.120   5.241   0.129 -0.2572 -0.5938  0.3884
 6440TIP3   OH219283   2.972   2.840   2.675 -0.5311 -0.2011 -0.1579
 6440TIP3    H119284   3.027   2.765   2.653  1.1599  1.1604 -0.7581
 6440TIP3    H219285   2.981   2.899   2.601 -0.2544  1.4405  1.1143
 6441TIP3   OH219286   1.790   5.672   2.743 -0.1711  0.2589 -0.8020
 6441TIP3    H119287   1.860   5.637   2.798  0.9142  1.2443 -1.5266
 6441TIP3    H219288   1.779   5.763   2.774 -0.4356  0.4207 -1.3641
 6442TIP3   OH219289   3.351   4.251   4.874 -0.2899  0.2679  0.0083
 6442TIP3    H119290   3.419   4.239   4.808  1.5694 -0.0694  1.8424
 6442TIP3    H219291   3.385   4.205   4.951 -1.8473  1.5151  1.5225
 6443TIP3   OH219292   5.515   5.363   4.955  0.4790  0.1547  0.5724
 6443TIP3    H119293   5.610   5.372   4.961  0.3118  2.2055  0.6149
 6443TIP3    H219294   5.499   5.344   4.862  0.8382  1.3459  0.2552
 6444TIP3   OH219295   1.685   5.444   4.981  0.1990 -0.0442 -0.0274
 6444TIP3    H119296   1.629   5.495   5.040 -0.2896  0.8051 -1.1911
 6444TIP3    H219297   1.629   5.423   4.907  0.4925 -2.0479  0.2601
 6445TIP3   OH219298   4.981   4.818   5.313 -0.1065 -0.2174  0.4447
 6445TIP3    H119299   4.938   4.759   5.376  1.5730 -0.9796  0.9439
 6445TIP3    H219300   5.020   4.759   5.248  2.3748  0.1806  1.4385
 6446TIP3   OH219301   2.089   0.552   5.353 -0.0496 -0.2668  0.2488
 6446TIP3    H119302   2.047   0.508   5.427 -2.0210 -0.1647 -0.7433
 6446TIP3    H219303   2.044   0.636   5.346 -0.2794 -0.4935 -1.3697
 6447TIP3   OH219304   0.047   1.125   2.508  0.0259 -0.2443 -0.2878
 6447TIP3    H119305   0.069   1.117   2.600 -0.2445 -0.0198 -0.2009
 6447TIP3    H219306   0.087   1.048   2.466  0.6519 -0.0285 -0.0822
 6448TIP3   OH219307   6.040   4.921   2.906 -0.2411 -0.2909  0.1599
 6448TIP3    H119308   6.009   4.830   2.905 -1.9335  0.2557  0.1219
 6448TIP3    H219309   5.962   4.973   2.928  0.1887  1.3267 -1.8123
 6449TIP3   OH219310   5.510   4.194   3.324  0.1496 -0.6683  0.5397
 6449TIP3    H119311   5.596   4.235   3.311  0.8499 -1.6945  1.7378
 6449TIP3    H219312   5.529   4.109   3.362 -1.3228 -1.8104 -1.1304
 6450TIP3   OH219313   1.487   2.342   2.356 -0.3950  0.0855 -0.5395
 6450TIP3    H119314   1.490   2.273   2.423  0.0877  1.0851  0.4960
 6450TIP3    H219315   1.544   2.310   2.287 -1.9009 -1.5635 -1.1012
 6451TIP3   OH219316   5.324   6.183   5.436 -0.0281  0.1171 -0.4127
 6451TIP3    H119317   5.385   6.133   5.383 -0.0407 -0.7856  0.4026
 6451TIP3    H219318   5.243   6.132   5.435 -0.4846  0.8351 -0.7242
 6452TIP3   OH219319   1.027   5.925   1.931 -0.0279 -0.4180 -0.0510
 6452TIP3    H119320   1.086   5.852   1.951  0.1463 -0.7373 -1.6191
 6452TIP3    H219321   1.081   5.987   1.881 -0.1592  0.8485  1.3009
 6453TIP3   OH219322   6.930   1.164   2.736 -0.5250 -0.6341  0.4192
 6453TIP3    H119323   7.020   1.165   2.769 -0.8665 -0.7956  1.3814
 6453TIP3    H219324   6.907   1.071   2.733 -1.3032 -0.5129  2.0018
 6454TIP3   OH219325   0.201   1.043   2.745  0.3229 -0.7784 -0.1809
 6454TIP3    H119326   0.239   1.053   2.832  1.7277  1.9845 -0.9952
 6454TIP3    H219327   0.242   0.965   2.709  2.1248 -0.2180  0.5318
 6455TIP3   OH219328   4.745   1.727   2.213 -0.3603  0.3130  0.4736
 6455TIP3    H119329   4.816   1.727   2.277 -2.5222  2.3070  3.1217
 6455TIP3    H219330   4.703   1.813   2.224 -2.2258 -0.1653 -2.0598
 6456TIP3   OH219331   2.979   4.488   3.564  0.1176 -0.2134  0.1080
 6456TIP3    H119332   3.034   4.506   3.640  1.6388 -0.5620 -0.8603
 6456TIP3    H219333   2.891   4.475   3.600  0.0398  3.0533  1.4798
 6457TIP3   OH219334   3.418   2.192   1.106 -0.6933 -0.3327  0.1578
 6457TIP3    H119335   3.462   2.248   1.170 -1.3546 -1.3881  1.5977
 6457TIP3    H219336   3.425   2.240   1.023  0.0304  1.1646  1.0416
 6458TIP3   OH219337   3.883   3.080   3.794 -0.5523  0.3568 -0.0348
 6458TIP3    H119338   3.919   3.164   3.822 -1.4777  0.5462  0.6410
 6458TIP3    H219339   3.934   3.057   3.716 -0.2456  1.5126 -0.1952
 6459TIP3   OH219340   6.122   3.126   0.524  0.0866  0.0672  0.2593
 6459TIP3    H119341   6.143   3.144   0.615  0.4672 -2.9171  0.8569
 6459TIP3    H219342   6.061   3.195   0.499 -2.8641 -0.9220  3.9036
 6460TIP3   OH219343   6.985   0.736   4.862 -0.1893  0.0761 -0.0738
 6460TIP3    H119344   6.912   0.796   4.879  0.8477  2.2290 -2.4521
 6460TIP3    H219345   7.036   0.737   4.943 -2.1067 -0.5300  1.2047
 6461TIP3   OH219346   2.054   4.463   4.304 -0.1280 -0.5312 -0.3537
 6461TIP3    H119347   2.148   4.479   4.296 -0.4791  0.9209 -2.7014
 6461TIP3    H219348   2.031   4.496   4.392  1.2863  0.6676 -0.4063
 6462TIP3   OH219349   5.639   1.830   2.946  0.2090 -0.5223  0.1054
 6462TIP3    H119350   5.675   1.907   2.990 -1.7070  0.8556 -0.5871
 6462TIP3    H219351   5.578   1.793   3.010  0.8175 -1.2502  0.2790
 6463TIP3   OH219352   2.966   1.854   2.334 -0.1596  0.2997 -0.0207
 6463TIP3    H119353   2.879   1.843   2.296  0.7606  2.9215 -3.4504
 6463TIP3    H219354   2.967   1.945   2.364  1.5871  0.5694 -0.7830
 6464TIP3   OH219355   6.474   1.580   4.885 -0.2552  0.2095  0.3203
 6464TIP3    H119356   6.429   1.664   4.896  0.6458  0.6649  0.6388
 6464TIP3    H219357   6.543   1.597   4.821 -1.1141 -0.7266 -0.9076
 6465TIP3   OH219358   0.948   6.462   0.601 -0.2175 -0.4062  0.3216
 6465TIP3    H119359   0.892   6.459   0.678 -0.6950  0.6854  0.0269
 6465TIP3    H219360   0.933   6.548   0.562 -1.2646 -1.5262 -1.9586
 6466TIP3   OH219361   1.161   2.806   1.550  0.1832  0.1968  0.3888
 6466TIP3    H119362   1.097   2.736   1.562 -0.5473  0.7605 -0.0849
 6466TIP3    H219363   1.156   2.826   1.456 -1.6532  2.7448  0.9332
 6467TIP3   OH219364   2.862   3.588   2.138  0.3878  0.3834  0.2852
 6467TIP3    H119365   2.910   3.599   2.220 -1.2331  1.2700  1.1573
 6467TIP3    H219366   2.827   3.675   2.119 -0.5205 -0.1457 -0.5505
 6468TIP3   OH219367   0.741   2.592   1.995 -0.8411  0.0208 -0.3578
 6468TIP3    H119368   0.667   2.648   2.022 -0.0474 -0.7079  4.2434
 6468TIP3    H219369   0.815   2.652   1.989 -0.6927  0.0254  1.0900
 6469TIP3   OH219370   1.977   3.373   5.447 -0.4758  0.5495  0.0205
 6469TIP3    H119371   1.899   3.319   5.465 -0.6078  1.1271  1.2675
 6469TIP3    H219372   2.045   3.336   5.504  0.1511  0.1338 -0.9651
 6470TIP3   OH219373   0.443   6.187   5.349  0.9677  0.2895  0.4660
 6470TIP3    H119374   0.446   6.277   5.384 -1.5489  0.2838  0.9094
 6470TIP3    H219375   0.353   6.159   5.364  1.3811 -1.9087 -0.7611
 6471TIP3   OH219376   6.506   0.554   4.739 -0.1917  0.0991 -0.3387
 6471TIP3    H119377   6.535   0.545   4.830 -0.5472 -0.3290 -0.2675
 6471TIP3    H219378   6.566   0.619   4.702 -1.7221  2.4113  0.9577
 6472TIP3   OH219379   1.343   1.434   2.304  0.2327  0.4531  0.0498
 6472TIP3    H119380   1.408   1.430   2.374  0.3828 -2.0720 -0.1598
 6472TIP3    H219381   1.361   1.517   2.260  2.9650  0.1114  0.3476
 6473TIP3   OH219382   6.859   5.578   0.247 -0.2089  0.8284  0.3205
 6473TIP3    H119383   6.769   5.610   0.242 -0.8354 -0.7956  0.5866
 6473TIP3    H219384   6.908   5.634   0.188 -1.1079  2.6305  1.2192
 6474TIP3   OH219385   6.340   2.031   2.132 -0.1789  0.1129 -0.4564
 6474TIP3    H119386   6.393   2.043   2.053  0.4232  0.1151 -0.0592
 6474TIP3    H219387   6.404   2.021   2.202 -0.6873  1.6368  0.2670
 6475TIP3   OH219388   5.195   5.743   3.412  0.0814 -1.1157 -0.0008
 6475TIP3    H119389   5.272   5.712   3.364  0.4735 -1.3086  0.7456
 6475TIP3    H219390   5.124   5.738   3.348  1.1018  1.3112 -1.4498
 6476TIP3   OH219391   0.702   0.715   4.513 -0.0256  0.1104  0.4543
 6476TIP3    H119392   0.786   0.671   4.530  0.3693  0.6885  0.0303
 6476TIP3    H219393   0.716   0.805   4.542 -0.1610  0.4719 -0.5685
 6477TIP3   OH219394   2.669   5.690   4.440 -0.4011  0.5538 -0.7027
 6477TIP3    H119395   2.706   5.615   4.393 -0.3934  0.8188 -1.1227
 6477TIP3    H219396   2.599   5.653   4.493  1.7327 -0.3362  1.7238
 6478TIP3   OH219397   3.640   3.784   3.482 -0.6301 -0.3629 -0.2335
 6478TIP3    H119398   3.649   3.864   3.534  1.0929 -0.4199 -0.3923
 6478TIP3    H219399   3.570   3.735   3.527 -0.9696  0.7380  0.4902
 6479TIP3   OH219400   4.858   1.004   1.147  0.1650 -0.1451  0.4098
 6479TIP3    H119401   4.915   1.074   1.114  0.5900 -0.2661  0.8716
 6479TIP3    H219402   4.840   1.029   1.238 -0.6343 -0.0420  0.2330
 6480TIP3   OH219403   0.153   4.254   3.999  0.4073  0.2656 -0.3925
 6480TIP3    H119404   0.060   4.265   4.021  0.7156  1.6331  0.3730
 6480TIP3    H219405   0.199   4.283   4.078  1.4907  0.3226 -1.0386
 6481TIP3   OH219406   6.169   5.739   4.705  0.1410 -0.5223  0.2645
 6481TIP3    H119407   6.263   5.758   4.698  0.3250 -0.1235  2.8710
 6481TIP3    H219408   6.136   5.803   4.767 -1.3678 -2.1295  1.2103
 6482TIP3   OH219409   2.734   6.500   1.678 -0.2865  0.4312 -0.2155
 6482TIP3    H119410   2.787   6.526   1.754  0.5712 -1.5068 -0.0797
 6482TIP3    H219411   2.652   6.547   1.688  0.1037  0.8007  1.5191
 6483TIP3   OH219412   2.284   3.255   3.245 -0.3133 -0.0185  0.1657
 6483TIP3    H119413   2.252   3.228   3.331  2.6962  0.7769  1.6750
 6483TIP3    H219414   2.256   3.186   3.186  1.0360 -2.8625  2.5724
 6484TIP3   OH219415   1.659   6.091   3.070  0.0236 -0.0509  0.7075
 6484TIP3    H119416   1.647   6.007   3.114 -0.1307 -0.3437  0.1059
 6484TIP3    H219417   1.662   6.155   3.142 -1.4998 -0.3824  1.0966
 6485TIP3   OH219418   6.733   1.601   2.449 -0.1504  0.3108  0.4087
 6485TIP3    H119419   6.779   1.602   2.365 -0.9917  0.7516 -0.0609
 6485TIP3    H219420   6.785   1.542   2.504  0.5955  0.2798 -0.3107
 6486TIP3   OH219421   5.869   6.132   4.208  0.5395 -0.1927  0.1586
 6486TIP3    H119422   5.803   6.162   4.270  0.8820  0.9156  0.0046
 6486TIP3    H219423   5.825   6.135   4.123  0.5021 -0.3629  0.1713
 6487TIP3   OH219424   6.612   3.430   4.412 -0.4217 -0.0189 -0.2256
 6487TIP3    H119425   6.603   3.443   4.506  0.7108  0.0471 -0.1124
 6487TIP3    H219426   6.596   3.336   4.400  0.7948 -0.3058  0.2349
 6488TIP3   OH219427   0.457   5.836   2.535  0.1268 -0.6025 -0.4968
 6488TIP3    H119428   0.451   5.846   2.630  2.7124  0.2183 -0.3413
 6488TIP3    H219429   0.478   5.743   2.522  0.1619 -0.6310 -0.2415
 6489TIP3   OH219430   0.370   2.838   0.888 -0.3241 -0.3976  0.4167
 6489TIP3    H119431   0.434   2.852   0.958  0.0891  0.0141 -0.0269
 6489TIP3    H219432   0.391   2.906   0.824 -1.1610 -0.3107  0.2267
 6490TIP3   OH219433   3.202   5.963   3.962  0.4503  0.5434  0.1771
 6490TIP3    H119434   3.176   6.006   3.881 -0.2761 -0.2728 -0.0350
 6490TIP3    H219435   3.120   5.937   4.003  0.8438  0.1650  0.7435
 6491TIP3   OH219436   1.247   5.314   3.067  0.3114  0.3911 -0.3492
 6491TIP3    H119437   1.256   5.408   3.081  1.1359  0.2236  0.2841
 6491TIP3    H219438   1.293   5.298   2.984 -0.4853  0.6527 -0.8520
 6492TIP3   OH219439   2.262   3.274   3.732  0.5641  0.0815 -0.3347
 6492TIP3    H119440   2.287   3.349   3.787  0.5648  0.0121 -0.2399
 6492TIP3    H219441   2.201   3.310   3.668 -0.3688 -0.0706  0.4537
 6493TIP3   OH219442   4.170   2.893   3.788 -0.2288  0.7677 -0.0941
 6493TIP3    H119443   4.083   2.868   3.757 -0.5964  2.4360 -0.5089
 6493TIP3    H219444   4.214   2.930   3.712  0.6731  0.4030  0.2293
 6494TIP3   OH219445   6.988   4.928   0.843  0.0810  0.1985 -0.1890
 6494TIP3    H119446   6.926   4.954   0.775  0.4682  0.7620 -0.3305
 6494TIP3    H219447   7.009   5.010   0.889  1.4982  0.1954 -0.7883
 6495TIP3   OH219448   2.800   1.105   1.362  0.0325  0.2967 -0.0321
 6495TIP3    H119449   2.867   1.063   1.309 -0.1067  0.6157 -0.4684
 6495TIP3    H219450   2.720   1.100   1.309  0.2466  2.0799 -0.6037
 6496TIP3   OH219451   3.883   5.047   2.251  0.6910  0.5716  0.0607
 6496TIP3    H119452   3.955   5.083   2.304  1.1826  0.9499 -0.8342
 6496TIP3    H219453   3.927   5.005   2.177  0.0010  0.4036 -0.2611
 6497TIP3   OH219454   0.660   4.083   4.715  0.6417  0.4516  0.2615
 6497TIP3    H119455   0.672   4.122   4.802  1.8492  1.2179 -0.2287
 6497TIP3    H219456   0.685   3.992   4.727 -2.1685 -0.2947  1.4080
 6498TIP3   OH219457   6.790   5.097   1.206 -0.6130  0.2641  0.8770
 6498TIP3    H119458   6.801   5.018   1.152 -1.5972  0.2297  0.7062
 6498TIP3    H219459   6.705   5.132   1.179 -0.7859  0.6504  1.9041
 6499TIP3   OH219460   0.132   4.218   1.083 -0.1408  0.3975  0.0844
 6499TIP3    H119461   0.174   4.160   1.020 -1.4101 -0.9491  0.4159
 6499TIP3    H219462   0.038   4.202   1.071 -0.5768  2.7396 -0.1278
 6500TIP3   OH219463   6.990   1.371   0.458 -0.0788 -0.2899 -0.2653
 6500TIP3    H119464   7.047   1.449   0.464 -1.1874  0.6037 -1.0322
 6500TIP3    H219465   7.026   1.311   0.524  1.7179  0.2570 -0.6894
 6501TIP3   OH219466   3.778   3.040   5.847 -0.2151  0.0785 -0.3705
 6501TIP3    H119467   3.778   3.135   5.858  0.4024 -0.0541  0.9347
 6501TIP3    H219468   3.813   3.006   5.929 -1.6878 -1.3399 -0.2773
 6502TIP3   OH219469   3.315   5.447   4.599  0.3031  0.3094  0.1191
 6502TIP3    H119470   3.256   5.490   4.538 -1.4648 -0.2818  1.3423
 6502TIP3    H219471   3.307   5.353   4.579  0.4830  0.1929  0.5708
 6503TIP3   OH219472   1.379   3.871   2.382  0.2408 -0.0982  0.4193
 6503TIP3    H119473   1.384   3.884   2.477  2.1700 -0.7724  0.4533
 6503TIP3    H219474   1.337   3.785   2.372 -3.0435  1.3345  0.4826
 6504TIP3   OH219475   6.953   2.558   0.522  0.4787  0.3710  0.1952
 6504TIP3    H119476   6.972   2.518   0.437  0.0596 -0.5115  0.5087
 6504TIP3    H219477   7.038   2.561   0.566  0.9738  2.1096 -0.7490
 6505TIP3   OH219478   1.709   2.011   1.057  0.7585  0.8943  0.3387
 6505TIP3    H119479   1.768   1.964   0.998 -0.5005 -0.3103 -0.0139
 6505TIP3    H219480   1.679   1.944   1.119  0.2198  1.6213  0.8802
 6506TIP3   OH219481   5.516   1.127   0.708  0.2948  0.4474 -0.1849
 6506TIP3    H119482   5.515   1.216   0.743  0.1516  1.0069 -1.5730
 6506TIP3    H219483   5.566   1.077   0.773  0.4030  1.5282  0.6037
 6507TIP3   OH219484   4.618   1.517   5.664  0.0469 -0.0759 -0.6780
 6507TIP3    H119485   4.637   1.513   5.571 -3.1250 -3.5246 -1.3955
 6507TIP3    H219486   4.650   1.433   5.699 -2.0273 -0.4360  0.5193
 6508TIP3   OH219487   4.094   1.415   1.885  0.4290  0.5586 -0.2549
 6508TIP3    H119488   4.128   1.454   1.804  2.1811  2.1965  1.1838
 6508TIP3    H219489   4.166   1.363   1.919  0.0290  0.6174  0.7162
 6509TIP3   OH219490   0.852   2.129   0.751 -0.0574 -0.1186 -0.3771
 6509TIP3    H119491   0.787   2.137   0.821 -0.7988 -2.1073 -0.7769
 6509TIP3    H219492   0.884   2.039   0.758 -0.1033 -0.3570 -2.5280
 6510TIP3   OH219493   3.978   3.158   2.974 -0.2416  0.2321  0.0532
 6510TIP3    H119494   3.942   3.120   2.893 -0.2913 -0.1988  0.2789
 6510TIP3    H219495   3.931   3.114   3.044  1.2433 -0.8849  0.3827
 6511TIP3   OH219496   2.059   5.400   4.534 -0.3877  0.1673 -0.4193
 6511TIP3    H119497   2.045   5.392   4.629 -2.1197  0.5402 -0.6069
 6511TIP3    H219498   2.008   5.329   4.496  0.7914 -0.3544 -1.0723
 6512TIP3   OH219499   3.697   2.667   0.033 -0.3627 -0.0469  0.3592
 6512TIP3    H119500   3.714   2.577   0.061  0.1970  0.3495  1.3536
 6512TIP3    H219501   3.608   2.665  -0.003 -0.8328 -0.7435  1.5185
 6513TIP3   OH219502   2.060   1.744   2.826  0.5141 -0.1721  0.3127
 6513TIP3    H119503   2.007   1.704   2.895 -0.1587 -0.9545 -0.6312
 6513TIP3    H219504   2.035   1.837   2.827 -2.5680 -0.8543 -1.5166
 6514TIP3   OH219505   5.848   1.344   4.031  0.4328 -0.1223 -0.5515
 6514TIP3    H119506   5.832   1.366   4.122  0.2069  0.2651 -0.6817
 6514TIP3    H219507   5.943   1.339   4.024  0.5313  1.3851 -0.6320
 6515TIP3   OH219508   6.696   1.871   1.250 -0.1205 -0.4278 -0.5196
 6515TIP3    H119509   6.645   1.936   1.298 -1.0274 -1.5318  0.0575
 6515TIP3    H219510   6.785   1.880   1.284 -0.7744 -1.3049  1.5486
 6516TIP3   OH219511   3.584   1.570   5.696 -0.7580  0.2964  0.1460
 6516TIP3    H119512   3.678   1.561   5.714 -0.5715 -0.1466 -0.9557
 6516TIP3    H219513   3.571   1.525   5.613 -1.6485  1.7310 -0.5379
 6517TIP3   OH219514   5.811   1.952   2.713  0.4955 -0.2871  0.0931
 6517TIP3    H119515   5.733   1.896   2.706  0.2683 -0.0087  0.3481
 6517TIP3    H219516   5.863   1.931   2.636 -1.1600  1.5628 -1.6609
 6518TIP3   OH219517   4.186   4.858   3.748  0.2225  0.0290  0.2590
 6518TIP3    H119518   4.182   4.953   3.744  1.0393  0.0360 -1.7614
 6518TIP3    H219519   4.206   4.838   3.840 -0.5358  1.7541  0.8308
 6519TIP3   OH219520   6.074   2.207   3.803  0.0329  0.2856  0.1967
 6519TIP3    H119521   6.072   2.178   3.712 -0.2127 -0.4140  0.4165
 6519TIP3    H219522   6.159   2.176   3.836  0.2185  0.7346  0.1468
 6520TIP3   OH219523   0.159   6.719   1.973 -0.3319  0.3115 -0.2985
 6520TIP3    H119524   0.190   6.784   1.910 -1.5039  1.1227 -0.0464
 6520TIP3    H219525   0.107   6.658   1.921  2.4538 -1.7425 -0.9575
 6521TIP3   OH219526   1.014   0.580   4.264  0.4719  0.2129  0.2309
 6521TIP3    H119527   1.017   0.653   4.202  0.4904 -0.0035 -0.0279
 6521TIP3    H219528   1.066   0.610   4.339 -0.5881  0.9656  0.6868
 6522TIP3   OH219529   4.268   3.164   2.118 -0.7093  0.0175  0.5815
 6522TIP3    H119530   4.200   3.220   2.154 -1.9194 -0.0302 -1.4272
 6522TIP3    H219531   4.223   3.114   2.049  1.4958  0.5185 -1.3510
 6523TIP3   OH219532   5.733   1.805   0.191  0.0616 -0.0914  0.3579
 6523TIP3    H119533   5.827   1.812   0.175 -0.2688 -0.2641 -2.0366
 6523TIP3    H219534   5.714   1.711   0.184 -0.6696  0.1802 -2.0462
 6524TIP3   OH219535   5.718   3.029   0.562 -0.2483 -0.1833  0.1881
 6524TIP3    H119536   5.685   2.941   0.543 -0.0349  0.1356 -2.0092
 6524TIP3    H219537   5.812   3.017   0.575 -0.0225 -0.1942 -1.2417
 6525TIP3   OH219538   0.636   6.721   4.383 -0.3676  0.5945  0.1107
 6525TIP3    H119539   0.703   6.698   4.448 -0.5052  0.5055  0.2227
 6525TIP3    H219540   0.638   6.816   4.378 -0.6707  0.6299  0.5858
 6526TIP3   OH219541   0.770   0.419   4.339  0.0740  0.2417 -0.1543
 6526TIP3    H119542   0.768   0.422   4.434  0.0821 -1.6834 -0.0631
 6526TIP3    H219543   0.826   0.493   4.314 -0.3387  1.0855  1.2787
 6527TIP3   OH219544   6.003   1.172   5.424 -0.2606  0.2973 -0.6044
 6527TIP3    H119545   6.077   1.111   5.433  0.3626  1.0272 -0.6710
 6527TIP3    H219546   5.975   1.163   5.333 -0.6173 -0.3768 -0.4377
 6528TIP3   OH219547   1.907   5.281   2.995 -0.0921  0.4256 -0.7052
 6528TIP3    H119548   1.906   5.214   2.927  1.0939 -3.1873  2.4724
 6528TIP3    H219549   1.838   5.255   3.056  0.0209  2.4696  0.3913
 6529TIP3   OH219550   1.687   2.406   3.736  1.1483 -0.4189 -0.0301
 6529TIP3    H119551   1.624   2.459   3.785  1.7752 -1.8537  2.5288
 6529TIP3    H219552   1.749   2.470   3.700 -0.7888  0.8836 -1.2286
 6530TIP3   OH219553   0.714   1.719   4.885 -0.3522  0.4081  0.0144
 6530TIP3    H119554   0.686   1.799   4.840  0.7810  0.5765 -0.4174
 6530TIP3    H219555   0.641   1.658   4.873 -0.8942  1.1159 -0.3298
 6531TIP3   OH219556   3.752   5.402   0.577  0.3412  0.3343  0.1635
 6531TIP3    H119557   3.809   5.446   0.514 -0.0612 -0.9667 -1.1541
 6531TIP3    H219558   3.665   5.406   0.538 -0.2684  1.1248  1.5292
 6532TIP3   OH219559   4.194   6.320   5.128  0.3702  0.7539  0.3529
 6532TIP3    H119560   4.256   6.279   5.189  0.0551  1.2135  0.9989
 6532TIP3    H219561   4.131   6.365   5.185 -0.3570  0.5841 -0.3002
 6533TIP3   OH219562   1.707   0.946   3.939 -0.4213 -0.4722 -0.6508
 6533TIP3    H119563   1.723   0.950   3.845  0.3831 -2.9444 -0.6950
 6533TIP3    H219564   1.794   0.960   3.978 -0.3662 -1.5184 -0.3790
 6534TIP3   OH219565   2.076   2.886   1.413  0.0816  0.2958 -0.2232
 6534TIP3    H119566   2.022   2.893   1.335  0.2133 -0.1213 -0.3525
 6534TIP3    H219567   2.027   2.934   1.480 -0.5099 -0.1869 -0.3020
 6535TIP3   OH219568   0.522   3.906   3.683  0.2731 -0.7033  0.1607
 6535TIP3    H119569   0.431   3.877   3.693  0.2296 -0.6435 -0.0601
 6535TIP3    H219570   0.562   3.887   3.768 -0.1423 -0.0081  0.5283
 6536TIP3   OH219571   2.391   2.633   1.653  0.3975 -0.5204 -0.0258
 6536TIP3    H119572   2.374   2.620   1.747  1.5004  0.4434  0.3361
 6536TIP3    H219573   2.469   2.581   1.635 -0.6626 -1.9094 -0.7895
 6537TIP3   OH219574   0.667   4.631   3.395 -0.1896  0.2455 -0.5680
 6537TIP3    H119575   0.593   4.652   3.452 -0.3216  1.6126 -1.1872
 6537TIP3    H219576   0.627   4.596   3.316 -0.0668 -0.6547 -0.2367
 6538TIP3   OH219577   4.372   4.929   5.562  0.0255  0.3999 -0.1422
 6538TIP3    H119578   4.287   4.935   5.608  0.0410 -1.4100  0.1984
 6538TIP3    H219579   4.433   4.900   5.630  1.3363  3.2228  0.0155
 6539TIP3   OH219580   1.534   4.604   3.918  0.5463 -0.0043 -0.1856
 6539TIP3    H119581   1.570   4.619   4.006  0.7665  0.2962 -0.3209
 6539TIP3    H219582   1.512   4.511   3.916  0.4745  0.0030  0.2128
 6540TIP3   OH219583   1.474   3.676   1.663  0.2521 -0.2603 -0.2158
 6540TIP3    H119584   1.456   3.718   1.747  0.7733  0.8176 -0.6309
 6540TIP3    H219585   1.416   3.599   1.662 -3.2234  2.1375 -0.8113
 6541TIP3   OH219586   5.340   2.961   1.240  0.1456 -0.5913 -0.2062
 6541TIP3    H119587   5.361   2.875   1.204  1.0665 -0.5131  0.1123
 6541TIP3    H219588   5.301   2.943   1.325  0.5452 -0.6970 -0.0421
 6542TIP3   OH219589   5.587   2.024   0.315 -0.1645 -0.5962 -0.1139
 6542TIP3    H119590   5.516   2.006   0.376 -0.8148 -1.3789 -1.0791
 6542TIP3    H219591   5.605   1.940   0.273 -1.0857  0.2562 -2.4201
 6543TIP3   OH219592   6.012   3.357   1.981 -0.3485 -0.4374 -0.5677
 6543TIP3    H119593   6.064   3.371   2.060 -1.7412 -0.7990  0.4337
 6543TIP3    H219594   5.956   3.434   1.975  0.4888  0.1058 -1.8234
 6544TIP3   OH219595   3.773   6.334   3.517 -0.3171  0.4359  0.3254
 6544TIP3    H119596   3.797   6.311   3.606 -0.7131 -0.9013  0.1250
 6544TIP3    H219597   3.677   6.334   3.517 -0.4687 -3.1589 -0.8321
 6545TIP3   OH219598   3.419   5.630   4.380  0.0169  0.8451 -0.2713
 6545TIP3    H119599   3.442   5.594   4.466  1.1018  0.0507 -0.8678
 6545TIP3    H219600   3.503   5.658   4.343 -0.4188  1.0450 -1.1368
 6546TIP3   OH219601   6.170   0.890   3.486  0.5896 -0.4958 -0.1654
 6546TIP3    H119602   6.180   0.944   3.408  0.1575  0.3622  0.3591
 6546TIP3    H219603   6.256   0.892   3.529  0.2622  0.8117  0.4913
 6547TIP3   OH219604   3.619   2.937   2.687 -0.8889 -0.0199  0.0916
 6547TIP3    H119605   3.615   3.028   2.716 -1.4908 -0.3809  1.2162
 6547TIP3    H219606   3.597   2.887   2.765  0.9849 -1.2153 -0.0875
 6548TIP3   OH219607   4.833   4.314   2.105  0.1457  0.1847  0.3568
 6548TIP3    H119608   4.776   4.335   2.031 -0.4511  1.4734  1.1420
 6548TIP3    H219609   4.890   4.390   2.114  1.3071 -0.6432  0.2375
 6549TIP3   OH219610   4.797   3.879   1.114 -0.1083 -0.0972 -0.6481
 6549TIP3    H119611   4.747   3.914   1.040  1.1764 -1.6948 -2.3733
 6549TIP3    H219612   4.888   3.889   1.087  0.3501 -3.0232 -0.4679
 6550TIP3   OH219613   0.715   2.035   0.107  0.5722  0.4375  0.4363
 6550TIP3    H119614   0.785   2.075   0.158  0.4160  0.7911  0.3754
 6550TIP3    H219615   0.642   2.097   0.114 -0.2644 -0.6423  1.7935
 6551TIP3   OH219616   0.177   5.172   0.637  0.6963  0.6712 -0.7741
 6551TIP3    H119617   0.107   5.195   0.576  0.2852  0.8919 -0.2342
 6551TIP3    H219618   0.175   5.077   0.641 -1.1850  0.6969  1.0095
 6552TIP3   OH219619   6.581   5.606   3.127  0.4125 -0.4230 -0.3225
 6552TIP3    H119620   6.499   5.569   3.096 -0.6250  1.6507 -0.2138
 6552TIP3    H219621   6.631   5.625   3.047 -0.5403  1.1099 -0.6061
 6553TIP3   OH219622   4.487   0.486   0.365  0.3318  0.1116  0.3058
 6553TIP3    H119623   4.411   0.450   0.412  0.8232 -0.8994  0.3591
 6553TIP3    H219624   4.499   0.427   0.290  0.1194  1.1783 -0.5926
 6554TIP3   OH219625   4.052   0.075   5.169 -0.9056  0.6775 -0.1303
 6554TIP3    H119626   4.114   0.011   5.133  0.0187  1.7267 -0.4450
 6554TIP3    H219627   4.023   0.036   5.251  0.3462  0.2534  0.1340
 6555TIP3   OH219628   4.384   0.182   1.797  0.7153 -0.0321  0.3708
 6555TIP3    H119629   4.300   0.151   1.832  0.6273  0.7636  0.8971
 6555TIP3    H219630   4.404   0.260   1.849  1.1815  0.4846 -0.5533
 6556TIP3   OH219631   2.370   5.303   2.687 -0.4527  0.6344  0.4899
 6556TIP3    H119632   2.419   5.349   2.619  0.6589 -0.5053  0.4828
 6556TIP3    H219633   2.437   5.263   2.741 -1.3700 -0.7009  0.6783
 6557TIP3   OH219634   3.184   1.297   3.503 -0.0236 -0.2067  0.7662
 6557TIP3    H119635   3.233   1.349   3.440  0.9451 -0.1727  1.5306
 6557TIP3    H219636   3.155   1.220   3.453  0.3334  0.0383  0.1712
 6558TIP3   OH219637   0.031   1.721   0.849 -0.0376 -0.2059  0.1580
 6558TIP3    H119638   0.011   1.763   0.933  2.4664  0.0970  0.6540
 6558TIP3    H219639   0.086   1.646   0.871  0.5949 -0.1802 -1.1951
 6559TIP3   OH219640   6.318   5.359   2.333  0.3598 -0.2074  0.4265
 6559TIP3    H119641   6.392   5.356   2.393  0.3165  2.0186  0.6482
 6559TIP3    H219642   6.357   5.371   2.246  0.2818  1.0503  0.5529
 6560TIP3   OH219643   2.952   4.377   2.899  0.4802 -0.3147 -0.3028
 6560TIP3    H119644   2.978   4.287   2.882  0.4191 -0.3957  0.0327
 6560TIP3    H219645   3.033   4.422   2.923  0.5598 -0.2101 -0.7462
 6561TIP3   OH219646   5.993   5.753   1.252  0.4288  0.4831  0.4767
 6561TIP3    H119647   5.987   5.657   1.244 -2.2195  0.6417 -0.4624
 6561TIP3    H219648   5.911   5.778   1.294  0.6520  2.4204 -0.1666
 6562TIP3   OH219649   3.435   2.928   2.215 -0.3771  0.1907 -0.2603
 6562TIP3    H119650   3.375   2.941   2.143 -1.2214 -2.4569 -0.1331
 6562TIP3    H219651   3.429   2.835   2.236 -1.7257  1.0808  4.5537
 6563TIP3   OH219652   7.217   5.152   4.406 -0.0944 -0.5338 -0.0568
 6563TIP3    H119653   7.133   5.193   4.427  0.9370  1.9691 -0.5187
 6563TIP3    H219654   7.280   5.224   4.407  1.8933 -2.1780 -0.7043
 6564TIP3   OH219655   6.567   5.519   2.238  0.5589 -0.0152  0.8987
 6564TIP3    H119656   6.533   5.467   2.166 -1.2832  0.8137  1.1184
 6564TIP3    H219657   6.637   5.572   2.199  1.3298 -1.4150  0.3256
 6565TIP3   OH219658   5.112   2.302   3.358 -0.1241 -0.4961  0.4306
 6565TIP3    H119659   5.075   2.248   3.288  1.7812 -2.8463  1.1004
 6565TIP3    H219660   5.059   2.283   3.435 -1.4308  1.1294 -0.0019
 6566TIP3   OH219661   3.702   6.648   5.865 -0.0955 -0.1896  0.2786
 6566TIP3    H119662   3.706   6.575   5.803 -1.3588 -0.5453  0.5834
 6566TIP3    H219663   3.698   6.606   5.951  0.0713  0.2681  0.5139
 6567TIP3   OH219664   2.240   5.418   3.325  0.0602 -0.6663 -0.1371
 6567TIP3    H119665   2.256   5.478   3.398 -0.0919  1.0961 -1.4778
 6567TIP3    H219666   2.326   5.406   3.285 -0.2751  0.7710 -1.3856
 6568TIP3   OH219667   3.948   2.066   4.894 -0.2303 -0.5237  0.3471
 6568TIP3    H119668   4.043   2.063   4.894 -0.1953  0.2074 -0.1512
 6568TIP3    H219669   3.921   1.991   4.946  0.6231 -0.6058  0.6840
 6569TIP3   OH219670   2.482   5.595   5.144 -0.1263  0.0443 -0.0865
 6569TIP3    H119671   2.502   5.509   5.181 -0.4578  0.1400  0.3255
 6569TIP3    H219672   2.527   5.657   5.201  1.3830  0.0852 -1.2618
 6570TIP3   OH219673   2.863   0.413   1.987  0.0450 -0.1647  1.1232
 6570TIP3    H119674   2.854   0.330   2.034 -0.4065 -1.3462 -0.9185
 6570TIP3    H219675   2.781   0.422   1.938  0.7870  0.5795 -0.0374
 6571TIP3   OH219676   0.722   4.430   1.035  0.3490 -0.5440  0.7335
 6571TIP3    H119677   0.717   4.524   1.051  1.0381 -0.2426 -0.6925
 6571TIP3    H219678   0.647   4.412   0.978  1.3184 -0.4653 -0.6200
 6572TIP3   OH219679   5.858   2.265   2.250  0.5704 -0.1394  0.2650
 6572TIP3    H119680   5.951   2.252   2.229  0.5073  0.1880 -0.2234
 6572TIP3    H219681   5.826   2.177   2.269  1.6063 -0.0061  3.1380
 6573TIP3   OH219682   4.122   5.497   5.058 -0.3179 -0.0282 -0.2335
 6573TIP3    H119683   4.166   5.413   5.075 -0.1705  0.4988  2.3971
 6573TIP3    H219684   4.030   5.474   5.046  0.0369 -0.7494 -2.0494
 6574TIP3   OH219685   5.414   4.890   3.444  0.2095 -0.2519 -0.6957
 6574TIP3    H119686   5.364   4.850   3.515  1.5917  0.2204  0.5925
 6574TIP3    H219687   5.498   4.843   3.444  1.7703  2.3151  0.6501
 6575TIP3   OH219688   0.942   6.506   3.023  0.3370 -0.3244 -0.0319
 6575TIP3    H119689   1.034   6.524   3.004  0.8201 -1.2192  1.3446
 6575TIP3    H219690   0.922   6.562   3.098 -0.0067 -0.7664  0.2050
 6576TIP3   OH219691   6.302   3.126   4.967  0.2706 -1.4986  0.5262
 6576TIP3    H119692   6.317   3.213   4.930 -0.0347 -0.1604  3.2487
 6576TIP3    H219693   6.274   3.072   4.893  1.7930  0.3389 -1.5043
 6577TIP3   OH219694   2.350   2.271   2.792  0.3098  0.4213  0.0695
 6577TIP3    H119695   2.388   2.347   2.747  0.6501 -0.4348 -1.1611
 6577TIP3    H219696   2.407   2.256   2.867  1.3692  0.2407 -0.7517
 6578TIP3   OH219697   2.121   2.990   4.113  0.3052 -0.2895 -0.3634
 6578TIP3    H119698   2.132   2.968   4.020  1.1159  0.3220 -0.4229
 6578TIP3    H219699   2.200   3.040   4.135 -0.9121  1.5182  0.0849
 6579TIP3   OH219700   6.560   3.526   3.813  0.2489  0.3561 -0.6103
 6579TIP3    H119701   6.612   3.562   3.741  0.7830  3.7294  1.2221
 6579TIP3    H219702   6.624   3.482   3.869 -0.0005 -1.2777 -1.5358
 6580TIP3   OH219703   2.084   2.996   1.808  0.0170  0.2423  0.4834
 6580TIP3    H119704   2.035   3.028   1.884 -0.5180 -2.3085  1.3169
 6580TIP3    H219705   2.018   2.991   1.738 -0.3423 -0.7897  0.8854
 6581TIP3   OH219706   0.756   4.857   3.226 -0.4455  0.0764 -0.2997
 6581TIP3    H119707   0.726   4.789   3.286  1.1830 -0.8543 -0.4649
 6581TIP3    H219708   0.827   4.815   3.176  0.1539  1.6978 -0.8724
 6582TIP3   OH219709   2.315   1.207   3.253  0.3834  0.4656 -0.0612
 6582TIP3    H119710   2.375   1.261   3.202  1.3559 -0.7725 -0.2890
 6582TIP3    H219711   2.368   1.132   3.280 -0.8510 -0.2498  0.4515
 6583TIP3   OH219712   4.976   0.813   1.454  0.0910 -0.2302  0.4462
 6583TIP3    H119713   4.883   0.802   1.435 -0.1169  0.0081  1.2778
 6583TIP3    H219714   4.988   0.768   1.538  1.2234 -2.3484 -0.7550
 6584TIP3   OH219715   0.997   1.703   4.902 -0.1217  0.5184  0.5984
 6584TIP3    H119716   1.008   1.798   4.903 -2.0208  0.8070 -0.4547
 6584TIP3    H219717   0.907   1.690   4.870  0.2407 -1.6405  0.3145
 6585TIP3   OH219718   2.807   2.206   1.358  0.0240 -0.4693 -0.8316
 6585TIP3    H119719   2.755   2.224   1.436  2.4367 -0.0284  0.7966
 6585TIP3    H219720   2.894   2.184   1.392  1.2433  0.0097 -3.4008
 6586TIP3   OH219721   4.177   4.715   3.045  0.3670  0.3002 -0.0335
 6586TIP3    H119722   4.170   4.789   2.984 -1.7035  1.2416  1.2139
 6586TIP3    H219723   4.121   4.648   3.008  1.0901 -0.1143 -0.4081
 6587TIP3   OH219724   4.278   5.995   5.735 -0.0114 -0.1963  0.3951
 6587TIP3    H119725   4.291   5.905   5.704  0.0557 -0.2368  0.5440
 6587TIP3    H219726   4.339   6.005   5.808  0.1606  0.0493  0.2195
 6588TIP3   OH219727   1.718   1.670   2.841  0.0705  0.2348 -0.1494
 6588TIP3    H119728   1.625   1.668   2.820  0.2823 -0.2113 -1.1142
 6588TIP3    H219729   1.734   1.760   2.872 -0.7150  0.2439  0.2536
 6589TIP3   OH219730   2.709   3.640   3.227  0.0105  0.3980 -0.0251
 6589TIP3    H119731   2.664   3.659   3.144  0.0235 -1.8424 -0.6256
 6589TIP3    H219732   2.640   3.644   3.293  0.1568  3.0775  0.0639
 6590TIP3   OH219733   0.517   0.746   2.088  0.2859 -0.1855 -0.3167
 6590TIP3    H119734   0.510   0.686   2.014  1.5074 -0.7664  0.0174
 6590TIP3    H219735   0.433   0.792   2.089  0.0101 -0.6017 -1.6766
 6591TIP3   OH219736   4.863   3.325   1.636  0.4764  0.4562  0.1315
 6591TIP3    H119737   4.928   3.394   1.620  0.7553  0.3990  0.9873
 6591TIP3    H219738   4.785   3.372   1.664  0.1561  0.5184 -0.8109
 6592TIP3   OH219739   2.624   0.273   1.179 -0.0062 -0.2629 -1.1850
 6592TIP3    H119740   2.530   0.259   1.167 -0.2336 -0.2198  0.3187
 6592TIP3    H219741   2.641   0.358   1.139 -1.3489  1.4082  1.4977
 6593TIP3   OH219742   2.598   0.116   2.321 -0.3006  0.2536 -0.5086
 6593TIP3    H119743   2.685   0.091   2.289 -0.0797  0.1137  0.1775
 6593TIP3    H219744   2.580   0.053   2.391 -0.6725  0.6925 -0.2075
 6594TIP3   OH219745   3.054   2.742   1.762  0.1611  0.0792 -0.2470
 6594TIP3    H119746   2.992   2.695   1.707 -1.6706 -0.4655  2.1105
 6594TIP3    H219747   3.015   2.828   1.775  1.0052  0.5091 -0.5024
 6595TIP3   OH219748   5.366   5.259   0.496 -0.1711  0.4386  0.0602
 6595TIP3    H119749   5.346   5.294   0.409  0.1219  1.2639  0.3246
 6595TIP3    H219750   5.456   5.227   0.488 -0.2982  0.0975 -0.0604
 6596TIP3   OH219751   5.148   1.544   1.093 -0.5890  0.6101  0.4244
 6596TIP3    H119752   5.197   1.582   1.020 -2.4994  2.0687 -0.1756
 6596TIP3    H219753   5.125   1.456   1.062  0.9177  0.1965  0.4053
 6597TIP3   OH219754   0.863   1.876   0.805 -0.2127  0.1777  0.6726
 6597TIP3    H119755   0.863   1.797   0.752  2.1619  0.2788  0.4250
 6597TIP3    H219756   0.822   1.849   0.888 -1.7154 -0.5965 -0.2680
 6598TIP3   OH219757   1.886   3.788   1.445  0.0462  0.4674 -0.0785
 6598TIP3    H119758   1.816   3.837   1.488  0.5717  1.4707 -0.3440
 6598TIP3    H219759   1.890   3.705   1.493 -2.8107 -0.6012 -1.4371
 6599TIP3   OH219760   2.225   1.307   2.685 -0.1262  0.4745  0.2677
 6599TIP3    H119761   2.248   1.380   2.742  2.5220  0.2100 -0.3283
 6599TIP3    H219762   2.305   1.254   2.680 -0.8086 -0.4754 -2.2451
 6600TIP3   OH219763   0.832   1.441   3.713 -0.1007 -0.3960 -0.2059
 6600TIP3    H119764   0.771   1.425   3.641 -0.6414 -0.2979  0.2190
 6600TIP3    H219765   0.916   1.456   3.670  0.0056 -2.2517 -0.7197
 6601TIP3   OH219766   4.625   3.054   4.719  0.2068  0.0292  0.2562
 6601TIP3    H119767   4.539   3.095   4.706 -0.8969 -2.0536  0.5795
 6601TIP3    H219768   4.672   3.116   4.775  0.0019  2.5391 -2.0915
 6602TIP3   OH219769   0.749   5.846   2.619  0.2655 -0.4162  0.2464
 6602TIP3    H119770   0.694   5.828   2.696 -0.8096  0.7250 -0.2166
 6602TIP3    H219771   0.690   5.891   2.558  0.9480 -1.7220 -1.4656
 6603TIP3   OH219772   0.342   4.389   4.656  0.2182 -0.1824 -0.0220
 6603TIP3    H119773   0.352   4.310   4.602  0.8486  0.9602 -1.6674
 6603TIP3    H219774   0.371   4.362   4.743  0.6524 -1.7066 -0.5922
 6604TIP3   OH219775   1.903   2.845   1.207  0.1100  0.5620 -0.1116
 6604TIP3    H119776   1.828   2.902   1.190  0.0965  0.6077  0.1082
 6604TIP3    H219777   1.883   2.765   1.158  0.5371  1.0675 -1.1429
 6605TIP3   OH219778   0.287   2.792   5.039 -0.4527 -0.6817  0.0545
 6605TIP3    H119779   0.208   2.777   5.091  0.2029 -1.2756  0.9020
 6605TIP3    H219780   0.355   2.744   5.085  0.7313  1.0426  0.1714
 6606TIP3   OH219781   0.785   2.034   5.730  0.5517 -0.2541  0.4401
 6606TIP3    H119782   0.761   2.102   5.667 -0.3440 -1.0560 -0.1082
 6606TIP3    H219783   0.756   1.952   5.690  3.2488 -1.2075  0.2275
 6607TIP3   OH219784   6.029   0.597   4.697  0.0111  0.1950 -0.0979
 6607TIP3    H119785   5.944   0.554   4.701  0.9006 -1.7998 -1.1638
 6607TIP3    H219786   6.092   0.525   4.694  1.7854  1.6063  1.0543
 6608TIP3   OH219787   0.870   3.452   0.907 -0.5294 -0.1061  0.3970
 6608TIP3    H119788   0.815   3.523   0.873  0.7594  0.6880 -0.1042
 6608TIP3    H219789   0.888   3.398   0.830 -3.2294 -2.2854  1.1106
 6609TIP3   OH219790   5.853   0.957   3.532  0.2651 -0.3398 -0.2719
 6609TIP3    H119791   5.780   0.966   3.593 -0.1888  0.2216 -0.8792
 6609TIP3    H219792   5.930   0.944   3.587 -0.1706 -0.0857  0.4000
 6610TIP3   OH219793   6.050   4.013   1.923 -0.0767  0.0731  0.0919
 6610TIP3    H119794   5.980   3.956   1.956  1.8678 -0.9492  2.8089
 6610TIP3    H219795   6.022   4.101   1.948  0.0614 -0.4327  2.2318
 6611TIP3   OH219796   0.968   4.446   2.998  0.5332  0.0886 -0.1751
 6611TIP3    H119797   1.061   4.462   3.010  1.5635 -2.6293 -3.0137
 6611TIP3    H219798   0.950   4.474   2.908 -0.7532 -1.5867 -0.5048
 6612TIP3   OH219799   5.395   3.004   4.306  0.3062  0.3716  0.4723
 6612TIP3    H119800   5.449   3.081   4.289  0.8125  0.1234  0.9232
 6612TIP3    H219801   5.452   2.930   4.284 -0.8483  0.1197 -1.9675
 6613TIP3   OH219802   0.654   2.784   0.618  0.1911 -0.6071 -0.3114
 6613TIP3    H119803   0.614   2.851   0.674  0.1547  0.8355 -1.9745
 6613TIP3    H219804   0.734   2.758   0.664  0.5873  1.1400  0.0444
 6614TIP3   OH219805   0.438   5.129   0.752  0.1531  0.2953 -0.5362
 6614TIP3    H119806   0.380   5.173   0.814 -0.0959  0.0100 -0.5659
 6614TIP3    H219807   0.386   5.120   0.672 -1.3251 -3.6320  0.6121
 6615TIP3   OH219808   0.101   6.210   0.926 -0.2675 -0.1461 -0.4401
 6615TIP3    H119809   0.187   6.251   0.912  0.8137 -1.4990  1.6857
 6615TIP3    H219810   0.041   6.283   0.938  0.9107  0.8293 -0.3222
 6616TIP3   OH219811   0.817   3.243   2.804  0.0010  0.6733 -0.0740
 6616TIP3    H119812   0.773   3.321   2.838  1.7414  1.3884  0.6887
 6616TIP3    H219813   0.830   3.261   2.711 -0.9489  0.6026 -0.2326
 6617TIP3   OH219814   4.993   5.597   0.112  0.3608  0.5729 -0.1823
 6617TIP3    H119815   4.973   5.648   0.190  0.1061  2.5625 -1.4507
 6617TIP3    H219816   4.907   5.580   0.072  0.5250  0.1159 -0.3481
 6618TIP3   OH219817   0.613   4.846   3.980 -0.1714  0.1435 -0.0584
 6618TIP3    H119818   0.640   4.922   3.928  0.9418 -0.2053 -0.0051
 6618TIP3    H219819   0.693   4.795   3.992 -0.9234 -1.1075 -0.1929
 6619TIP3   OH219820   2.704   6.453   2.186  0.2764 -0.6051 -0.2252
 6619TIP3    H119821   2.634   6.461   2.250  1.1362  0.2220  0.6547
 6619TIP3    H219822   2.738   6.364   2.197  0.4817 -0.4349  0.5465
 6620TIP3   OH219823   4.333   1.179   5.026  0.3412  0.9103 -0.1045
 6620TIP3    H119824   4.411   1.220   4.990  1.3595 -0.6000  0.3300
 6620TIP3    H219825   4.317   1.103   4.969 -0.3563  0.7541  0.2864
 6621TIP3   OH219826   1.348   2.333   5.382 -0.2409 -0.3023 -0.3862
 6621TIP3    H119827   1.415   2.329   5.314 -0.4122  0.2361 -0.5969
 6621TIP3    H219828   1.364   2.256   5.437  1.3657  0.4882  0.3210
 6622TIP3   OH219829   5.388   4.698   1.952  0.2882  0.5805  0.0752
 6622TIP3    H119830   5.376   4.608   1.922  1.2685  0.6830 -0.6604
 6622TIP3    H219831   5.345   4.700   2.038 -0.2085 -0.4406 -0.1326
 6623TIP3   OH219832   6.699   2.828   3.844 -0.2727 -0.1867 -0.2135
 6623TIP3    H119833   6.658   2.751   3.805  3.2437 -1.8469 -0.9545
 6623TIP3    H219834   6.704   2.892   3.772 -0.0028 -0.6353 -0.5983
 6624TIP3   OH219835   0.861   0.732   1.480 -0.5712  0.5999 -0.3859
 6624TIP3    H119836   0.866   0.711   1.573  1.3331  1.9312 -0.1158
 6624TIP3    H219837   0.775   0.774   1.469 -2.4694 -2.8809 -0.0772
 6625TIP3   OH219838   5.932   4.940   3.975  1.1127 -0.2734  0.3790
 6625TIP3    H119839   5.974   4.943   3.889 -1.1137 -1.2752 -0.8323
 6625TIP3    H219840   5.993   4.891   4.030  2.3540 -0.0676 -0.7684
 6626TIP3   OH219841   5.314   2.330   3.170 -0.5173  0.1872 -0.8433
 6626TIP3    H119842   5.274   2.259   3.119  2.2640 -2.6506  0.5357
 6626TIP3    H219843   5.281   2.317   3.259  1.6062 -0.9023 -0.1253
 6627TIP3   OH219844   4.662   5.700   4.400 -0.5625  0.8201  0.3551
 6627TIP3    H119845   4.666   5.795   4.384  0.1777  0.3241 -3.2198
 6627TIP3    H219846   4.745   5.681   4.444 -0.2427  1.7016  0.1711
 6628TIP3   OH219847   4.531   4.071   2.489  0.0336  0.7108 -0.6557
 6628TIP3    H119848   4.444   4.090   2.453  0.8447 -1.1257 -3.9703
 6628TIP3    H219849   4.592   4.104   2.423  1.8647  0.6865  0.9354
 6629TIP3   OH219850   4.519   5.874   1.243  0.0310  0.0455  0.1165
 6629TIP3    H119851   4.525   5.963   1.279  1.1297 -0.1005  0.3381
 6629TIP3    H219852   4.542   5.817   1.316  0.0769 -0.3743 -0.2261
 6630TIP3   OH219853   3.943   3.648   4.903  0.8956  0.1372 -0.1717
 6630TIP3    H119854   3.871   3.618   4.846  2.3612 -0.7977 -1.6205
 6630TIP3    H219855   3.970   3.570   4.951  1.5817  0.2388 -0.3825
 6631TIP3   OH219856   4.198   4.774   1.103  0.3083 -0.0597 -0.1511
 6631TIP3    H119857   4.232   4.685   1.101  0.3801 -0.0495  0.4376
 6631TIP3    H219858   4.252   4.822   1.040 -0.6404 -0.7335 -1.5461
 6632TIP3   OH219859   0.914   0.539   2.109 -0.2312 -0.1090 -0.3667
 6632TIP3    H119860   0.892   0.586   2.189 -0.3984  0.1434 -0.5604
 6632TIP3    H219861   0.996   0.494   2.129 -0.9901 -1.2024  0.4324
 6633TIP3   OH219862   0.022   0.551   5.317  0.3340 -0.1950  0.6553
 6633TIP3    H119863   0.029   0.490   5.245 -0.9578 -0.6791  0.9209
 6633TIP3    H219864   0.111   0.556   5.353  1.6009  1.8949 -2.3871
 6634TIP3   OH219865   5.734   5.279   0.906 -0.2881 -0.6146 -0.0251
 6634TIP3    H119866   5.720   5.185   0.906 -1.6844 -0.4342 -1.1131
 6634TIP3    H219867   5.674   5.313   0.840  0.6039  0.9838 -0.0794
 6635TIP3   OH219868   1.629   2.900   4.985  0.6052 -0.4509 -0.2042
 6635TIP3    H119869   1.607   2.993   4.991  4.4546  0.7098 -1.1112
 6635TIP3    H219870   1.659   2.877   5.073  0.3256 -0.6460 -0.1587
 6636TIP3   OH219871   5.195   1.521   3.442  0.1651  0.1392 -0.2920
 6636TIP3    H119872   5.236   1.559   3.520 -0.7420  0.5811 -0.0118
 6636TIP3    H219873   5.108   1.496   3.471 -0.4865  1.0863 -1.3663
 6637TIP3   OH219874   3.258   1.081   4.504  0.3858 -0.0178 -0.3362
 6637TIP3    H119875   3.173   1.049   4.473  0.7887 -1.5538  0.0433
 6637TIP3    H219876   3.244   1.174   4.521 -1.2334 -0.2521 -0.2281
 6638TIP3   OH219877   5.902   6.423   5.033 -0.6197 -0.2104  0.3697
 6638TIP3    H119878   5.836   6.380   4.979 -0.1535  0.1129 -0.4692
 6638TIP3    H219879   5.917   6.507   4.990 -1.0116  0.5184  1.6044
 6639TIP3   OH219880   4.758   5.341   4.544  0.7290 -0.1931  0.6633
 6639TIP3    H119881   4.789   5.256   4.510 -1.2628 -0.7923  0.2456
 6639TIP3    H219882   4.701   5.375   4.476 -1.7858 -0.4753  2.4971
 6640TIP3   OH219883   1.042   3.894   1.508 -0.2996 -0.1622 -0.7175
 6640TIP3    H119884   1.034   3.805   1.542  0.6486 -0.2689 -0.7246
 6640TIP3    H219885   0.953   3.919   1.483 -1.0792 -0.0642  1.8576
 6641TIP3   OH219886   0.119   5.383   4.922  0.0576  0.4624 -0.5857
 6641TIP3    H119887   0.043   5.347   4.967  0.6849 -0.1262  0.0427
 6641TIP3    H219888   0.092   5.392   4.831 -1.4343  2.2218 -0.0291
 6642TIP3   OH219889   6.350   2.667   0.482  0.0496 -0.2597  0.3057
 6642TIP3    H119890   6.439   2.668   0.516  0.3386 -0.6834 -0.4194
 6642TIP3    H219891   6.295   2.651   0.559  0.7267 -1.7620  0.5196
 6643TIP3   OH219892   2.129   3.738   0.906 -0.1977 -0.0824 -0.6060
 6643TIP3    H119893   2.072   3.776   0.972  1.1512  0.2927  0.3891
 6643TIP3    H219894   2.113   3.644   0.911 -1.1218  0.0618 -0.7403
 6644TIP3   OH219895   2.011   6.765   2.786  0.1516  0.4617 -0.5175
 6644TIP3    H119896   2.036   6.716   2.707  0.5162  1.0109 -0.7493
 6644TIP3    H219897   2.053   6.718   2.858 -0.3262 -0.1473 -0.6199
 6645TIP3   OH219898   0.452   3.237   3.724 -0.2660  0.3283  0.0134
 6645TIP3    H119899   0.357   3.234   3.734 -0.2026  0.8145  0.9023
 6645TIP3    H219900   0.470   3.325   3.691 -0.1407  0.1390 -0.4321
 6646TIP3   OH219901   1.662   1.324   0.234 -0.1042 -0.0636  0.3531
 6646TIP3    H119902   1.725   1.256   0.259  1.0605  0.8707  0.0953
 6646TIP3    H219903   1.594   1.278   0.186  0.7255 -1.0284  0.0757
 6647TIP3   OH219904   1.338  -0.001   3.244  0.0335  0.3725  0.0075
 6647TIP3    H119905   1.368   0.008   3.334 -0.8063  3.6638  0.1106
 6647TIP3    H219906   1.413   0.028   3.191  1.0879 -3.0144 -0.5879
 6648TIP3   OH219907   2.428   2.005   5.328 -0.0998  0.3371 -0.4015
 6648TIP3    H119908   2.368   2.044   5.392 -1.3412 -0.1399 -1.2421
 6648TIP3    H219909   2.510   1.996   5.376 -1.4672 -1.8100  1.8464
 6649TIP3   OH219910   6.787   2.494   1.932  0.5587 -0.6419  0.8514
 6649TIP3    H119911   6.807   2.500   1.838 -2.8025  1.1272  0.0623
 6649TIP3    H219912   6.827   2.572   1.970 -2.3989  1.6092 -0.2578
 6650TIP3   OH219913   3.575   1.215   5.689  0.0073 -0.4656 -0.4224
 6650TIP3    H119914   3.505   1.263   5.645 -0.1035 -0.2850 -0.0531
 6650TIP3    H219915   3.567   1.126   5.655 -0.1426 -0.3538 -0.6874
 6651TIP3   OH219916   1.550   6.611   4.438 -0.5420  0.4392  0.5391
 6651TIP3    H119917   1.637   6.641   4.464 -0.7644  1.8037 -0.1713
 6651TIP3    H219918   1.491   6.658   4.497 -0.7962 -0.8757  1.3659
 6652TIP3   OH219919   6.364   4.293   0.714 -0.3084 -0.1547  0.9162
 6652TIP3    H119920   6.276   4.317   0.683  0.1770 -0.2563 -0.6239
 6652TIP3    H219921   6.349   4.214   0.767 -0.9206 -1.8056 -1.5215
 6653TIP3   OH219922   3.589   1.437   0.609 -0.2762 -0.1378  0.2520
 6653TIP3    H119923   3.660   1.500   0.597  0.1372 -0.9209 -2.0389
 6653TIP3    H219924   3.546   1.433   0.523 -1.1685 -1.9103  0.7275
 6654TIP3   OH219925   6.440   2.898   1.260 -0.4229  0.1745 -0.8657
 6654TIP3    H119926   6.498   2.963   1.222 -0.0513 -0.3498 -1.2010
 6654TIP3    H219927   6.478   2.813   1.234  0.6384 -0.2531  1.7462
 6655TIP3   OH219928   2.865   1.201   5.453 -0.1181  0.4889  0.2656
 6655TIP3    H119929   2.895   1.245   5.373 -0.6023  0.8846  0.2964
 6655TIP3    H219930   2.910   1.247   5.524  0.6026 -0.1056  0.2070
 6656TIP3   OH219931   5.691   2.422   2.748  0.5982 -0.0460 -0.1441
 6656TIP3    H119932   5.657   2.426   2.837  2.1032 -0.2204  0.4751
 6656TIP3    H219933   5.657   2.501   2.705 -0.9693 -0.4680  0.2468
 6657TIP3   OH219934   0.722   6.649   5.127  0.6688 -1.0214  0.0331
 6657TIP3    H119935   0.701   6.559   5.099 -1.0296 -0.5841 -0.2317
 6657TIP3    H219936   0.638   6.695   5.123  1.3294  0.3377  1.1265
 6658TIP3   OH219937   1.065   5.540   2.533  0.1977  0.6090  0.3076
 6658TIP3    H119938   1.025   5.507   2.613 -2.3732  1.0363 -0.7067
 6658TIP3    H219939   1.023   5.492   2.462 -1.0971  3.4357 -1.0161
 6659TIP3   OH219940   6.069   5.455   1.261 -0.1579  0.3738  0.3143
 6659TIP3    H119941   6.117   5.390   1.209  0.0444 -0.6955  1.7920
 6659TIP3    H219942   6.071   5.421   1.350  0.5193  2.7464  1.2677
 6660TIP3   OH219943   0.563   2.507   0.353  0.0885  0.5351 -0.0178
 6660TIP3    H119944   0.580   2.589   0.306  0.7331  0.3552 -0.1012
 6660TIP3    H219945   0.512   2.534   0.429 -1.8616  0.7081 -1.3134
 6661TIP3   OH219946   2.509   0.440   0.354  0.3460  0.8168  0.2843
 6661TIP3    H119947   2.596   0.480   0.357  0.7687 -0.1201  0.8984
 6661TIP3    H219948   2.476   0.461   0.266  1.1762  1.2013  0.0543
 6662TIP3   OH219949   7.107   6.726   2.354 -0.1210 -0.5755 -0.7023
 6662TIP3    H119950   7.041   6.723   2.285 -3.2700 -1.2047  2.1151
 6662TIP3    H219951   7.086   6.804   2.405  2.0767 -0.1516 -0.3451
 6663TIP3   OH219952   1.441   6.188   2.942  0.2474  0.7082  1.3407
 6663TIP3    H119953   1.475   6.240   2.869 -0.6601  0.3145  0.6147
 6663TIP3    H219954   1.517   6.170   2.997  0.6673  2.4273  1.3824
 6664TIP3   OH219955   2.510   4.873   0.311  0.0920 -0.8924  0.7513
 6664TIP3    H119956   2.522   4.887   0.217 -0.3381 -1.6998  0.5656
 6664TIP3    H219957   2.598   4.856   0.344  0.8106  2.7771  1.1422
 6665TIP3   OH219958   6.585   1.960   4.567 -0.3689 -0.3092 -0.2662
 6665TIP3    H119959   6.493   1.949   4.543 -0.1409 -0.2001 -1.2438
 6665TIP3    H219960   6.585   2.035   4.627 -0.8926 -0.1862 -0.4119
 6666TIP3   OH219961   2.813   2.350   0.007  0.2342 -0.1302 -0.5809
 6666TIP3    H119962   2.802   2.407   0.083 -0.0986 -0.2068 -0.5700
 6666TIP3    H219963   2.863   2.275   0.040  0.3495 -0.0190 -0.5063
 6667TIP3   OH219964   2.318   5.583   0.841  0.0769 -0.3328  0.5839
 6667TIP3    H119965   2.310   5.576   0.746  1.4622 -2.1539  0.5433
 6667TIP3    H219966   2.292   5.497   0.873  1.1186 -0.2502  1.7275
 6668TIP3   OH219967   2.494   3.303   0.427  0.0777 -0.8867 -0.2189
 6668TIP3    H119968   2.414   3.253   0.416 -0.7564  0.7243 -2.1085
 6668TIP3    H219969   2.470   3.393   0.405  2.5342 -0.4655 -1.6267
 6669TIP3   OH219970   4.405   1.754   4.037 -0.4367 -0.4808  0.4001
 6669TIP3    H119971   4.342   1.802   4.090  0.3024 -0.2534  1.0803
 6669TIP3    H219972   4.468   1.820   4.009 -0.2082 -0.7984  0.1573
 6670TIP3   OH219973   5.246   5.166   4.385 -0.6748  0.4027  0.2678
 6670TIP3    H119974   5.212   5.110   4.315 -3.2916  1.9785  0.1109
 6670TIP3    H219975   5.322   5.120   4.419 -2.6686 -3.2593  0.2154
 6671TIP3   OH219976   1.502   2.174   1.015 -0.0663  0.4963  0.2353
 6671TIP3    H119977   1.446   2.098   1.002  1.2556 -0.3616 -0.7382
 6671TIP3    H219978   1.590   2.137   1.027  0.6341  1.8631 -0.3799
 6672TIP3   OH219979   1.983   3.628   3.026  0.2484 -0.1459 -0.6378
 6672TIP3    H119980   2.005   3.636   3.119  1.9168  0.8906 -1.0842
 6672TIP3    H219981   1.966   3.535   3.013 -1.2164 -0.1462  0.9285
 6673TIP3   OH219982   3.963   5.985   3.600 -0.8306  0.1125  0.2677
 6673TIP3    H119983   3.970   6.026   3.686  2.0659  0.2009  0.0712
 6673TIP3    H219984   3.870   5.992   3.579 -1.6116  0.3332  3.2358
 6674TIP3   OH219985   2.577   4.711   4.556  0.5015 -0.1412  0.4617
 6674TIP3    H119986   2.572   4.793   4.605  1.7406  0.3596 -0.2205
 6674TIP3    H219987   2.487   4.692   4.532  0.1345  0.7260  1.1021
 6675TIP3   OH219988   0.814   5.176   5.352  0.2085  0.3554 -0.7754
 6675TIP3    H119989   0.777   5.260   5.377  0.2458  0.7096 -1.8351
 6675TIP3    H219990   0.830   5.130   5.434  0.0303  1.3182 -0.1977
 6676TIP3   OH219991   5.528   3.805   3.424  0.1382 -0.2411  0.2343
 6676TIP3    H119992   5.457   3.826   3.485 -1.0837 -1.7377 -0.5896
 6676TIP3    H219993   5.604   3.787   3.480 -0.8092 -1.0403  1.3119
 6677TIP3   OH219994   6.424   6.526   0.984  0.2180  0.2435 -0.1076
 6677TIP3    H119995   6.405   6.596   0.921  0.2188  1.4595  1.1692
 6677TIP3    H219996   6.414   6.445   0.934  0.2896  1.1482 -1.6681
 6678TIP3   OH219997   2.387   4.136   3.931 -0.0576  0.2382 -0.6166
 6678TIP3    H119998   2.440   4.214   3.945 -0.4173  0.3911 -0.1092
 6678TIP3    H219999   2.332   4.158   3.856 -1.0032  0.9213  0.2544
 6679TIP3   OH220000   3.429   4.690   1.268 -0.5050 -0.1254 -0.1908
 6679TIP3    H120001   3.406   4.775   1.304  3.1402  0.1303  2.0321
 6679TIP3    H220002   3.397   4.693   1.178 -4.7072  1.6070  1.0961
 6680TIP3   OH220003   0.262   5.994   0.953 -1.0114 -0.8588 -0.5211
 6680TIP3    H120004   0.210   6.073   0.968 -0.7435 -0.6621 -0.6124
 6680TIP3    H220005   0.198   5.928   0.927 -1.2891 -0.7870 -0.0333
 6681TIP3   OH220006   3.661   2.128   2.956 -0.3207  0.0014 -0.0280
 6681TIP3    H120007   3.742   2.077   2.948 -0.4488 -0.7806  2.7754
 6681TIP3    H220008   3.691   2.216   2.980 -0.2621 -0.0943  0.2567
 6682TIP3   OH220009   5.552   4.539   1.537  0.0259  0.3860 -0.5892
 6682TIP3    H120010   5.543   4.446   1.555 -1.9971  0.9186  1.7610
 6682TIP3    H220011   5.614   4.571   1.602  0.7491  0.7071 -1.4121
 6683TIP3   OH220012   6.328   5.082   4.193 -0.0181 -0.3545 -0.5410
 6683TIP3    H120013   6.291   5.150   4.249 -2.2526 -1.4674 -0.5336
 6683TIP3    H220014   6.339   5.123   4.108 -0.7519  0.1832 -0.3814
 6684TIP3   OH220015   3.956   2.650   3.349  0.3849  0.1863  0.8727
 6684TIP3    H120016   3.961   2.655   3.253 -0.2852 -1.3962  0.7265
 6684TIP3    H220017   3.870   2.684   3.370  0.6047  0.7099  0.9383
 6685TIP3   OH220018   3.450   1.022   5.162 -0.1688 -0.1616 -0.3612
 6685TIP3    H120019   3.470   0.936   5.197  1.2425  0.4885  0.5130
 6685TIP3    H220020   3.356   1.032   5.176  0.1366 -0.4016  2.2726
 6686TIP3   OH220021   2.394   1.876   3.685 -0.1715 -0.0991  0.7014
 6686TIP3    H120022   2.438   1.959   3.700 -0.0855 -0.2240  1.1552
 6686TIP3    H220023   2.429   1.845   3.602 -0.3390  0.4050  0.4434
 6687TIP3   OH220024   3.115   2.403   3.857  0.0569 -0.2812  0.6234
 6687TIP3    H120025   3.167   2.483   3.862  1.7371 -1.3281  1.0007
 6687TIP3    H220026   3.054   2.418   3.785 -1.2850  2.1852  2.1424
 6688TIP3   OH220027   6.913   1.190   1.498 -0.2250  0.4716 -0.0558
 6688TIP3    H120028   6.876   1.245   1.428 -0.1624  1.4721  0.6777
 6688TIP3    H220029   7.003   1.173   1.469 -0.4384  0.2185 -0.5909
 6689TIP3   OH220030   0.027   3.830   5.823 -0.9692 -0.6226  0.2471
 6689TIP3    H120031   0.121   3.808   5.820 -0.9314 -0.7966  1.8804
 6689TIP3    H220032   0.006   3.830   5.916 -1.6714  3.3602  0.2427
 6690TIP3   OH220033   3.833   4.731   3.377 -0.2466 -0.0331 -0.4733
 6690TIP3    H120034   3.762   4.794   3.388 -0.3784 -0.1032 -0.9060
 6690TIP3    H220035   3.912   4.782   3.393 -0.2940  0.4950 -1.8172
 6691TIP3   OH220036   2.062   2.239   1.750  0.7433  0.3506  0.1070
 6691TIP3    H120037   2.128   2.300   1.784  0.2782  0.4896  0.7675
 6691TIP3    H220038   2.052   2.265   1.658 -0.1048  1.8761  0.5972
 6692TIP3   OH220039   5.698   3.832   1.788 -0.0576  0.0080 -0.3229
 6692TIP3    H120040   5.634   3.903   1.783 -2.3932 -1.8794  0.9987
 6692TIP3    H220041   5.724   3.830   1.881  1.1799  0.0588 -0.6430
 6693TIP3   OH220042   4.627   2.638   1.830 -0.2335  0.2334 -0.3128
 6693TIP3    H120043   4.598   2.550   1.855  1.0680  0.4025  2.0627
 6693TIP3    H220044   4.552   2.694   1.847 -0.0170  0.0344  1.4097
 6694TIP3   OH220045   2.193   0.010   0.801 -0.2515  0.2602 -0.0204
 6694TIP3    H120046   2.267   0.043   0.853 -0.6458  0.7179  0.2573
 6694TIP3    H220047   2.219   0.024   0.710  0.5891 -0.8503  0.0345
 6695TIP3   OH220048   1.489   6.723   1.573 -0.4778  0.3562  0.5435
 6695TIP3    H120049   1.443   6.787   1.519 -0.1502  0.7212  0.6930
 6695TIP3    H220050   1.475   6.753   1.663 -4.2567 -2.2572  1.0812
 6696TIP3   OH220051   2.981   4.253   3.833  0.4906  0.0577 -0.4009
 6696TIP3    H120052   2.909   4.215   3.781 -0.5093  0.6722  0.4880
 6696TIP3    H220053   2.940   4.326   3.880  1.3481 -0.4748  1.2517
 6697TIP3   OH220054   5.856   1.871   2.435  0.1545  0.0207  0.0266
 6697TIP3    H120055   5.766   1.840   2.433  0.3169 -0.4393 -0.3554
 6697TIP3    H220056   5.891   1.848   2.349  0.7401 -0.1162  0.2957
 6698TIP3   OH220057   0.818   1.838   0.294 -0.7125 -0.2519 -0.0374
 6698TIP3    H120058   0.827   1.881   0.209  3.0763  1.4576  1.0208
 6698TIP3    H220059   0.906   1.804   0.313 -1.2943 -0.1661  3.3559
 6699TIP3   OH220060   6.225   3.691   4.668  0.2516  0.0605  0.0649
 6699TIP3    H120061   6.316   3.680   4.638  0.9211  0.5482  1.7925
 6699TIP3    H220062   6.232   3.697   4.763 -1.2099  3.3673  0.1248
 6700TIP3   OH220063   0.780   2.721   2.666 -0.2228 -0.4997 -0.8194
 6700TIP3    H120064   0.736   2.719   2.582 -2.2496  2.2717  0.0381
 6700TIP3    H220065   0.711   2.712   2.731  1.1796 -1.7322  0.5970
 6701TIP3   OH220066   6.880   2.248   4.463 -0.6407 -0.5971 -0.1749
 6701TIP3    H120067   6.806   2.264   4.521  0.2304  0.9676  0.5612
 6701TIP3    H220068   6.867   2.308   4.390  0.8149  1.1120  0.8753
 6702TIP3   OH220069   4.359   2.897   5.149  0.2654  0.2247  0.0073
 6702TIP3    H120070   4.292   2.832   5.129 -0.9772  1.6340 -0.6633
 6702TIP3    H220071   4.315   2.958   5.208  1.8859 -0.3477  1.9116
 6703TIP3   OH220072   4.609   4.314   4.142  0.1873 -0.2683  0.3365
 6703TIP3    H120073   4.580   4.405   4.144  0.7673 -0.0790  0.4380
 6703TIP3    H220074   4.543   4.266   4.190 -0.9803 -0.1574 -1.0847
 6704TIP3   OH220075   2.516   5.244   0.959  0.2551  0.0931 -0.0058
 6704TIP3    H120076   2.542   5.232   0.868  0.6510 -1.1901  0.2527
 6704TIP3    H220077   2.552   5.168   1.004  0.2411  0.8120  1.2648
 6705TIP3   OH220078   1.821   4.966   4.174  0.1677 -0.3834  0.3751
 6705TIP3    H120079   1.886   4.899   4.197  0.7696 -0.0117 -0.1853
 6705TIP3    H220080   1.793   4.943   4.085 -0.8573 -0.8323  0.8072
 6706TIP3   OH220081   0.301   3.235   3.236 -0.0205  0.0534 -0.5148
 6706TIP3    H120082   0.255   3.297   3.179  1.5968 -0.2010 -2.1877
 6706TIP3    H220083   0.338   3.171   3.176  1.7571 -0.2519  0.8242
 6707TIP3   OH220084   5.925   2.623   1.038 -0.3800 -0.4105  0.6018
 6707TIP3    H120085   6.000   2.669   1.077 -0.4329 -0.0141  0.2352
 6707TIP3    H220086   5.848   2.668   1.073 -0.4346 -0.3108  0.3525
 6708TIP3   OH220087   6.596   4.157   1.096 -0.0275  0.4031  0.1561
 6708TIP3    H120088   6.528   4.090   1.105 -0.5901  0.9321 -0.1353
 6708TIP3    H220089   6.596   4.203   1.180 -0.3422  0.6896  0.0031
 6709TIP3   OH220090   6.240   0.023   0.983 -0.2666  0.2469  0.1224
 6709TIP3    H120091   6.267   0.108   0.949  0.6335 -0.5408 -1.1850
 6709TIP3    H220092   6.166  -0.003   0.928  0.8175 -0.7571 -0.9248
 6710TIP3   OH220093   5.153   1.832   2.992  0.2547 -0.2704  0.2110
 6710TIP3    H120094   5.140   1.760   3.054  0.5924  1.0314  1.8795
 6710TIP3    H220095   5.065   1.866   2.975  0.2569  0.1800  1.0351
 6711TIP3   OH220096   4.854   5.005   5.145  0.1238 -0.1654  0.3313
 6711TIP3    H120097   4.854   4.928   5.202 -1.4360 -2.5588 -2.6088
 6711TIP3    H220098   4.944   5.010   5.112  0.1396 -1.0077  0.2302
 6712TIP3   OH220099   3.751   3.255   2.432  0.0116 -0.3830  0.2487
 6712TIP3    H120100   3.715   3.295   2.353 -2.2770 -0.8552  0.9729
 6712TIP3    H220101   3.822   3.314   2.458 -1.6863  1.9666 -0.0578
 6713TIP3   OH220102   2.533   4.074   3.553 -0.1516  0.3153 -0.0481
 6713TIP3    H120103   2.510   4.106   3.465  0.1579  0.1916 -0.1729
 6713TIP3    H220104   2.450   4.077   3.601 -1.0121 -2.4749 -1.2002
 6714TIP3   OH220105   1.597   4.645   2.629  0.1959  0.0628  0.1711
 6714TIP3    H120106   1.556   4.569   2.670 -0.5702  0.5055  0.2489
 6714TIP3    H220107   1.598   4.624   2.535  0.6105 -0.3317  0.2645
 6715TIP3   OH220108   1.948   1.533   2.997  0.0000  0.1450  0.0088
 6715TIP3    H120109   1.869   1.568   2.954 -1.7510 -0.6137  2.3758
 6715TIP3    H220110   1.931   1.438   3.003  2.6055 -0.5920 -2.2339
 6716TIP3   OH220111   5.752   1.614   1.151 -0.6238  0.8562  0.5187
 6716TIP3    H120112   5.771   1.650   1.064  2.2152  0.6398  0.9574
 6716TIP3    H220113   5.812   1.660   1.210 -1.6453  0.1344  2.1944
 6717TIP3   OH220114   0.790   4.462   2.519  0.2674  0.2081 -0.3905
 6717TIP3    H120115   0.725   4.417   2.574  0.0896 -0.4870 -1.1587
 6717TIP3    H220116   0.739   4.531   2.475 -0.3207 -1.2789 -2.1467
 6718TIP3   OH220117   2.970   0.052   0.608 -0.3732 -0.2060  0.3108
 6718TIP3    H120118   2.905   0.106   0.655 -1.1696 -0.5072 -0.4328
 6718TIP3    H220119   2.945  -0.038   0.628  0.3588 -0.3234  0.7329
 6719TIP3   OH220120   6.736   3.548   5.287 -0.0270  0.0449 -0.2633
 6719TIP3    H120121   6.665   3.530   5.348 -1.3192 -0.5320 -1.8447
 6719TIP3    H220122   6.720   3.637   5.255  2.0073  1.3036  1.9033
 6720TIP3   OH220123   2.551   6.371   1.196 -0.2676  0.3187  0.0573
 6720TIP3    H120124   2.566   6.463   1.218 -0.6142  0.4646 -0.3001
 6720TIP3    H220125   2.477   6.372   1.135 -0.4205 -0.2177  0.2240
 6721TIP3   OH220126   3.320   5.139   0.376 -0.0137 -0.4120  0.4584
 6721TIP3    H120127   3.356   5.050   0.376 -0.3933 -0.5754  0.9848
 6721TIP3    H220128   3.227   5.126   0.397  0.2611  0.2235  2.2730
 6722TIP3   OH220129   5.289   0.363   2.608  0.4544  0.8068 -0.5326
 6722TIP3    H120130   5.283   0.436   2.546 -2.0171  1.8138  0.7800
 6722TIP3    H220131   5.215   0.307   2.586  1.1553 -0.2637 -0.2119
 6723TIP3   OH220132   2.941   0.191   1.083  0.0940 -0.4430 -0.1311
 6723TIP3    H120133   2.863   0.216   1.133  1.6512  1.9240  1.3437
 6723TIP3    H220134   3.005   0.167   1.150  0.2339 -3.9926 -1.3543
 6724TIP3   OH220135   6.469   3.181   3.573 -0.2944  0.4847  0.7085
 6724TIP3    H120136   6.542   3.211   3.519 -2.8294  1.3035 -2.5657
 6724TIP3    H220137   6.451   3.254   3.632 -0.0198  1.2876 -0.1795
 6725TIP3   OH220138   6.763   5.937   1.394  0.3934 -0.5041 -0.4446
 6725TIP3    H120139   6.748   5.929   1.488  1.7521  1.5108  0.0108
 6725TIP3    H220140   6.732   6.024   1.372  2.3759  0.0264 -1.3320
 6726TIP3   OH220141   1.053   0.249   2.583 -0.4155 -0.6682 -0.0349
 6726TIP3    H120142   1.137   0.293   2.566 -0.2970 -0.9621 -0.2205
 6726TIP3    H220143   1.077   0.163   2.616 -0.6497 -0.5770  0.3829
 6727TIP3   OH220144   2.527   3.989   4.132 -0.1230 -0.8859 -0.1328
 6727TIP3    H120145   2.483   4.025   4.054  0.5515 -0.9532 -0.5522
 6727TIP3    H220146   2.502   3.897   4.134 -1.6460 -0.4807  0.7953
 6728TIP3   OH220147   2.077   1.265   0.613  0.3200  0.1581  0.3392
 6728TIP3    H120148   2.002   1.319   0.592  0.8922  0.7334 -0.2714
 6728TIP3    H220149   2.078   1.260   0.709  0.4322  1.4702  0.4140
 6729TIP3   OH220150   0.558   3.319   3.337 -0.0595 -0.2819 -0.2464
 6729TIP3    H120151   0.468   3.330   3.304 -0.5897  1.6581  1.6298
 6729TIP3    H220152   0.612   3.370   3.277 -0.8487  2.1578  0.9520
 6730TIP3   OH220153   3.184   2.513   3.069  0.0558  0.0102  0.3719
 6730TIP3    H120154   3.123   2.445   3.098 -1.4699  1.3003  0.3122
 6730TIP3    H220155   3.255   2.465   3.026 -1.7904 -1.4911 -1.1657
 6731TIP3   OH220156   4.374   6.398   0.482  0.0876  0.7390 -0.3601
 6731TIP3    H120157   4.348   6.385   0.573 -1.1008  2.3296 -0.4192
 6731TIP3    H220158   4.443   6.334   0.467 -0.3458 -0.1916  1.3724
 6732TIP3   OH220159   0.487   2.241   3.442 -0.2648  0.0343 -0.2077
 6732TIP3    H120160   0.424   2.226   3.512 -0.5086  0.9043 -0.2290
 6732TIP3    H220161   0.441   2.217   3.362 -0.5079  0.4896 -0.2060
 6733TIP3   OH220162   2.126   0.093   3.013 -0.1629 -0.3140 -0.2826
 6733TIP3    H120163   2.151   0.037   3.087  1.0414  0.7620  0.1496
 6733TIP3    H220164   2.040   0.127   3.038 -0.8802 -1.8568 -0.5111
 6734TIP3   OH220165   3.989   0.214   1.013 -0.0406  0.1588 -0.2473
 6734TIP3    H120166   4.014   0.125   1.037  1.6172  0.8455  0.8092
 6734TIP3    H220167   3.986   0.261   1.096 -1.8728  0.8992 -0.6867
 6735TIP3   OH220168   5.325   1.305   3.273 -0.0007 -0.0887  0.3081
 6735TIP3    H120169   5.368   1.341   3.351 -0.2771  0.7987  0.0616
 6735TIP3    H220170   5.384   1.326   3.201 -0.0803 -0.2847  0.1855
 6736TIP3   OH220171   4.177   4.199   4.985  0.4151 -0.1123 -0.1901
 6736TIP3    H120172   4.129   4.258   5.043  0.7068  0.1843 -0.2488
 6736TIP3    H220173   4.229   4.257   4.929 -0.0291 -0.3908 -0.8947
 6737TIP3   OH220174   7.148   4.290   0.377 -0.6801  0.3993 -0.0804
 6737TIP3    H120175   7.194   4.304   0.295  1.6070  0.6875  1.1769
 6737TIP3    H220176   7.117   4.377   0.402  1.5495  0.9666  0.9462
 6738TIP3   OH220177   2.056   2.295   3.404  0.8589  0.1525 -0.5401
 6738TIP3    H120178   2.132   2.339   3.442  0.2387  0.5730  0.2449
 6738TIP3    H220179   2.088   2.208   3.382  1.5077  0.2400  0.0091
 6739TIP3   OH220180   3.170   1.090   5.235 -0.3068  0.7993 -0.2640
 6739TIP3    H120181   3.086   1.107   5.193  0.1189  0.4488 -1.3016
 6739TIP3    H220182   3.151   1.026   5.303 -0.4980 -1.4082 -2.2540
 6740TIP3   OH220183   3.668   1.682   5.417 -0.0489  0.5554 -0.7521
 6740TIP3    H120184   3.575   1.692   5.434  0.3096  1.3978  0.9165
 6740TIP3    H220185   3.673   1.626   5.340 -1.9216  0.4128 -0.7969
 6741TIP3   OH220186   6.354   6.229   5.242 -0.0507 -0.3876  0.7844
 6741TIP3    H120187   6.411   6.176   5.186 -0.8117  0.9042 -1.2784
 6741TIP3    H220188   6.267   6.192   5.231 -0.6524  1.3837 -0.9316
 6742TIP3   OH220189   5.574   2.518   1.270  0.3772 -0.6634  0.2081
 6742TIP3    H120190   5.640   2.449   1.272  0.9977 -0.0648  0.8818
 6742TIP3    H220191   5.624   2.599   1.281  0.0175  0.1737 -3.1702
 6743TIP3   OH220192   3.329   2.456   1.229 -0.0283  0.2380  0.0483
 6743TIP3    H120193   3.245   2.412   1.215  0.9771 -1.9502  0.4700
 6743TIP3    H220194   3.336   2.465   1.324  0.3189  0.1522  0.0330
 6744TIP3   OH220195   4.466   3.069   2.287 -0.6314 -0.1632 -0.2199
 6744TIP3    H120196   4.419   3.120   2.221  1.2131  0.7910 -0.8433
 6744TIP3    H220197   4.466   3.124   2.365  2.4008  1.4995 -1.2298
 6745TIP3   OH220198   6.939   2.084   0.253 -0.0376  0.1668 -0.3695
 6745TIP3    H120199   6.999   2.055   0.322 -0.0035  1.7580  0.3222
 6745TIP3    H220200   6.875   2.013   0.246 -0.0855 -0.0204  1.3565
 6746TIP3   OH220201   2.428   3.090   3.869  0.5506  0.3469  0.2360
 6746TIP3    H120202   2.386   3.153   3.810  1.0498  0.4638  0.0003
 6746TIP3    H220203   2.381   3.100   3.952 -0.5914 -0.2753 -0.3021
 6747TIP3   OH220204   7.029   3.090   0.235  0.1552 -0.2678 -0.3417
 6747TIP3    H120205   7.016   3.086   0.330 -0.6757  0.6441 -0.3945
 6747TIP3    H220206   7.108   3.143   0.225 -0.1924  0.3007 -0.1617
 6748TIP3   OH220207   2.997   3.114   5.151  0.2180  0.1642 -0.0034
 6748TIP3    H120208   2.982   3.068   5.068 -0.9351  0.1027  0.2154
 6748TIP3    H220209   2.926   3.177   5.157 -0.4129 -0.6110  1.4593
 6749TIP3   OH220210   4.806   6.549   5.049 -0.5330  0.0556 -0.3979
 6749TIP3    H120211   4.870   6.601   4.999  1.2243 -0.9575  0.6952
 6749TIP3    H220212   4.811   6.461   5.011 -0.4515 -0.2992  0.3996
 6750TIP3   OH220213   0.326   1.614   4.113  0.3050 -0.0232  0.4073
 6750TIP3    H120214   0.413   1.605   4.074  0.0007 -0.8871 -0.1175
 6750TIP3    H220215   0.277   1.667   4.050  0.2013 -0.2693  0.2819
 6751TIP3   OH220216   6.770   5.082   0.754 -0.2081  0.1495 -0.2906
 6751TIP3    H120217   6.834   5.150   0.775  0.1066  0.6614 -2.5859
 6751TIP3    H220218   6.708   5.126   0.695 -0.9301 -1.1409 -0.5198
 6752TIP3   OH220219   0.891   5.293   1.046  0.2025  0.4065  0.4016
 6752TIP3    H120220   0.832   5.283   0.971 -0.7971  0.3815  1.1884
 6752TIP3    H220221   0.966   5.340   1.009  1.6059 -3.0057 -1.5969
 6753TIP3   OH220222   2.031   1.091   0.098  0.5779 -0.0906  0.2416
 6753TIP3    H120223   2.043   1.151   0.172 -1.0433 -0.5305  0.9028
 6753TIP3    H220224   1.978   1.141   0.036 -0.5937 -0.7359  0.6998
 6754TIP3   OH220225   6.986   3.632   5.385 -0.2004  0.3261 -0.3341
 6754TIP3    H120226   7.032   3.607   5.465  0.2499  1.2889 -0.2714
 6754TIP3    H220227   6.907   3.579   5.385 -0.8476  1.1999  1.4302
 6755TIP3   OH220228   6.655   6.527   1.869 -0.4738 -0.4762  0.5908
 6755TIP3    H120229   6.743   6.555   1.894  0.1139 -0.7646 -1.0120
 6755TIP3    H220230   6.652   6.435   1.894  0.4823 -1.0455 -1.1621
 6756TIP3   OH220231   5.984   5.718   3.591  0.1765  0.1533  0.2799
 6756TIP3    H120232   5.928   5.721   3.513 -0.9713 -1.2321  0.9887
 6756TIP3    H220233   6.040   5.642   3.577  1.0549  0.8120  0.1339
 6757TIP3   OH220234   5.266   2.305   4.447 -0.5384 -0.1182  0.4627
 6757TIP3    H120235   5.339   2.306   4.510  0.8686  1.6505 -1.0536
 6757TIP3    H220236   5.234   2.395   4.446 -0.7378 -0.1759 -1.0847
 6758TIP3   OH220237   6.843   5.845   0.918 -0.0315 -0.0303 -0.8547
 6758TIP3    H120238   6.909   5.852   0.987 -1.1650  1.0300  0.1852
 6758TIP3    H220239   6.838   5.751   0.899  1.1656 -0.2101 -0.3814
 6759TIP3   OH220240   4.108   0.387   3.696  0.0037 -0.0567 -0.2991
 6759TIP3    H120241   4.178   0.329   3.665 -1.7265 -1.6433 -1.5445
 6759TIP3    H220242   4.104   0.457   3.631 -0.8316 -1.0828 -1.4123
 6760TIP3   OH220243   4.975   3.304   1.887  0.1709 -0.1960  0.4351
 6760TIP3    H120244   4.922   3.318   1.808 -2.0914 -0.8421  1.7529
 6760TIP3    H220245   5.041   3.240   1.860  0.1302  0.3815 -1.1879
 6761TIP3   OH220246   0.619   1.847   1.667 -0.0782 -0.0155 -0.0511
 6761TIP3    H120247   0.668   1.771   1.697  0.3183 -0.0818 -0.8329
 6761TIP3    H220248   0.670   1.922   1.697 -1.3735  0.0359  2.2799
 6762TIP3   OH220249   2.180   4.375   0.055  0.2040  0.3331 -0.2373
 6762TIP3    H120250   2.212   4.464   0.038 -0.6083  0.4888 -1.0082
 6762TIP3    H220251   2.164   4.338  -0.031  0.0360 -0.3858  0.0958
 6763TIP3   OH220252   1.059   0.529   2.725 -0.4183 -0.1721 -0.2144
 6763TIP3    H120253   1.100   0.466   2.785  0.9066  0.1032 -0.7843
 6763TIP3    H220254   1.009   0.588   2.782 -0.6211 -0.9669  0.4418
 6764TIP3   OH220255   1.583   4.486   5.062  0.2183 -0.1279 -0.0380
 6764TIP3    H120256   1.605   4.407   5.014 -0.2056  0.3421 -1.0387
 6764TIP3    H220257   1.633   4.555   5.019 -0.4027  0.3538 -0.0023
 6765TIP3   OH220258   7.024   5.020   3.417 -0.3002  0.8244  0.1738
 6765TIP3    H120259   6.991   4.983   3.499 -1.4890  0.3104 -0.5205
 6765TIP3    H220260   6.945   5.041   3.367  0.3098 -2.6126 -2.5422
 6766TIP3   OH220261   6.311   1.172   4.596  0.0742 -0.1138  0.2561
 6766TIP3    H120262   6.358   1.132   4.668  0.4825 -1.7509 -0.8575
 6766TIP3    H220263   6.233   1.118   4.584 -0.0776  0.2306 -0.4102
 6767TIP3   OH220264   4.721   3.178   3.684  0.5706 -0.5147  0.3935
 6767TIP3    H120265   4.645   3.120   3.692 -0.1740  0.3132 -0.5237
 6767TIP3    H220266   4.768   3.145   3.607  0.9144 -0.7430  0.6930
 6768TIP3   OH220267   7.002   6.496   4.966 -0.2443 -0.2494 -0.1919
 6768TIP3    H120268   7.038   6.584   4.964  1.9853 -1.0677  0.8304
 6768TIP3    H220269   6.960   6.486   4.880 -0.0385  1.5722 -0.5488
 6769TIP3   OH220270   1.723   5.379   2.200 -0.2290  0.2276 -0.5863
 6769TIP3    H120271   1.675   5.330   2.133 -0.0904  0.7279 -1.0612
 6769TIP3    H220272   1.795   5.322   2.225  0.1220  0.3141 -1.3752
 6770TIP3   OH220273   6.472   6.434   4.725 -0.1545  0.0880  0.1450
 6770TIP3    H120274   6.468   6.339   4.739  0.3847 -0.2501 -1.6571
 6770TIP3    H220275   6.559   6.460   4.756 -0.6469  0.1879  1.5066
 6771TIP3   OH220276   3.407   4.498   3.111 -0.5883 -0.1678 -0.2400
 6771TIP3    H120277   3.463   4.464   3.041 -0.9267  1.2213 -1.2358
 6771TIP3    H220278   3.466   4.548   3.167 -0.5856  0.0808 -0.4636
 6772TIP3   OH220279   2.583   6.157   3.873 -0.0607  0.0474  0.3610
 6772TIP3    H120280   2.495   6.193   3.856  0.0802 -0.0386 -0.6294
 6772TIP3    H220281   2.587   6.078   3.819  0.1571 -0.6902  1.4282
 6773TIP3   OH220282   0.697   6.762   1.822  0.2548  0.3234  0.0615
 6773TIP3    H120283   0.703   6.795   1.911  0.1385  0.3030  0.0774
 6773TIP3    H220284   0.734   6.832   1.768 -1.0796  1.0093 -0.0198
 6774TIP3   OH220285   4.963   6.435   0.623 -0.4652  0.3595 -0.4949
 6774TIP3    H120286   5.028   6.373   0.589 -2.7750 -1.7556 -1.3595
 6774TIP3    H220287   4.934   6.396   0.706 -0.8610  1.1138 -0.2688
 6775TIP3   OH220288   6.370   3.125   4.494  0.3107 -0.0933  0.1925
 6775TIP3    H120289   6.334   3.103   4.580 -0.4508 -1.0719 -0.3535
 6775TIP3    H220290   6.311   3.191   4.459  0.3354 -0.0602  0.2129
 6776TIP3   OH220291   1.778   1.357   3.848 -0.5757 -0.2975 -0.0348
 6776TIP3    H120292   1.847   1.303   3.809  0.6348  1.0666  0.1189
 6776TIP3    H220293   1.759   1.422   3.780 -0.0943  0.6943  0.7607
 6777TIP3   OH220294   2.753   4.001   5.407  0.6261  1.0137  0.2203
 6777TIP3    H120295   2.807   3.952   5.468 -0.3376 -0.4020 -0.0226
 6777TIP3    H220296   2.775   4.093   5.425 -0.5208  0.7869  3.6477
 6778TIP3   OH220297   3.429   0.771   0.345 -0.1627 -0.1001  0.0602
 6778TIP3    H120298   3.494   0.717   0.300 -1.1287 -0.6370 -0.7313
 6778TIP3    H220299   3.476   0.809   0.419  0.4426 -2.4801  1.0026
 6779TIP3   OH220300   5.158   4.021   0.665 -0.1549 -0.9958 -0.0820
 6779TIP3    H120301   5.184   4.095   0.718  2.3916 -0.8140 -1.4407
 6779TIP3    H220302   5.075   3.991   0.704 -2.0635  3.3033 -0.2859
 6780TIP3   OH220303   1.685   4.223   2.066 -0.1497 -0.4601 -0.0301
 6780TIP3    H120304   1.632   4.170   2.124  0.4099 -0.7771  0.1967
 6780TIP3    H220305   1.751   4.263   2.123  0.8211 -1.3003 -0.5196
 6781TIP3   OH220306   2.596   4.424   4.808 -0.2827  0.0092  0.2515
 6781TIP3    H120307   2.621   4.342   4.851 -0.1086  0.4244  0.9515
 6781TIP3    H220308   2.678   4.472   4.800 -0.5103  0.4488  0.5556
 6782TIP3   OH220309   2.558   4.879   0.032  0.1918 -0.3152  0.0813
 6782TIP3    H120310   2.498   4.805   0.030 -0.7757  0.2814  2.4095
 6782TIP3    H220311   2.568   4.906  -0.059 -2.4652 -0.9562 -0.4826
 6783TIP3   OH220312   4.126   5.370   1.681  0.3529 -0.5896  0.4099
 6783TIP3    H120313   4.058   5.413   1.630  0.3380 -1.2905 -0.1716
 6783TIP3    H220314   4.129   5.420   1.763  2.4722  2.5224 -1.3642
 6784TIP3   OH220315   0.166   1.311   3.129  0.1337  0.5966 -0.5172
 6784TIP3    H120316   0.072   1.328   3.128  0.1948  0.9387 -0.5347
 6784TIP3    H220317   0.180   1.262   3.211  0.0529  1.2080 -0.1315
 6785TIP3   OH220318   4.075   1.175   3.663  0.0292  0.5414 -0.2787
 6785TIP3    H120319   4.059   1.219   3.747 -0.8658 -1.5253  0.6987
 6785TIP3    H220320   4.136   1.233   3.618 -0.4918  2.3965  1.2259
 6786TIP3   OH220321   2.668   6.390   3.001 -0.6587  0.2497 -0.0816
 6786TIP3    H120322   2.680   6.361   2.910  0.0762  2.5046 -0.7699
 6786TIP3    H220323   2.586   6.439   2.999 -1.2788 -0.7103  0.7851
 6787TIP3   OH220324   3.572   0.214   4.864  0.1303 -0.1984 -0.8689
 6787TIP3    H120325   3.653   0.246   4.904 -1.0068  0.2966  1.2324
 6787TIP3    H220326   3.541   0.286   4.810  0.6474 -0.0524 -0.9720
 6788TIP3   OH220327   3.752   0.656   2.620 -0.3782 -0.7317 -1.0131
 6788TIP3    H120328   3.679   0.699   2.575 -0.9674  1.2558  1.6030
 6788TIP3    H220329   3.824   0.719   2.613  0.0372 -1.1667 -0.6590
 6789TIP3   OH220330   5.282   0.154   4.307  0.6052 -0.6636 -0.6859
 6789TIP3    H120331   5.331   0.215   4.362 -0.1201 -1.2252  0.6405
 6789TIP3    H220332   5.212   0.207   4.269  2.4469  0.2594 -2.9966
 6790TIP3   OH220333   3.132   5.915   0.469 -0.6546  0.4098 -0.3303
 6790TIP3    H120334   3.171   5.927   0.383 -0.9152 -0.6711 -0.6204
 6790TIP3    H220335   3.206   5.909   0.529 -0.2889 -1.8375 -0.9056
 6791TIP3   OH220336   0.598   1.610   2.118  0.0840  0.6533 -0.3739
 6791TIP3    H120337   0.618   1.641   2.030  1.4971  1.1156  0.0696
 6791TIP3    H220338   0.530   1.669   2.150  0.9373  1.7269 -0.4724
 6792TIP3   OH220339   2.043   4.731   5.146  0.0135  0.2356 -0.6984
 6792TIP3    H120340   1.973   4.796   5.149 -1.5168 -1.3535 -0.6256
 6792TIP3    H220341   2.069   4.719   5.237 -0.1170  0.3073 -0.6526
 6793TIP3   OH220342   0.976   3.803   1.063 -0.1215  0.1779  0.2479
 6793TIP3    H120343   0.947   3.894   1.068 -1.0676  0.2244 -3.3431
 6793TIP3    H220344   0.938   3.762   1.142 -0.6510  2.5854  1.3478
 6794TIP3   OH220345   0.631   5.825   0.353  0.3216  0.0703 -0.3097
 6794TIP3    H120346   0.633   5.777   0.270  0.3006  1.4105 -1.1132
 6794TIP3    H220347   0.686   5.902   0.338  0.1198  0.4668  0.8445
 6795TIP3   OH220348   3.940   0.277   5.817  0.4425  0.3092 -0.0577
 6795TIP3    H120349   3.922   0.298   5.909 -2.0640  1.8730 -0.7926
 6795TIP3    H220350   4.011   0.336   5.793 -0.8780  2.0511  0.1516
 6796TIP3   OH220351   4.624   3.602   0.102  0.7260  0.1036 -0.1565
 6796TIP3    H120352   4.643   3.524   0.050  1.2252 -0.7874  1.2768
 6796TIP3    H220353   4.709   3.626   0.140 -0.0344 -1.1092  2.6086
 6797TIP3   OH220354   6.898   6.165   1.057  0.1699  0.0899  0.0486
 6797TIP3    H120355   6.804   6.148   1.059  0.0891  0.5924  0.6380
 6797TIP3    H220356   6.906   6.252   1.017  0.2793  0.6899  1.3196
 6798TIP3   OH220357   1.459   3.904   1.866  0.3386  0.0431 -0.2934
 6798TIP3    H120358   1.426   3.960   1.796 -0.0408  0.8650  0.5140
 6798TIP3    H220359   1.546   3.939   1.886 -0.4098  1.2018  1.0844
 6799TIP3   OH220360   3.407   1.351   0.060  0.0446  0.6307 -0.6458
 6799TIP3    H120361   3.373   1.413  -0.005  0.5166  1.0797 -0.4779
 6799TIP3    H220362   3.330   1.320   0.107 -0.0674  2.3397  0.3602
 6800TIP3   OH220363   6.897   0.216   3.376  0.8605 -0.6697  0.0263
 6800TIP3    H120364   6.921   0.234   3.467  2.0662  2.0167 -0.7375
 6800TIP3    H220365   6.802   0.204   3.378  0.7457  0.2609  1.5045
 6801TIP3   OH220366   5.259   6.571   1.291 -0.6573 -0.3639  0.1135
 6801TIP3    H120367   5.304   6.654   1.280  0.6275 -1.1789 -1.1481
 6801TIP3    H220368   5.212   6.580   1.374 -0.5580  1.5953  0.0004
 6802TIP3   OH220369   4.427   2.627   4.168 -0.3337 -0.5628 -0.1158
 6802TIP3    H120370   4.359   2.666   4.113  0.4605 -1.6414 -1.9201
 6802TIP3    H220371   4.384   2.614   4.253 -2.6867 -2.0750 -1.4501
 6803TIP3   OH220372   1.402   3.850   2.677  0.2562  1.0284  0.0702
 6803TIP3    H120373   1.388   3.927   2.731  1.1556  1.6764 -0.5794
 6803TIP3    H220374   1.471   3.801   2.722 -0.1055  0.7455  0.3258
 6804TIP3   OH220375   1.030   1.546   1.342  0.5651 -0.4891 -0.4952
 6804TIP3    H120376   0.944   1.586   1.356  0.2187 -1.8957  2.1396
 6804TIP3    H220377   1.072   1.600   1.276 -1.6681  1.3074 -0.5453
 6805TIP3   OH220378   3.981   1.013   5.149  0.6736 -0.1665 -0.1911
 6805TIP3    H120379   4.077   1.004   5.146  0.7418 -0.1505  1.1274
 6805TIP3    H220380   3.962   1.087   5.091  1.4276 -0.3525 -0.6897
 6806TIP3   OH220381   2.311   6.446   3.588 -0.1585  0.3785  0.3294
 6806TIP3    H120382   2.309   6.541   3.600  2.1151  0.4909  0.1957
 6806TIP3    H220383   2.226   6.416   3.619 -0.6182  2.3774  1.1318
 6807TIP3   OH220384   7.162   6.154   5.013  0.2271 -0.2697 -0.1587
 6807TIP3    H120385   7.197   6.178   4.927 -0.0919  1.2263  0.1057
 6807TIP3    H220386   7.190   6.225   5.070 -2.5483  0.5952  0.2385
 6808TIP3   OH220387   6.612   5.896   4.122 -0.3146 -0.0251 -0.6693
 6808TIP3    H120388   6.673   5.829   4.092 -0.0165 -0.1373  0.1531
 6808TIP3    H220389   6.646   5.977   4.085 -0.9254 -0.3620 -2.0346
 6809TIP3   OH220390   2.401   5.095   4.820 -0.3161  0.0005 -0.7917
 6809TIP3    H120391   2.325   5.118   4.766  0.0586 -0.1877 -1.4066
 6809TIP3    H220392   2.463   5.055   4.759  0.7332  1.1531 -0.5066
 6810TIP3   OH220393   1.130   0.780   1.023 -0.1718 -0.5091 -0.5584
 6810TIP3    H120394   1.054   0.745   1.069 -0.9367  1.2429 -0.4348
 6810TIP3    H220395   1.093   0.838   0.956  1.0566  1.4304  0.3711
 6811TIP3   OH220396   1.211   6.564   1.505  0.5199 -0.4398  0.1354
 6811TIP3    H120397   1.122   6.599   1.512  0.4034 -0.8828  1.0311
 6811TIP3    H220398   1.267   6.641   1.499 -0.0480 -0.1362 -2.6848
 6812TIP3   OH220399   2.419   6.505   2.917 -0.0353 -0.3903  0.1594
 6812TIP3    H120400   2.367   6.528   2.840 -1.5568  0.2429  1.3249
 6812TIP3    H220401   2.355   6.491   2.986  1.3261  0.0815  1.5834
 6813TIP3   OH220402   1.780   0.996   2.248 -0.5635 -0.6466  0.1832
 6813TIP3    H120403   1.782   0.943   2.328  1.3733 -0.6118  0.2014
 6813TIP3    H220404   1.771   1.086   2.280  1.1651 -0.5406  0.4647
 6814TIP3   OH220405   3.273   2.622   3.906  0.6494 -0.7530 -0.1422
 6814TIP3    H120406   3.256   2.630   4.000 -0.2057 -1.1008 -0.2582
 6814TIP3    H220407   3.320   2.703   3.883  1.3406 -0.9132  0.6803
 6815TIP3   OH220408   6.231   3.093   1.258  0.1845 -0.8597 -0.2310
 6815TIP3    H120409   6.275   3.008   1.262  1.9799 -0.0041 -0.4287
 6815TIP3    H220410   6.222   3.120   1.349  1.7554 -0.2814 -0.2055
 6816TIP3   OH220411   6.948   1.953   1.305 -0.1629 -0.1150 -0.6287
 6816TIP3    H120412   6.911   2.032   1.345  3.0255  0.9045  0.5930
 6816TIP3    H220413   6.986   1.983   1.222  2.9874  0.2760  0.8154
 6817TIP3   OH220414   5.543   5.627   5.804  0.3642  0.0535  0.2004
 6817TIP3    H120415   5.602   5.556   5.778 -0.1965  0.3114 -2.0404
 6817TIP3    H220416   5.467   5.583   5.842  1.0688 -0.3968  1.1052
 6818TIP3   OH220417   2.058   3.020   2.851 -0.0065  0.2011 -0.1112
 6818TIP3    H120418   2.075   2.944   2.794 -2.0073 -1.1780  1.0280
 6818TIP3    H220419   2.022   3.086   2.792  1.5923  0.2467 -1.0941
 6819TIP3   OH220420   6.516   3.295   2.795  0.0905  0.0845 -0.0820
 6819TIP3    H120421   6.541   3.383   2.767 -1.3525  0.1577 -1.2844
 6819TIP3    H220422   6.598   3.255   2.824  1.0760  1.2679 -1.0907
 6820TIP3   OH220423   4.968   3.313   0.259  0.0083  0.3527 -0.3452
 6820TIP3    H120424   5.055   3.315   0.300 -0.5627 -2.0667  1.1684
 6820TIP3    H220425   4.979   3.257   0.183 -0.5648 -1.4916  0.8790
 6821TIP3   OH220426   5.493   6.259   4.636 -0.6496 -0.1758  0.3143
 6821TIP3    H120427   5.406   6.295   4.618 -0.0020  0.8880 -0.7515
 6821TIP3    H220428   5.529   6.237   4.550  0.4380  0.0994  0.6869
 6822TIP3   OH220429   2.016   3.607   5.817  0.2695  0.0689 -0.2598
 6822TIP3    H120430   1.951   3.544   5.846  1.2361 -0.9237 -0.2098
 6822TIP3    H220431   1.986   3.691   5.853 -0.2650 -0.5986  0.8909
 6823TIP3   OH220432   4.781   2.217   0.324  0.1692  0.1538  0.6481
 6823TIP3    H120433   4.827   2.249   0.402  1.1790  1.9884 -0.6240
 6823TIP3    H220434   4.729   2.291   0.295  0.9281 -0.0040 -1.2322
 6824TIP3   OH220435   1.002   6.169   3.230 -0.2935  0.4684  0.2535
 6824TIP3    H120436   1.090   6.132   3.242  0.2583  0.9189 -1.9773
 6824TIP3    H220437   1.015   6.264   3.241 -1.1547  0.3611  3.0259
 6825TIP3   OH220438   6.074   6.807   4.700  0.6375  0.6816  0.2501
 6825TIP3    H120439   6.052   6.765   4.783 -0.8137  1.5248  0.3244
 6825TIP3    H220440   6.169   6.794   4.691  0.3041 -2.4621  0.2797
 6826TIP3   OH220441   5.577   4.507   5.868 -0.3306  0.1053  0.1457
 6826TIP3    H120442   5.554   4.422   5.905 -1.8915 -0.4819 -2.0151
 6826TIP3    H220443   5.668   4.498   5.842 -0.2358 -0.6011  0.6934
 6827TIP3   OH220444   2.263   3.024   1.591  0.3294  0.3312  0.0166
 6827TIP3    H120445   2.247   2.963   1.519  1.0065  1.1630 -0.8516
 6827TIP3    H220446   2.216   2.986   1.665 -1.1314 -0.0602 -1.0819
 6828TIP3   OH220447   5.120   1.626   3.179  0.1564 -0.0435 -0.3387
 6828TIP3    H120448   5.025   1.626   3.181  0.1274 -1.7209 -0.4440
 6828TIP3    H220449   5.146   1.609   3.270  0.3424  0.0823 -0.3682
 6829TIP3   OH220450   0.043   1.418   2.196 -0.8292  0.2519 -0.2211
 6829TIP3    H120451   0.073   1.503   2.163  0.5878  0.1115  0.6184
 6829TIP3    H220452   0.123   1.373   2.223 -1.5868 -1.2048 -0.2733
 6830TIP3   OH220453   5.563   0.651   3.429  0.0208  0.1825  0.3421
 6830TIP3    H120454   5.561   0.653   3.525  1.0517 -1.1972  0.4227
 6830TIP3    H220455   5.520   0.568   3.407  0.1497  0.3050 -0.3713
 6831TIP3   OH220456   2.724   1.488   4.079 -0.0767 -0.0014  0.5043
 6831TIP3    H120457   2.808   1.496   4.124  1.3093  0.2440 -1.9209
 6831TIP3    H220458   2.667   1.552   4.123  1.7656  1.6319  0.6633
 6832TIP3   OH220459   2.226   2.463   3.506 -0.4481 -0.5895 -0.5863
 6832TIP3    H120460   2.322   2.462   3.508 -0.4426 -1.4228 -0.9128
 6832TIP3    H220461   2.200   2.481   3.596  0.0229  1.6053 -0.8419
 6833TIP3   OH220462   5.389   1.985   1.846  0.7440 -0.0176 -0.4421
 6833TIP3    H120463   5.359   2.031   1.924  2.2513 -1.1771  0.8758
 6833TIP3    H220464   5.382   1.892   1.869  1.1922 -0.3836 -1.7070
 6834TIP3   OH220465   3.419   4.821   0.834  0.0179  0.2388  0.1207
 6834TIP3    H120466   3.363   4.881   0.784 -0.5206 -1.5262 -1.5068
 6834TIP3    H220467   3.358   4.765   0.881  0.3670 -1.1154 -0.9590
 6835TIP3   OH220468   1.278   3.378   3.950 -0.0862  0.0423  0.5432
 6835TIP3    H120469   1.190   3.375   3.910 -0.8185  1.1304  1.9723
 6835TIP3    H220470   1.261   3.382   4.044  1.6246 -3.6389  1.1505
 6836TIP3   OH220471   3.647   3.078   0.825 -0.7124 -0.1563  0.0675
 6836TIP3    H120472   3.605   3.107   0.743  0.6671  0.5812 -0.4191
 6836TIP3    H220473   3.575   3.070   0.887 -1.7609 -0.4446 -1.1343
 6837TIP3   OH220474   4.284   6.247   2.727 -0.4910 -0.5766  0.1749
 6837TIP3    H120475   4.347   6.304   2.771  0.0161 -1.3134  0.4203
 6837TIP3    H220476   4.199   6.285   2.748 -0.2027 -0.3707  1.0233
 6838TIP3   OH220477   5.577   3.231   4.282  0.9083  0.5047 -0.1552
 6838TIP3    H120478   5.612   3.286   4.212  0.2375  2.1741  0.7654
 6838TIP3    H220479   5.533   3.292   4.341 -0.6955 -1.1404  0.4357
 6839TIP3   OH220480   5.737   1.205   2.014  0.2048  0.3761  0.2098
 6839TIP3    H120481   5.827   1.209   1.984  0.4570 -2.6003  0.2841
 6839TIP3    H220482   5.695   1.140   1.958 -0.9051 -0.9144  2.3812
 6840TIP3   OH220483   5.148   2.784   3.854  0.4560  0.2468  0.3950
 6840TIP3    H120484   5.201   2.855   3.892  0.2442  1.4980 -1.5290
 6840TIP3    H220485   5.060   2.799   3.889  0.3817  1.0538 -0.0961
 6841TIP3   OH220486   6.189   2.333   1.940 -0.1511 -0.1708  0.6785
 6841TIP3    H120487   6.254   2.272   1.903 -0.7077 -1.2209  1.3739
 6841TIP3    H220488   6.165   2.389   1.867 -0.9525 -1.9565 -0.4990
 6842TIP3   OH220489   5.204   0.428   3.133 -0.5907 -0.0768 -0.0286
 6842TIP3    H120490   5.216   0.470   3.218  0.4646  0.4783 -0.4316
 6842TIP3    H220491   5.288   0.439   3.089 -1.4202  0.5716 -1.5489
 6843TIP3   OH220492   6.979   0.420   3.560 -0.2127 -0.6734  0.5745
 6843TIP3    H120493   6.984   0.459   3.648 -0.6152  1.4860 -0.3001
 6843TIP3    H220494   6.902   0.460   3.521 -0.9006 -2.7274 -0.2857
 6844TIP3   OH220495   0.011   2.254   3.970  0.1781  0.4365 -0.1255
 6844TIP3    H120496  -0.018   2.309   4.042 -0.4024  0.7623 -0.6019
 6844TIP3    H220497   0.073   2.308   3.922  0.0032  0.4863 -0.2956
 6845TIP3   OH220498   1.645   0.060   2.493  0.1148  0.5617 -0.2007
 6845TIP3    H120499   1.679   0.057   2.582 -0.9525 -1.4542  0.2159
 6845TIP3    H220500   1.718   0.032   2.438 -0.1950 -1.7800  0.4719
 6846TIP3   OH220501   5.195   2.040   4.483  0.0851  0.5043 -0.2029
 6846TIP3    H120502   5.210   2.130   4.454 -1.7180  0.6419 -0.7854
 6846TIP3    H220503   5.153   1.997   4.409  0.6578 -0.7567  0.1722
 6847TIP3   OH220504   4.292   1.724   3.680 -0.2394 -0.1455 -0.0642
 6847TIP3    H120505   4.386   1.720   3.663 -0.1661  0.1946  0.2594
 6847TIP3    H220506   4.252   1.711   3.594  0.1188  0.9265 -0.3978
 6848TIP3   OH220507   5.386   4.471   0.264 -0.2943 -0.3320 -0.3435
 6848TIP3    H120508   5.303   4.454   0.308 -0.2433 -0.5481 -0.3294
 6848TIP3    H220509   5.383   4.417   0.185  0.1389 -0.9017  0.0238
 6849TIP3   OH220510   5.811   3.271   3.577  0.1374  0.0655 -0.0501
 6849TIP3    H120511   5.866   3.311   3.510 -0.9372  0.3336 -0.8028
 6849TIP3    H220512   5.736   3.236   3.529  0.3852 -1.6869  0.7462
 6850TIP3   OH220513   6.773   5.429   4.610 -0.1549  0.3202  0.7760
 6850TIP3    H120514   6.767   5.390   4.698 -1.4260  0.6644  0.8598
 6850TIP3    H220515   6.682   5.441   4.583  0.2276  0.9103 -0.2903
 6851TIP3   OH220516   0.844   3.933   0.263  0.0400 -0.2038  0.0229
 6851TIP3    H120517   0.788   3.874   0.212 -2.0459  1.4402  0.2446
 6851TIP3    H220518   0.912   3.876   0.300  0.7875 -1.7063 -3.3024
 6852TIP3   OH220519   5.485   5.586   0.137  0.8072  0.3928 -0.4052
 6852TIP3    H120520   5.542   5.663   0.140  0.6071  0.5880 -1.4217
 6852TIP3    H220521   5.541   5.515   0.105  1.3819 -0.2702  1.8781
 6853TIP3   OH220522   5.906   4.008   3.739  0.6924  0.0136  0.3147
 6853TIP3    H120523   5.942   4.096   3.726 -2.1986  1.2525 -0.0134
 6853TIP3    H220524   5.875   4.007   3.829 -0.4929 -0.1830 -0.0858
 6854TIP3   OH220525   3.946   2.966   5.128 -0.6401  0.3311  0.5888
 6854TIP3    H120526   3.996   2.910   5.069 -1.1955  0.7006 -0.2607
 6854TIP3    H220527   4.008   2.992   5.196  0.3756  0.9200 -0.5336
 6855TIP3   OH220528   6.375   3.671   5.103 -0.2273 -0.4985 -0.3230
 6855TIP3    H120529   6.336   3.659   5.189  0.5023 -0.8569 -0.0348
 6855TIP3    H220530   6.404   3.762   5.101 -1.1221 -0.2096 -0.5657
 6856TIP3   OH220531   0.611   1.774   3.393 -0.7533 -0.3778  0.1854
 6856TIP3    H120532   0.686   1.749   3.338 -0.0112  0.2456  0.8932
 6856TIP3    H220533   0.589   1.863   3.364  0.9554  0.7937  2.2129
 6857TIP3   OH220534   7.019   3.495   0.262 -0.0416 -0.3100 -0.3423
 6857TIP3    H120535   7.075   3.484   0.338  0.2505  0.1650 -0.4859
 6857TIP3    H220536   7.068   3.552   0.203 -0.5718 -0.0832 -0.5732
 6858TIP3   OH220537   2.286   4.973   2.550 -0.5583 -0.5169 -0.8624
 6858TIP3    H120538   2.192   4.956   2.560 -0.5938 -0.3680 -0.9443
 6858TIP3    H220539   2.293   5.068   2.546 -0.3597 -0.5169 -0.4599
 6859TIP3   OH220540   3.076   6.459   2.862 -0.6197 -0.5785  0.2450
 6859TIP3    H120541   3.139   6.530   2.846  0.8184 -2.0751 -1.0872
 6859TIP3    H220542   3.094   6.431   2.951 -0.0655 -0.3588  0.2087
 6860TIP3   OH220543   0.299   4.945   5.369 -0.0115 -0.0635  0.8624
 6860TIP3    H120544   0.337   5.033   5.381  2.4473 -1.3173  3.4906
 6860TIP3    H220545   0.360   4.901   5.310 -0.0660 -0.5912  1.1906
 6861TIP3   OH220546   6.931   1.206   5.632 -0.2587 -0.3570 -0.2783
 6861TIP3    H120547   6.871   1.137   5.661 -0.1901  0.1803  1.1856
 6861TIP3    H220548   6.992   1.218   5.705  0.7505  0.1199 -1.1646
 6862TIP3   OH220549   3.634   2.402   5.233  0.3728 -0.1588 -0.1672
 6862TIP3    H120550   3.696   2.405   5.160  1.6348  0.6627  0.8782
 6862TIP3    H220551   3.549   2.421   5.193  1.1441  1.1052 -1.3214
 6863TIP3   OH220552   1.849   1.612   0.766 -0.1204 -0.0498 -0.5117
 6863TIP3    H120553   1.796   1.689   0.749 -0.7235 -0.1560  0.8156
 6863TIP3    H220554   1.927   1.645   0.810 -0.1684 -0.1565 -0.3473
 6864TIP3   OH220555   4.472   5.198   0.132 -0.2145 -0.1662 -0.2083
 6864TIP3    H120556   4.470   5.279   0.183 -1.2325 -0.9034  1.0023
 6864TIP3    H220557   4.430   5.220   0.049  0.2262  0.7235 -0.2107
 6865TIP3   OH220558   2.778   4.883   5.190  0.3992 -0.1700  0.0527
 6865TIP3    H120559   2.790   4.974   5.162 -3.0339  0.4649  0.1530
 6865TIP3    H220560   2.765   4.888   5.285  0.2188 -0.7603  0.0658
 6866TIP3   OH220561   4.645   5.888   2.326  0.2895  0.4227  0.2754
 6866TIP3    H120562   4.604   5.835   2.395  1.7723 -1.1357  0.0300
 6866TIP3    H220563   4.693   5.956   2.373  2.1371 -1.2359  0.9172
 6867TIP3   OH220564   5.412   4.454   3.399 -0.1758 -0.2399 -0.5997
 6867TIP3    H120565   5.442   4.363   3.394 -1.0285 -0.5049 -1.1729
 6867TIP3    H220566   5.478   4.503   3.350  0.0299 -0.6236 -0.7134
 6868TIP3   OH220567   0.371   1.956   0.333 -0.7106 -0.3009 -0.1442
 6868TIP3    H120568   0.361   2.002   0.249 -0.8488  0.1312  0.1080
 6868TIP3    H220569   0.430   1.883   0.313 -0.5878 -0.0880 -0.5744
 6869TIP3   OH220570   0.362   3.780   1.403  0.4829 -0.0776 -0.3249
 6869TIP3    H120571   0.318   3.854   1.362  2.3407 -0.0429 -2.4418
 6869TIP3    H220572   0.310   3.704   1.377 -0.1213  0.2513 -0.0924
 6870TIP3   OH220573   2.458   1.369   5.537 -0.4631 -0.2866 -0.3397
 6870TIP3    H120574   2.364   1.359   5.551 -0.7723  1.8355 -0.5659
 6870TIP3    H220575   2.469   1.360   5.443 -0.6417  0.7040 -0.4638
 6871TIP3   OH220576   6.578   3.920   0.641 -0.7577  0.6067  0.6770
 6871TIP3    H120577   6.601   3.961   0.724  1.5570  1.3337 -0.2458
 6871TIP3    H220578   6.654   3.936   0.584 -1.2319 -1.9622 -0.8359
 6872TIP3   OH220579   3.711   5.470   2.286 -0.2207 -0.6266 -0.3044
 6872TIP3    H120580   3.770   5.416   2.233 -0.9860 -1.2291 -0.5536
 6872TIP3    H220581   3.770   5.524   2.339  0.6777 -3.7278  2.1558
 6873TIP3   OH220582   2.148   2.220   0.741 -0.4934  0.7410  0.3221
 6873TIP3    H120583   2.093   2.142   0.754  0.0031 -0.2566 -2.8409
 6873TIP3    H220584   2.202   2.224   0.820 -1.5107 -1.2711  1.2051
 6874TIP3   OH220585   2.295   4.293   0.690  0.3165  0.0941  0.0190
 6874TIP3    H120586   2.361   4.325   0.752  0.6909 -0.8742  0.1471
 6874TIP3    H220587   2.344   4.271   0.611 -0.0373  0.5122 -0.3244
 6875TIP3   OH220588   6.855   0.002   2.119 -0.0909 -0.3144 -0.2619
 6875TIP3    H120589   6.919   0.018   2.049 -1.6255  1.3547 -1.3895
 6875TIP3    H220590   6.906   0.006   2.200  1.1994  1.4408 -1.0908
 6876TIP3   OH220591   0.747   0.013   3.518  0.0038  0.6049 -0.7899
 6876TIP3    H120592   0.762   0.094   3.566 -0.8232  0.8223 -0.8858
 6876TIP3    H220593   0.660   0.022   3.481 -0.0448 -0.2722 -0.9246
 6877TIP3   OH220594   5.361   0.710   5.347  0.2520  0.2672  0.1300
 6877TIP3    H120595   5.274   0.749   5.347  0.3002  0.3805 -0.0501
 6877TIP3    H220596   5.354   0.633   5.403  0.0008  0.1988  0.0045
 6878TIP3   OH220597   0.231   6.635   5.058  0.5469  0.5819 -0.1236
 6878TIP3    H120598   0.250   6.549   5.022  1.2295 -0.2845  2.1373
 6878TIP3    H220599   0.159   6.621   5.119  1.5698  1.2588  1.3347
 6879TIP3   OH220600   0.927   4.923   4.627  0.0972  0.2349  0.0389
 6879TIP3    H120601   0.923   5.012   4.660  1.0591  0.2667  0.0894
 6879TIP3    H220602   0.898   4.929   4.536  0.8381  0.7150 -0.1693
 6880TIP3   OH220603   6.409   2.835   3.336 -0.2269  0.1638  0.1595
 6880TIP3    H120604   6.418   2.881   3.252 -1.3383  1.3189  0.6402
 6880TIP3    H220605   6.314   2.831   3.350 -0.0662 -0.5294  1.0954
 6881TIP3   OH220606   3.133   1.319   4.458  0.2377  0.0226 -0.4885
 6881TIP3    H120607   3.057   1.270   4.489 -0.6781  0.0557 -2.5251
 6881TIP3    H220608   3.120   1.408   4.491 -2.3634  0.8778 -3.2650
 6882TIP3   OH220609   4.457   4.468   0.757  0.1157  0.2493  0.0127
 6882TIP3    H120610   4.369   4.490   0.788 -1.0857 -0.9028 -2.3319
 6882TIP3    H220611   4.459   4.498   0.666  0.8332 -2.8776 -1.1218
 6883TIP3   OH220612   5.702   4.171   2.045 -0.5629  0.1476 -0.4172
 6883TIP3    H120613   5.791   4.204   2.030 -0.8562  1.3675  0.4430
 6883TIP3    H220614   5.713   4.102   2.111 -0.4425  1.5687  1.1085
 6884TIP3   OH220615   7.052   4.630   0.808  0.3616 -0.1691 -0.4119
 6884TIP3    H120616   7.016   4.717   0.791 -1.9198 -0.5368  1.8439
 6884TIP3    H220617   6.981   4.570   0.786  1.2397 -1.3240 -0.1790
 6885TIP3   OH220618   7.144   1.731   4.456 -0.5780 -0.1146  0.4313
 6885TIP3    H120619   7.131   1.779   4.538  1.3226  0.6791  0.3222
 6885TIP3    H220620   7.235   1.747   4.433 -1.3873  0.8703 -2.5998
 6886TIP3   OH220621   7.118   2.186   5.121 -0.1604  0.3459  0.5247
 6886TIP3    H120622   7.076   2.226   5.197 -1.8301  0.3347 -0.3599
 6886TIP3    H220623   7.154   2.260   5.071  0.2455  0.4090  0.8989
 6887TIP3   OH220624   2.422   0.826   1.760 -0.4910 -0.1380 -0.2702
 6887TIP3    H120625   2.500   0.831   1.704 -1.1050 -0.4528 -1.1812
 6887TIP3    H220626   2.457   0.820   1.849  0.5355 -0.6954 -0.6879
 6888TIP3   OH220627   4.208   0.369   2.384  0.5217  0.6148  0.1643
 6888TIP3    H120628   4.296   0.377   2.349  0.5564  3.5074  0.6285
 6888TIP3    H220629   4.151   0.400   2.313 -0.0211 -0.0703  0.2906
 6889TIP3   OH220630   6.681   4.650   3.475  0.9650 -0.1122 -0.0675
 6889TIP3    H120631   6.631   4.731   3.464  0.1883 -0.3970  1.1259
 6889TIP3    H220632   6.669   4.603   3.392 -0.8885 -0.2114  0.2014
 6890TIP3   OH220633   1.794   5.737   4.347 -0.1305 -0.6416  0.3644
 6890TIP3    H120634   1.748   5.792   4.283  3.3578  1.1589 -0.8601
 6890TIP3    H220635   1.800   5.651   4.306  0.5188  0.0223 -0.9908
 6891TIP3   OH220636   6.164   1.727   1.532 -0.1918  0.4465 -0.0506
 6891TIP3    H120637   6.077   1.727   1.493  0.5746 -0.1971 -1.8197
 6891TIP3    H220638   6.162   1.655   1.595 -0.5475 -0.4080 -1.0175
 6892TIP3   OH220639   5.148   6.259   0.484 -0.2134  0.5979  0.3174
 6892TIP3    H120640   5.103   6.239   0.402  1.5455  1.1775 -0.8522
 6892TIP3    H220641   5.223   6.312   0.458  2.1785 -1.7230  1.8937
 6893TIP3   OH220642   4.441   2.057   1.910  0.1428 -0.1185 -0.0575
 6893TIP3    H120643   4.350   2.056   1.940  0.1522 -1.5613 -0.0046
 6893TIP3    H220644   4.436   2.036   1.817  0.3663  0.7575 -0.2750
 6894TIP3   OH220645   5.875   4.877   1.708 -0.0942  0.0945  0.0400
 6894TIP3    H120646   5.801   4.843   1.756  0.2359 -0.9542 -0.1695
 6894TIP3    H220647   5.879   4.824   1.628  2.4586 -1.7268  1.2542
 6895TIP3   OH220648   6.606   3.798   4.018 -0.2928  0.3514 -0.2213
 6895TIP3    H120649   6.597   3.728   3.954  0.8161  0.3765 -0.4182
 6895TIP3    H220650   6.662   3.761   4.087 -0.5809  0.6898  0.2051
 6896TIP3   OH220651   1.408   2.410   0.170  0.4802  0.1021  0.5305
 6896TIP3    H120652   1.315   2.413   0.148  0.8283  1.1160 -0.8807
 6896TIP3    H220653   1.441   2.331   0.126  0.2143 -0.5442  1.4502
 6897TIP3   OH220654   5.101   4.765   1.040  0.0602 -0.1080 -0.5688
 6897TIP3    H120655   5.091   4.748   0.946  1.3251  0.8686 -0.9092
 6897TIP3    H220656   5.053   4.846   1.055 -0.8428 -0.7020 -0.1881
 6898TIP3   OH220657   6.707   5.558   5.426  0.3492  0.1611 -0.3335
 6898TIP3    H120658   6.782   5.546   5.368 -0.3424  0.8368 -1.4030
 6898TIP3    H220659   6.742   5.608   5.500  1.4710 -1.5760  0.3752
 6899TIP3   OH220660   5.996   3.612   1.254 -0.5825  0.2743 -0.8070
 6899TIP3    H120661   5.911   3.578   1.225  0.1041 -2.2972 -0.0941
 6899TIP3    H220662   5.980   3.642   1.344 -1.0212  1.0593 -1.1425
 6900TIP3   OH220663   2.114   1.898   4.668  0.0343  0.5575  0.3920
 6900TIP3    H120664   2.085   1.845   4.594 -0.5637  1.6348 -0.1653
 6900TIP3    H220665   2.109   1.988   4.637  0.7823  0.9674  1.4058
 6901TIP3   OH220666   5.868   0.442   2.019 -0.1496  0.0677 -0.2701
 6901TIP3    H120667   5.869   0.347   2.008 -0.4731 -0.0739  0.8097
 6901TIP3    H220668   5.781   0.461   2.053  0.2993  0.6080  0.6205
 6902TIP3   OH220669   4.151   0.386   5.653  0.1192  0.2713  0.1577
 6902TIP3    H120670   4.180   0.470   5.616  0.8275  0.5224  1.2508
 6902TIP3    H220671   4.209   0.372   5.728  0.0278 -1.2165 -0.0293
 6903TIP3   OH220672   2.261   1.401   0.417  0.5459  0.0247 -0.5540
 6903TIP3    H120673   2.350   1.413   0.449  0.7626 -0.5504 -0.9312
 6903TIP3    H220674   2.206   1.418   0.494  1.0240 -0.6431 -0.0480
 6904TIP3   OH220675   6.795   1.365   0.066 -0.3948 -0.3215 -0.1129
 6904TIP3    H120676   6.879   1.362   0.020 -0.0808 -1.2555  0.4904
 6904TIP3    H220677   6.770   1.458   0.066  1.8287  0.3635  1.8177
 6905TIP3   OH220678   7.088   0.450   3.282 -0.3052 -0.0863 -0.4203
 6905TIP3    H120679   7.086   0.378   3.219  0.5743 -1.4151  0.9999
 6905TIP3    H220680   7.058   0.411   3.364 -0.3657  1.3300  0.2612
 6906TIP3   OH220681   5.807   5.745   1.967 -0.5896 -0.2522  0.3096
 6906TIP3    H120682   5.738   5.811   1.960 -1.7337 -1.4666 -0.2369
 6906TIP3    H220683   5.768   5.665   1.932 -0.2595 -1.9860  3.4864
 6907TIP3   OH220684   4.762   5.163   2.232 -0.7230 -0.2750 -0.3970
 6907TIP3    H120685   4.693   5.113   2.276 -0.7695 -0.4675 -0.6871
 6907TIP3    H220686   4.786   5.231   2.295 -0.7093 -0.6175 -0.0252
 6908TIP3   OH220687   6.950   5.961   0.290  0.6260 -0.0487 -0.0925
 6908TIP3    H120688   7.015   5.990   0.354  0.5769  0.9552 -0.4695
 6908TIP3    H220689   6.866   5.972   0.335  0.7233 -2.9259  1.0078
 6909TIP3   OH220690   3.506   1.064   3.551 -0.6116  0.2111  0.1201
 6909TIP3    H120691   3.546   0.995   3.498  0.3868  1.8880 -1.4167
 6909TIP3    H220692   3.412   1.056   3.533 -0.8651 -2.3363  2.0222
 6910TIP3   OH220693   2.570   4.350   4.039 -0.4420 -0.0500 -0.1245
 6910TIP3    H120694   2.607   4.330   4.125 -1.2894  0.7518  0.4468
 6910TIP3    H220695   2.501   4.413   4.057 -0.9025 -0.1771 -1.3612
 6911TIP3   OH220696   1.261   5.355   0.242 -0.0443  0.1827 -0.4326
 6911TIP3    H120697   1.217   5.363   0.158  0.6955 -3.0918 -1.2889
 6911TIP3    H220698   1.190   5.340   0.305 -0.4527 -1.0723 -1.1454
 6912TIP3   OH220699   0.805   3.638   1.244 -0.3206  0.0968 -0.4935
 6912TIP3    H120700   0.715   3.668   1.245 -0.7111 -0.9113 -2.1739
 6912TIP3    H220701   0.827   3.625   1.337 -1.5183  1.3476 -0.0045
 6913TIP3   OH220702   4.394   4.393   5.517  0.1976 -0.5959  0.4922
 6913TIP3    H120703   4.299   4.387   5.516  0.1480 -0.1155  1.5493
 6913TIP3    H220704   4.418   4.394   5.610  1.3443 -2.3071  0.2789
 6914TIP3   OH220705   5.377   5.588   5.268 -0.0018 -0.6586  0.0122
 6914TIP3    H120706   5.417   5.572   5.353 -1.2183 -0.2350  0.6912
 6914TIP3    H220707   5.443   5.635   5.219  0.8563 -1.2389  0.5848
 6915TIP3   OH220708   2.758   0.923   2.809 -0.6905 -0.0249 -0.0280
 6915TIP3    H120709   2.770   0.865   2.884 -1.1222  1.6445  1.4184
 6915TIP3    H220710   2.668   0.955   2.818  0.1894  2.5773  0.6117
 6916TIP3   OH220711   2.348   4.480   3.475  0.3813  0.5766  0.3300
 6916TIP3    H120712   2.314   4.538   3.543  0.4100  0.8878  0.0796
 6916TIP3    H220713   2.271   4.455   3.424  0.4501  0.8473  0.0935
 6917TIP3   OH220714   6.926   0.637   5.836 -0.1826  0.4266 -0.4313
 6917TIP3    H120715   6.996   0.702   5.832 -0.0761  0.2491 -1.6911
 6917TIP3    H220716   6.845   0.687   5.830 -0.1214  0.5005 -0.6198
 6918TIP3   OH220717   0.779   5.760   5.465  0.7102 -0.0918  0.2429
 6918TIP3    H120718   0.757   5.852   5.447  1.9121  0.6217  2.1794
 6918TIP3    H220719   0.820   5.730   5.384  0.9350  1.3023 -0.1963
 6919TIP3   OH220720   3.818   5.035   3.378  0.3014  0.1229 -0.1951
 6919TIP3    H120721   3.772   5.027   3.462  0.1111  0.5560 -0.2566
 6919TIP3    H220722   3.893   4.977   3.387 -1.6563 -2.7374 -1.1000
 6920TIP3   OH220723   2.309   1.684   4.109 -0.0661 -0.1315  0.0245
 6920TIP3    H120724   2.358   1.737   4.047 -0.8860  0.4107 -0.1801
 6920TIP3    H220725   2.269   1.616   4.056  0.9067 -0.9224  0.2739
 6921TIP3   OH220726   5.103   3.289   5.500 -0.0190  0.2713 -0.2224
 6921TIP3    H120727   5.111   3.284   5.404  1.8382 -0.0109 -0.0978
 6921TIP3    H220728   5.115   3.199   5.530 -0.9001  0.3117  0.2727
 6922TIP3   OH220729   6.080   0.032   2.263  0.1641 -0.1523  0.2498
 6922TIP3    H120730   6.105  -0.031   2.196  1.9575  2.0346 -1.3304
 6922TIP3    H220731   6.162   0.053   2.308  0.0188  2.1816 -0.4086
 6923TIP3   OH220732   3.175   4.571   4.659  0.2410 -0.3032 -0.0051
 6923TIP3    H120733   3.102   4.621   4.622 -1.5374 -1.9340  1.1044
 6923TIP3    H220734   3.231   4.550   4.584  0.1558  1.8308 -0.7408
 6924TIP3   OH220735   0.618   6.392   5.157 -0.2027 -0.0577 -0.2859
 6924TIP3    H120736   0.659   6.306   5.169  0.2024  0.1806  0.0354
 6924TIP3    H220737   0.538   6.388   5.209 -0.1943 -0.2419 -0.2847
 6925TIP3   OH220738   5.364   2.309   0.162  0.2258  0.1765  0.0105
 6925TIP3    H120739   5.409   2.350   0.236  1.5957 -2.0285  0.4802
 6925TIP3    H220740   5.286   2.270   0.201 -0.3907  1.1732 -0.1996
 6926TIP3   OH220741   1.852   3.045   5.091 -0.0474  0.2777 -0.0645
 6926TIP3    H120742   1.785   3.111   5.073  0.4673  1.0729  0.7645
 6926TIP3    H220743   1.896   3.031   5.007 -1.9769 -1.1415 -0.8962
 6927TIP3   OH220744   2.732   1.280   0.672 -0.3192  0.0189 -0.3888
 6927TIP3    H120745   2.700   1.205   0.722  0.1915  0.2999  0.3784
 6927TIP3    H220746   2.802   1.317   0.726  1.0703 -0.3646 -1.8407
 6928TIP3   OH220747   4.934   3.467   4.295  0.4390 -0.3972  0.0854
 6928TIP3    H120748   4.952   3.403   4.226  0.9750  0.4895 -0.6348
 6928TIP3    H220749   4.878   3.421   4.358 -0.0741 -1.2317 -0.9506
 6929TIP3   OH220750   5.821   6.242   1.458  0.2191 -0.0838 -0.3428
 6929TIP3    H120751   5.786   6.327   1.434 -0.1323 -0.6534 -2.0253
 6929TIP3    H220752   5.889   6.225   1.392  2.7338  0.3413  1.9410
 6930TIP3   OH220753   7.149   4.042   1.334 -0.0339 -0.0200  0.2454
 6930TIP3    H120754   7.133   4.021   1.426  1.7983  1.3464  0.9117
 6930TIP3    H220755   7.112   4.129   1.322  0.0593 -0.0428 -0.2305
 6931TIP3   OH220756   4.016   3.735   0.951 -0.0115  0.2948  0.2575
 6931TIP3    H120757   4.000   3.722   0.858 -1.5102 -0.7520  0.6265
 6931TIP3    H220758   4.110   3.754   0.957 -0.2127  2.2966 -1.6252
 6932TIP3   OH220759   3.167   2.459   4.359 -0.6583 -0.1913 -0.2929
 6932TIP3    H120760   3.086   2.509   4.347 -1.6170 -0.5197  3.5678
 6932TIP3    H220761   3.141   2.368   4.350 -0.4882 -0.2608 -0.0850
 6933TIP3   OH220762   2.969   3.293   5.542  0.0297  0.6834 -0.2113
 6933TIP3    H120763   2.993   3.215   5.492 -0.8983  2.8129 -4.3393
 6933TIP3    H220764   2.963   3.363   5.478 -2.8659  3.4413  2.6811
 6934TIP3   OH220765   0.594   3.449   2.817 -0.4528 -0.3141 -0.0541
 6934TIP3    H120766   0.618   3.527   2.768  2.7826 -1.0521  0.1301
 6934TIP3    H220767   0.580   3.382   2.749 -2.8505  0.2237 -0.1899
 6935TIP3   OH220768   7.228   2.800   5.627  0.2948 -0.0809 -0.6067
 6935TIP3    H120769   7.210   2.815   5.720 -1.3704  3.8545 -1.3507
 6935TIP3    H220770   7.155   2.746   5.597  0.4435 -0.7537  0.2080
 6936TIP3   OH220771   7.089   1.446   4.062  0.4103 -0.0239  0.3663
 6936TIP3    H120772   7.157   1.386   4.094  1.2569  0.7590  0.0651
 6936TIP3    H220773   7.091   1.520   4.122  1.5377  1.1366 -1.0257
 6937TIP3   OH220774   7.136   5.301   5.089  0.3002  0.3867  0.0504
 6937TIP3    H120775   7.082   5.228   5.059  0.2925  1.0301 -1.5946
 6937TIP3    H220776   7.078   5.353   5.144 -0.5615  0.6551 -1.0721
 6938TIP3   OH220777   4.684   1.436   2.205 -0.3877  0.4785 -0.0362
 6938TIP3    H120778   4.706   1.521   2.245  0.4365  0.1028  0.3255
 6938TIP3    H220779   4.755   1.419   2.143  0.7288 -1.0109  1.5512
 6939TIP3   OH220780   5.272   4.209   4.233  0.3813  0.0782  0.1412
 6939TIP3    H120781   5.265   4.169   4.146  0.2894  0.4527 -0.0253
 6939TIP3    H220782   5.181   4.231   4.256  0.4095  0.0076  0.3188
 6940TIP3   OH220783   4.531   6.179   0.471 -0.3428 -0.0641 -0.4630
 6940TIP3    H120784   4.623   6.185   0.444 -0.2615 -0.1603 -0.2039
 6940TIP3    H220785   4.534   6.152   0.563 -0.6359 -0.3882 -0.5445
 6941TIP3   OH220786   4.551   2.791   4.985  0.7374 -0.2596 -0.2774
 6941TIP3    H120787   4.642   2.817   5.001  0.2894  1.2913 -0.1046
 6941TIP3    H220788   4.499   2.857   5.030 -0.4944 -1.1609 -0.3188
 6942TIP3   OH220789   6.271   5.143   5.395  0.6647  0.1486 -0.1536
 6942TIP3    H120790   6.280   5.069   5.334  0.6332  0.0186 -0.0019
 6942TIP3    H220791   6.265   5.102   5.481  0.9808  0.3431 -0.0354
 6943TIP3   OH220792   0.447   4.569   4.434  0.0434  0.2852  0.3561
 6943TIP3    H120793   0.526   4.592   4.484 -0.2430  0.0666  0.9148
 6943TIP3    H220794   0.403   4.504   4.488  0.4281 -0.9965 -0.8220
 6944TIP3   OH220795   3.096   0.908   1.926  0.0530  0.2913  0.6711
 6944TIP3    H120796   3.018   0.929   1.975 -0.9457 -0.5735 -0.4757
 6944TIP3    H220797   3.097   0.970   1.853 -0.7472 -0.9959 -0.4905
 6945TIP3   OH220798   2.645   1.429   2.121  0.1323 -0.5449  0.0026
 6945TIP3    H120799   2.710   1.371   2.161 -0.7148 -1.6152 -0.1513
 6945TIP3    H220800   2.576   1.437   2.186 -1.0055 -1.8707 -0.9678
 6946TIP3   OH220801   6.109   6.100   5.193  0.4786  0.4212 -0.2467
 6946TIP3    H120802   6.067   6.017   5.172  0.4477 -0.1102  1.7866
 6946TIP3    H220803   6.040   6.153   5.233  0.5534  1.3791 -1.3216
 6947TIP3   OH220804   0.647   6.356   0.580  0.4665 -0.0519 -0.4041
 6947TIP3    H120805   0.689   6.398   0.655 -0.5108 -0.3343  0.3289
 6947TIP3    H220806   0.572   6.413   0.560  1.0220  0.3151 -1.5234
 6948TIP3   OH220807   4.482   3.864   1.148 -0.3903  0.4440  0.0019
 6948TIP3    H120808   4.447   3.946   1.181 -1.7029 -0.0376 -0.1170
 6948TIP3    H220809   4.503   3.882   1.056 -2.1463  0.2664 -0.4747
 6949TIP3   OH220810   0.423   3.166   2.172 -0.1451  0.0133  0.1627
 6949TIP3    H120811   0.423   3.212   2.088  2.3802  4.2268  2.1405
 6949TIP3    H220812   0.466   3.083   2.154 -0.5590  0.3290 -2.8237
 6950TIP3   OH220813   6.640   3.159   4.353  0.0218 -0.6686 -0.0971
 6950TIP3    H120814   6.552   3.129   4.331 -0.3396  0.7047 -0.6315
 6950TIP3    H220815   6.688   3.156   4.271 -0.1536  0.5764 -0.2689
 6951TIP3   OH220816   4.572   1.836   4.719 -0.1116  0.4012 -0.3467
 6951TIP3    H120817   4.479   1.820   4.734 -0.5618  2.2316 -1.0080
 6951TIP3    H220818   4.609   1.749   4.701 -1.4290 -0.5225  1.1354
 6952TIP3   OH220819   1.561   5.902   0.169 -0.3416 -0.5143 -0.0975
 6952TIP3    H120820   1.472   5.933   0.188  0.1547 -0.3687  2.2815
 6952TIP3    H220821   1.612   5.982   0.158  0.2874 -0.4088  2.8237
 6953TIP3   OH220822   4.705   0.900   4.027 -0.1443 -0.3138  0.3550
 6953TIP3    H120823   4.740   0.981   3.991 -1.4860 -0.3202 -1.0597
 6953TIP3    H220824   4.611   0.906   4.012 -0.2568 -2.1737  0.1660
 6954TIP3   OH220825   2.787   3.009   4.014 -0.0739 -0.0358 -0.4625
 6954TIP3    H120826   2.806   2.987   4.105  2.9999  1.3954 -0.6411
 6954TIP3    H220827   2.782   2.925   3.968  2.1640 -0.7030  0.4150
 6955TIP3   OH220828   0.616   2.859   5.122  0.2828 -0.0699  0.2729
 6955TIP3    H120829   0.608   2.765   5.136  1.1901  0.0895  2.1098
 6955TIP3    H220830   0.708   2.872   5.099  0.1722  0.3846  0.0747
 6956TIP3   OH220831   5.981   3.631   5.710  0.0006  0.6744 -0.1045
 6956TIP3    H120832   6.068   3.593   5.701 -0.8644 -1.0046 -2.2467
 6956TIP3    H220833   5.929   3.563   5.752 -0.8288  0.7123 -1.0303
 6957TIP3   OH220834   1.186   1.545   0.181  0.2427 -0.2803 -0.2059
 6957TIP3    H120835   1.099   1.532   0.219 -0.1991  0.2340 -1.0253
 6957TIP3    H220836   1.238   1.473   0.217 -0.2820 -0.1027  0.9751
 6958TIP3   OH220837   0.964   0.698   3.004 -0.0867 -0.0351  0.3971
 6958TIP3    H120838   1.049   0.716   2.964 -0.4753 -2.1559 -1.6215
 6958TIP3    H220839   0.975   0.612   3.044 -0.0245  1.5696  4.2259
 6959TIP3   OH220840   6.478   0.750   0.262  0.3697 -0.8240 -0.6776
 6959TIP3    H120841   6.425   0.787   0.332  0.9465 -2.6861  0.8147
 6959TIP3    H220842   6.418   0.693   0.213  0.7113 -2.1400  0.3919
 6960TIP3   OH220843   3.505   0.194   2.498 -0.0087  0.3672  0.6111
 6960TIP3    H120844   3.498   0.122   2.560 -0.0307 -0.0607  0.1139
 6960TIP3    H220845   3.503   0.273   2.553 -2.3347  0.0943  1.0038
 6961TIP3   OH220846   2.526   4.473   3.278  0.2726 -0.4299 -0.4361
 6961TIP3    H120847   2.554   4.382   3.275 -3.4352 -1.7402 -1.0779
 6961TIP3    H220848   2.472   4.478   3.358  1.7900  1.7415  0.5424
 6962TIP3   OH220849   2.400   4.193   5.024  0.7772  0.3803 -0.3676
 6962TIP3    H120850   2.447   4.110   5.029  1.1305  0.6556  1.3047
 6962TIP3    H220851   2.457   4.256   5.066 -1.6521  0.4088  3.3958
 6963TIP3   OH220852   2.705   6.146   1.146  0.5624  0.3652 -0.2425
 6963TIP3    H120853   2.703   6.071   1.205  2.3067  0.9915  0.6468
 6963TIP3    H220854   2.655   6.214   1.191 -1.1862 -0.2456 -1.1330
 6964TIP3   OH220855   1.133   3.701   4.115  0.2373 -0.2628  0.2449
 6964TIP3    H120856   1.099   3.778   4.162 -0.6423 -1.2477  1.2994
 6964TIP3    H220857   1.114   3.628   4.174  1.5545 -1.2289 -0.4964
 6965TIP3   OH220858   0.233   3.572   5.351 -0.1726  0.8294  0.3781
 6965TIP3    H120859   0.326   3.596   5.352 -0.0917  0.6018  2.3364
 6965TIP3    H220860   0.218   3.531   5.436 -2.1453  1.1291  0.2246
 6966TIP3   OH220861   5.436   5.859   3.759 -0.2207 -0.3633 -0.4287
 6966TIP3    H120862   5.504   5.810   3.713  1.1919  1.5986 -0.5537
 6966TIP3    H220863   5.409   5.802   3.831  0.9925 -1.5077 -0.8472
 6967TIP3   OH220864   3.222   4.368   3.930 -0.4498  0.0551 -0.5162
 6967TIP3    H120865   3.135   4.351   3.893 -1.0278 -1.7289  1.4970
 6967TIP3    H220866   3.209   4.365   4.025  1.8769 -0.7210 -0.1554
 6968TIP3   OH220867   2.644   1.039   0.759  0.4245 -0.3524  0.3255
 6968TIP3    H120868   2.676   0.949   0.752 -0.4354 -0.6909  0.5652
 6968TIP3    H220869   2.549   1.030   0.767  0.3160  0.5867  0.2294
 6969TIP3   OH220870   3.171   1.590   5.339 -0.3296  0.1929  0.6292
 6969TIP3    H120871   3.133   1.578   5.427  0.5327  0.1780  1.0095
 6969TIP3    H220872   3.234   1.662   5.350 -0.3643  0.3289 -0.0274
 6970TIP3   OH220873   0.695   5.402   0.381 -0.5130  0.0098  0.0248
 6970TIP3    H120874   0.603   5.398   0.406 -0.3027 -1.3582  0.7086
 6970TIP3    H220875   0.694   5.436   0.291 -1.7520 -0.7120 -0.2613
 6971TIP3   OH220876   3.126   4.555   0.776  0.4898 -0.0978  0.2209
 6971TIP3    H120877   3.182   4.484   0.744 -0.9286 -0.9596 -0.4309
 6971TIP3    H220878   3.128   4.621   0.706 -0.1408 -0.5952 -0.2687
 6972TIP3   OH220879   1.632   0.822   0.954  0.5396 -0.1782  0.2789
 6972TIP3    H120880   1.617   0.775   1.037 -0.1376  2.0425  1.4940
 6972TIP3    H220881   1.545   0.841   0.921  0.7859  0.5479  0.0291
 6973TIP3   OH220882   0.729   0.386   0.312 -0.3285  0.3049  0.2610
 6973TIP3    H120883   0.715   0.478   0.337  0.8185  0.7348 -0.6294
 6973TIP3    H220884   0.824   0.376   0.307 -0.4016 -1.1857  1.1885
 6974TIP3   OH220885   1.426   6.708   2.903 -0.1829  0.7774  0.3345
 6974TIP3    H120886   1.404   6.750   2.820  1.1784  0.0222 -0.4430
 6974TIP3    H220887   1.412   6.776   2.969  0.0955  1.8450 -0.6838
 6975TIP3   OH220888   5.301   2.238   5.652  0.0169  0.7143 -0.1912
 6975TIP3    H120889   5.361   2.310   5.635  3.2204 -1.3715  1.2554
 6975TIP3    H220890   5.357   2.160   5.653 -2.7371 -1.4342  1.3038
 6976TIP3   OH220891   5.766   4.720   0.566  0.0675 -0.1286 -0.3595
 6976TIP3    H120892   5.721   4.742   0.648  0.1685 -0.4061 -0.2302
 6976TIP3    H220893   5.814   4.800   0.543 -0.5463  0.1985 -0.5366
 6977TIP3   OH220894   4.078   0.518   3.049 -0.0240  0.0475 -0.4073
 6977TIP3    H120895   4.089   0.519   3.144 -0.5586  0.1021 -0.3446
 6977TIP3    H220896   4.167   0.529   3.015  0.2176 -0.3254  0.0820
 6978TIP3   OH220897   3.194   4.084   4.703  0.4023  0.0289 -0.8547
 6978TIP3    H120898   3.231   4.169   4.726  0.3852  0.0512 -0.9107
 6978TIP3    H220899   3.107   4.104   4.667 -0.8574 -0.1896  1.8066
 6979TIP3   OH220900   1.936   1.163   2.432  0.1198 -0.2308  0.0509
 6979TIP3    H120901   1.918   1.175   2.526 -0.2446  1.2651 -0.1849
 6979TIP3    H220902   1.867   1.214   2.388 -0.4468 -1.8834 -1.0789
 6980TIP3   OH220903   2.700   6.051   1.614 -0.1010 -0.0898  0.6193
 6980TIP3    H120904   2.669   5.963   1.591  0.5591  0.2862 -2.0228
 6980TIP3    H220905   2.621   6.104   1.615 -0.2063 -0.2004 -0.5586
 6981TIP3   OH220906   6.783   2.910   2.418  0.0102 -0.7612  0.4056
 6981TIP3    H120907   6.833   2.937   2.341 -3.4459 -1.6797 -2.4098
 6981TIP3    H220908   6.741   2.990   2.450  0.6824 -0.5492  0.7792
 6982TIP3   OH220909   4.032   5.095   3.069 -0.9197  0.3090 -0.3097
 6982TIP3    H120910   4.116   5.051   3.082  0.1571  2.4187  0.4250
 6982TIP3    H220911   4.032   5.117   2.976  0.6225  2.5311  0.1241
 6983TIP3   OH220912   3.362   6.643   4.025  0.0673  0.1741  0.0411
 6983TIP3    H120913   3.455   6.636   4.006 -0.2015  0.5860 -1.5906
 6983TIP3    H220914   3.335   6.726   3.986 -1.3090 -0.7254 -1.0323
 6984TIP3   OH220915   4.832   3.281   5.313 -0.3920  0.1590 -0.4590
 6984TIP3    H120916   4.900   3.344   5.288  0.6080 -0.6698  0.0910
 6984TIP3    H220917   4.804   3.242   5.230  1.9024 -1.5694 -0.5181
 6985TIP3   OH220918   1.843   0.308   2.390  0.2086  0.2370  0.0794
 6985TIP3    H120919   1.823   0.241   2.325 -0.2210  0.8166 -0.3954
 6985TIP3    H220920   1.914   0.358   2.352  0.0539  0.4879  0.1208
 6986TIP3   OH220921   3.608   4.778   3.003  0.0105  0.5113 -0.2285
 6986TIP3    H120922   3.652   4.854   3.040  1.2491  0.2111 -1.0170
 6986TIP3    H220923   3.626   4.783   2.909 -1.7069  0.3933 -0.6137
 6987TIP3   OH220924   6.666   4.187   2.697  0.6499  0.2240 -0.1333
 6987TIP3    H120925   6.649   4.120   2.631 -1.5611  0.3544  0.2288
 6987TIP3    H220926   6.756   4.172   2.724  0.5679 -1.8902 -0.8610
 6988TIP3   OH220927   3.075   4.546   1.942  0.5800 -0.1552 -0.1197
 6988TIP3    H120928   3.030   4.618   1.899  0.3431  0.4284  1.0400
 6988TIP3    H220929   3.020   4.525   2.018  1.8755  0.1338  0.9555
 6989TIP3   OH220930   3.227   1.984   2.984 -0.2633  0.4394 -0.2460
 6989TIP3    H120931   3.210   1.905   3.036 -2.2404 -0.7163 -2.4275
 6989TIP3    H220932   3.274   1.953   2.906 -0.1170  1.5850 -0.6439
 6990TIP3   OH220933   5.301   2.204   4.894 -0.5205  0.3216  0.0033
 6990TIP3    H120934   5.216   2.245   4.911 -1.1003 -0.5337 -0.7745
 6990TIP3    H220935   5.340   2.259   4.826 -0.2414  0.9762  0.6749
 6991TIP3   OH220936   3.188   5.249   3.125 -0.4599 -0.3635  0.2907
 6991TIP3    H120937   3.106   5.294   3.103  0.4805  1.0566 -0.5250
 6991TIP3    H220938   3.219   5.292   3.204 -0.1181 -0.3296  0.1454
 6992TIP3   OH220939   4.137   2.210   4.294 -0.4778  0.1666 -0.6144
 6992TIP3    H120940   4.093   2.220   4.379  0.3152 -3.2309  0.3686
 6992TIP3    H220941   4.066   2.202   4.231 -1.1828 -0.5246  0.2445
 6993TIP3   OH220942   6.047   4.243   4.878 -0.1675 -0.1749  0.0044
 6993TIP3    H120943   6.116   4.299   4.915  1.0675 -0.5008 -1.7083
 6993TIP3    H220944   6.016   4.291   4.801 -0.5532 -0.8799 -0.2895
 6994TIP3   OH220945   4.649   1.985   2.083 -0.0226  0.3049  0.0451
 6994TIP3    H120946   4.580   1.993   2.017 -1.5799 -2.0568  1.2793
 6994TIP3    H220947   4.609   2.015   2.164  0.8796  0.2621  0.5233
 6995TIP3   OH220948   5.419   1.689   3.086  0.0961  0.6426 -0.6589
 6995TIP3    H120949   5.335   1.734   3.093  0.5344  1.2429  2.2525
 6995TIP3    H220950   5.430   1.646   3.171  2.3461 -0.1268 -1.2686
 6996TIP3   OH220951   1.315   4.341   3.354 -0.5054 -0.2082  0.2393
 6996TIP3    H120952   1.224   4.353   3.327 -0.8521  0.3733  1.5944
 6996TIP3    H220953   1.316   4.261   3.405 -0.2388 -0.2332  0.2004
 6997TIP3   OH220954   2.344   4.421   1.305  0.1393  0.2039  0.4422
 6997TIP3    H120955   2.313   4.405   1.216  0.1633 -2.8178  0.8910
 6997TIP3    H220956   2.421   4.478   1.294 -1.4993  2.2729 -1.1672
 6998TIP3   OH220957   6.986   2.088   1.059 -0.1576  0.1559 -0.0166
 6998TIP3    H120958   7.067   2.123   1.021 -0.4653  0.0737 -0.7631
 6998TIP3    H220959   6.931   2.068   0.983  0.2572 -2.6162  0.2877
 6999TIP3   OH220960   2.451   6.174   1.708 -0.2149 -0.3575  0.6379
 6999TIP3    H120961   2.470   6.268   1.711  2.4059 -0.7305 -0.6501
 6999TIP3    H220962   2.433   6.150   1.798  0.6719  1.1339  1.2577
 7000TIP3   OH220963   1.048   3.624   4.656  0.2277 -0.4401 -0.7883
 7000TIP3    H120964   1.109   3.583   4.594 -0.4588 -1.0479 -1.0749
 7000TIP3    H220965   1.102   3.683   4.707  0.3660  2.8392 -4.2507
 7001TIP3   OH220966   5.427   3.006   2.988  0.0347  0.4351  0.0526
 7001TIP3    H120967   5.358   2.942   3.008 -0.2569  0.4391 -0.8923
 7001TIP3    H220968   5.451   2.989   2.897  1.1170  0.6029  0.2891
 7002TIP3   OH220969   1.866   0.978   1.990  0.5113  0.1940 -0.7643
 7002TIP3    H120970   1.826   0.892   1.983  1.6711 -0.2609 -2.1743
 7002TIP3    H220971   1.844   1.007   2.078 -1.8664 -0.5305 -1.0408
 7003TIP3   OH220972   6.698   6.177   5.575 -0.2250  0.0110 -0.5069
 7003TIP3    H120973   6.680   6.152   5.484  1.2527  0.6786 -1.0209
 7003TIP3    H220974   6.650   6.113   5.627 -1.8297  0.1563 -1.7417
 7004TIP3   OH220975   1.060   4.431   1.725  0.5104 -0.4277 -0.3998
 7004TIP3    H120976   1.055   4.511   1.674  1.0827 -0.1590 -0.0485
 7004TIP3    H220977   0.970   4.413   1.750  0.4140  0.3062 -0.1887
 7005TIP3   OH220978   3.300   4.383   0.642  0.5744  0.0482  1.0229
 7005TIP3    H120979   3.345   4.415   0.720 -0.2468  4.1037  0.0804
 7005TIP3    H220980   3.367   4.385   0.573  0.3434  0.5098  0.8056
 7006TIP3   OH220981   2.902   0.468   3.282 -0.3312  0.5043  0.1008
 7006TIP3    H120982   2.905   0.521   3.362  1.0773 -0.6069  0.8135
 7006TIP3    H220983   2.946   0.522   3.216  2.8637 -0.4007  1.2853
 7007TIP3   OH220984   1.942   3.350   4.712 -0.5541  0.1703  0.3700
 7007TIP3    H120985   1.972   3.397   4.790 -0.3355 -2.6433  2.1355
 7007TIP3    H220986   1.847   3.341   4.725 -0.5130 -0.3271  0.3502
 7008TIP3   OH220987   4.745   5.961   2.080  0.4815 -0.0392  1.0792
 7008TIP3    H120988   4.788   5.881   2.050 -2.4669 -1.4875  0.3204
 7008TIP3    H220989   4.721   5.942   2.171 -1.4366 -0.6773  0.4950
 7009TIP3   OH220990   6.251   1.355   0.608  0.1535  0.1887  0.2188
 7009TIP3    H120991   6.212   1.337   0.694 -1.0944 -1.8837 -0.7230
 7009TIP3    H220992   6.176   1.374   0.551  0.9436  1.1695 -0.5297
 7010TIP3   OH220993   5.884   6.682   0.899 -0.0112 -0.2323 -0.2037
 7010TIP3    H120994   5.825   6.757   0.907 -0.5322 -0.7192  0.5951
 7010TIP3    H220995   5.830   6.614   0.859 -0.1482 -0.8358  0.9852
 7011TIP3   OH220996   6.205   4.351   3.971  0.3964 -0.4694 -0.2428
 7011TIP3    H120997   6.206   4.302   3.889  0.6700 -0.6541 -0.1300
 7011TIP3    H220998   6.126   4.321   4.016 -0.0028 -0.0392 -0.6335
 7012TIP3   OH220999   6.008   6.063   0.881 -0.8966  0.2112 -0.7123
 7012TIP3    H121000   5.974   6.128   0.821 -0.4303  1.1444  0.0037
 7012TIP3    H221001   5.940   6.054   0.948 -1.4983 -0.9647 -1.4517
 7013TIP3   OH221002   5.961   5.596   0.600  0.1124  0.3508  0.1518
 7013TIP3    H121003   5.923   5.579   0.513  0.0901  0.5764  0.1167
 7013TIP3    H221004   5.935   5.686   0.620 -3.6312 -1.0051  2.3255
 7014TIP3   OH221005   4.703   4.561   0.832 -0.2587 -0.1513  0.1094
 7014TIP3    H121006   4.760   4.546   0.907 -0.5651 -0.8607  0.2087
 7014TIP3    H221007   4.635   4.493   0.839 -1.8757  1.4264  0.7109
 7015TIP3   OH221008   2.571   2.002   1.229 -0.4387  0.4914 -0.4348
 7015TIP3    H121009   2.627   2.054   1.286 -1.4460  0.2452  0.8149
 7015TIP3    H221010   2.508   1.960   1.288 -1.2408 -0.1268 -1.6785
 7016TIP3   OH221011   4.682   4.923   2.376  0.1722 -0.3961 -0.0675
 7016TIP3    H121012   4.640   4.863   2.437 -1.1837  2.6131  2.2023
 7016TIP3    H221013   4.631   4.916   2.296  0.3265 -2.4844 -0.0347
 7017TIP3   OH221014   7.055   3.352   2.628 -0.4236 -0.2425 -0.3951
 7017TIP3    H121015   7.131   3.319   2.677 -2.4900 -2.2555  1.7163
 7017TIP3    H221016   7.017   3.419   2.685 -0.9095 -0.1439 -0.8327
 7018TIP3   OH221017   4.007   2.112   2.594 -0.4147 -0.5863 -0.1232
 7018TIP3    H121018   4.093   2.139   2.625  0.2688 -0.1340 -2.2742
 7018TIP3    H221019   4.013   2.016   2.589  0.9700 -0.4383 -2.8179
 7019TIP3   OH221020   3.138   6.427   3.142 -0.2359  0.2506 -0.2684
 7019TIP3    H121021   3.192   6.349   3.129 -2.3195 -1.0903 -1.3741
 7019TIP3    H221022   3.109   6.421   3.233 -0.5896 -0.4363 -0.4164
 7020TIP3   OH221023   4.677   6.643   4.799  0.1486 -0.3944  0.1218
 7020TIP3    H121024   4.600   6.669   4.851  1.5249  0.8039  1.6637
 7020TIP3    H221025   4.675   6.547   4.800  0.9123 -0.5238  3.8086
 7021TIP3   OH221026   7.158   1.929   4.674 -0.2041 -0.4166  0.1135
 7021TIP3    H121027   7.187   2.017   4.698 -0.0775 -0.7688  1.3420
 7021TIP3    H221028   7.117   1.895   4.754 -2.1784 -0.6924 -0.9622
 7022TIP3   OH221029   4.896   5.894   0.933  0.3122  0.7832 -0.0214
 7022TIP3    H121030   4.828   5.833   0.962  2.5125 -2.4815 -1.2413
 7022TIP3    H221031   4.873   5.913   0.842 -0.7287  2.4325  0.5421
 7023TIP3   OH221032   6.638   0.642   1.483 -0.0855  0.5026 -0.7403
 7023TIP3    H121033   6.593   0.725   1.466 -1.1410 -0.1924 -1.4738
 7023TIP3    H221034   6.610   0.616   1.570 -0.1981  0.6524 -0.7317
 7024TIP3   OH221035   0.125   6.704   0.437 -0.0552  0.4544  0.0687
 7024TIP3    H121036   0.073   6.718   0.358  0.4556  1.6118 -0.0824
 7024TIP3    H221037   0.075   6.639   0.487 -0.7834  0.2922 -0.8350
 7025TIP3   OH221038   6.944   5.871   1.838 -0.1468 -0.5115  0.2223
 7025TIP3    H121039   6.910   5.931   1.904 -0.0897  0.7341 -0.8491
 7025TIP3    H221040   7.032   5.902   1.820  0.0258 -1.1567 -0.0773
 7026TIP3   OH221041   7.067   6.036   1.415  0.2572 -0.2275 -0.1757
 7026TIP3    H121042   7.007   6.110   1.403  1.0934  0.2434 -1.9330
 7026TIP3    H221043   7.010   5.961   1.430 -0.7780  0.2713 -1.3747
 7027TIP3   OH221044   3.225   0.135   4.057  0.6131  0.3414  0.6333
 7027TIP3    H121045   3.256   0.045   4.048  0.4237  0.2961  0.4148
 7027TIP3    H221046   3.302   0.189   4.040  0.6532  0.2245  0.4382
 7028TIP3   OH221047   6.283   6.256   2.483  0.2609 -0.4647 -0.0456
 7028TIP3    H121048   6.280   6.304   2.400  0.2248  0.3028  0.3944
 7028TIP3    H221049   6.341   6.182   2.466  3.5728  1.8257  0.3364
 7029TIP3   OH221050   0.041   6.742   5.265 -0.2282  0.3087 -0.0337
 7029TIP3    H121051   0.017   6.770   5.354 -0.7419  0.0810 -0.0947
 7029TIP3    H221052   0.124   6.785   5.248  0.3584 -0.3835  0.9272
 7030TIP3   OH221053   6.757   0.476   4.514 -0.1858 -0.2899 -0.3769
 7030TIP3    H121054   6.774   0.531   4.589 -1.0856 -0.1891 -0.2370
 7030TIP3    H221055   6.843   0.443   4.488  0.0487 -0.9873  1.1927
 7031TIP3   OH221056   4.279   2.921   1.477  0.2079  0.6230  0.1044
 7031TIP3    H121057   4.371   2.945   1.473  0.5036 -0.4181  0.2511
 7031TIP3    H221058   4.255   2.904   1.386  0.1461  0.9289  0.0621
 7032TIP3   OH221059   0.474   4.651   4.817 -0.0517  0.4800 -0.9452
 7032TIP3    H121060   0.421   4.576   4.844 -0.0361  1.1346  1.0088
 7032TIP3    H221061   0.434   4.726   4.859  3.2267  0.8322  1.9822
 7033TIP3   OH221062   2.845   4.306   5.761 -0.5609 -0.2055 -0.0483
 7033TIP3    H121063   2.913   4.344   5.816 -0.3647  0.7896 -0.9410
 7033TIP3    H221064   2.888   4.231   5.718 -0.3418 -0.2175  0.1905
 7034TIP3   OH221065   0.797   4.274   2.225 -0.6566 -0.1126 -0.2203
 7034TIP3    H121066   0.731   4.296   2.159 -0.5873 -0.1311 -0.2952
 7034TIP3    H221067   0.861   4.345   2.219 -0.6060 -0.1591 -0.2328
 7035TIP3   OH221068   2.821   6.372   0.597 -0.6170  0.5514 -0.1195
 7035TIP3    H121069   2.747   6.341   0.545 -1.6038  1.4561  0.7096
 7035TIP3    H221070   2.828   6.308   0.668  0.7124 -0.6669 -1.3055
 7036TIP3   OH221071   5.874   5.988   2.318  0.1142  0.8226 -0.1461
 7036TIP3    H121072   5.805   6.051   2.296  0.7668  1.5208 -0.2503
 7036TIP3    H221073   5.909   6.020   2.401  1.5083  1.5289 -0.9651
 7037TIP3   OH221074   6.172   1.881   3.672  0.3997 -0.0099 -0.0184
 7037TIP3    H121075   6.223   1.878   3.753 -1.7914 -0.9866  1.4181
 7037TIP3    H221076   6.227   1.837   3.608  1.2390 -1.3722  1.5416
 7038TIP3   OH221077   4.360   4.507   1.399  0.0017 -0.4075 -0.4685
 7038TIP3    H121078   4.360   4.418   1.364 -3.1775 -0.8705  0.3977
 7038TIP3    H221079   4.366   4.563   1.322 -0.4839 -1.3914 -1.2454
 7039TIP3   OH221080   5.458   4.942   2.774  0.0585  0.2653 -0.2191
 7039TIP3    H121081   5.478   5.031   2.746 -0.9861  1.4389  2.4441
 7039TIP3    H221082   5.398   4.909   2.707  1.6073  0.9342 -2.0445
 7040TIP3   OH221083   1.216   1.051   4.423 -0.3168  0.1544  0.5895
 7040TIP3    H121084   1.239   1.020   4.336 -2.6487  1.6999 -0.6901
 7040TIP3    H221085   1.297   1.089   4.457  0.4890  0.0863 -1.1644
 7041TIP3   OH221086   3.492   4.029   0.703 -0.1710 -1.0299  0.0767
 7041TIP3    H121087   3.423   4.015   0.639 -2.1922 -0.5562  2.0265
 7041TIP3    H221088   3.559   4.080   0.656 -2.5921  1.3425 -1.0622
 7042TIP3   OH221089   3.375   6.424   5.598  0.2837  0.5278  0.0063
 7042TIP3    H121090   3.357   6.458   5.510 -2.7170 -0.7409  0.0286
 7042TIP3    H221091   3.386   6.502   5.652 -2.2144  1.5034 -0.7352
 7043TIP3   OH221092   2.304   6.838   5.115  0.1830  0.5844  0.1013
 7043TIP3    H121093   2.347   6.755   5.093  0.2256  1.1930 -2.4526
 7043TIP3    H221094   2.249   6.818   5.191 -0.5007 -2.0149 -0.9722
 7044TIP3   OH221095   5.217   6.287   5.154  0.1781  0.7311  0.7582
 7044TIP3    H121096   5.200   6.320   5.242 -2.0575  2.2546 -0.1527
 7044TIP3    H221097   5.290   6.341   5.123  2.0419 -0.8421  2.1132
 7045TIP3   OH221098   2.807   0.528   1.136  0.0757 -0.0360  0.2735
 7045TIP3    H121099   2.748   0.574   1.076 -0.0966 -0.4554  0.1102
 7045TIP3    H221100   2.893   0.536   1.096 -0.0533 -0.3954 -0.0887
 7046TIP3   OH221101   4.924   0.998   4.965  0.2387 -0.0803  0.3219
 7046TIP3    H121102   4.899   1.076   5.014  0.9514 -0.1714  0.8378
 7046TIP3    H221103   4.983   1.029   4.897  1.6198 -0.3252  1.3720
 7047TIP3   OH221104   4.353   3.278   2.499 -0.2960  0.3857 -0.7081
 7047TIP3    H121105   4.272   3.281   2.448 -1.1041  0.6430  0.5388
 7047TIP3    H221106   4.363   3.368   2.532 -0.2918  0.0219  0.3170
 7048TIP3   OH221107   3.472   3.770   2.431  0.2646  0.3034 -0.0404
 7048TIP3    H121108   3.420   3.788   2.509  0.0171 -0.3419 -0.0528
 7048TIP3    H221109   3.434   3.827   2.364  0.0336  0.3514  0.1297
 7049TIP3   OH221110   7.171   0.015   0.877  0.3956  0.3619 -0.1009
 7049TIP3    H121111   7.108  -0.051   0.846  0.5925 -0.7276  1.6768
 7049TIP3    H221112   7.120   0.095   0.884 -0.7860 -0.4369  1.0449
 7050TIP3   OH221113   6.772   6.126   4.856  0.1963 -0.2445  0.5830
 7050TIP3    H121114   6.740   6.104   4.943 -2.2872 -0.5107 -0.3181
 7050TIP3    H221115   6.734   6.059   4.799  0.1950  1.0048 -0.9483
 7051TIP3   OH221116   2.715   6.290   0.352 -0.0688 -0.1673  0.6898
 7051TIP3    H121117   2.672   6.206   0.338  0.6552 -0.3556 -0.5445
 7051TIP3    H221118   2.809   6.271   0.344  0.2691  0.3491  2.7002
 7052TIP3   OH221119   5.052   1.159   1.569 -0.3593 -0.1746 -0.5374
 7052TIP3    H121120   5.138   1.194   1.592 -0.2798 -0.0693 -0.9803
 7052TIP3    H221121   5.022   1.116   1.648 -0.0282  0.0482 -0.2860
 7053TIP3   OH221122   5.675   1.430   0.435 -0.5729 -0.2181  0.6324
 7053TIP3    H121123   5.712   1.462   0.353 -1.1353 -0.4380  0.2857
 7053TIP3    H221124   5.635   1.507   0.475 -1.4678 -0.3656  0.0499
 7054TIP3   OH221125   0.729   6.139   3.147  0.9217 -0.0046 -0.6751
 7054TIP3    H121126   0.822   6.145   3.169  1.1897  0.1662 -1.7791
 7054TIP3    H221127   0.705   6.227   3.117  1.1770 -0.7043 -3.1610
 7055TIP3   OH221128   5.587   3.184   5.010 -0.0506 -0.1283 -0.7546
 7055TIP3    H121129   5.533   3.240   4.955 -1.0980 -0.5053 -0.1472
 7055TIP3    H221130   5.633   3.126   4.949  0.0631  0.5349 -1.3082
 7056TIP3   OH221131   1.543   0.406   4.797  0.6167 -0.5420 -0.7156
 7056TIP3    H121132   1.538   0.481   4.857 -1.5057 -1.2468  0.0888
 7056TIP3    H221133   1.572   0.443   4.714  1.9227  0.7553  0.2703
 7057TIP3   OH221134   5.070   6.260   1.831 -0.1971  0.6782 -0.3561
 7057TIP3    H121135   5.066   6.354   1.847  1.3115  0.8598 -0.8588
 7057TIP3    H221136   5.075   6.252   1.736 -1.1921  0.0279 -0.3673
 7058TIP3   OH221137   0.424   4.750   2.014  0.5193  0.1266 -0.6512
 7058TIP3    H121138   0.354   4.713   2.067  1.0501 -1.3015 -0.8917
 7058TIP3    H221139   0.435   4.839   2.047  0.2016 -0.4130  1.0005
 7059TIP3   OH221140   6.533   6.741   1.699  0.3426 -0.0722 -0.2210
 7059TIP3    H121141   6.570   6.664   1.743  1.3104 -0.1261 -1.0854
 7059TIP3    H221142   6.451   6.710   1.662 -1.5772  0.4827  3.1733
 7060TIP3   OH221143   6.716   1.933   1.855  0.2104 -0.5817  0.1872
 7060TIP3    H121144   6.728   1.896   1.943 -0.3433  0.5048  0.7447
 7060TIP3    H221145   6.799   1.916   1.810  0.7386 -0.6045  1.1369
 7061TIP3   OH221146   4.950   2.225   4.778 -0.0429  0.4100 -0.4111
 7061TIP3    H121147   4.864   2.246   4.814  0.2668 -0.3673  0.8436
 7061TIP3    H221148   4.950   2.130   4.770  0.4174  0.4660 -1.1618
 7062TIP3   OH221149   0.228   0.525   4.304  0.0302 -0.1348  0.1354
 7062TIP3    H121150   0.309   0.574   4.320  0.6237 -1.4011  1.1696
 7062TIP3    H221151   0.222   0.517   4.209  1.8150 -1.1343  0.0724
 7063TIP3   OH221152   6.664   3.275   0.906  0.1894  0.0828  0.1216
 7063TIP3    H121153   6.752   3.246   0.881  0.9485  0.8771  1.6977
 7063TIP3    H221154   6.656   3.363   0.870 -0.2918 -0.2894 -0.7036
 7064TIP3   OH221155   6.410   1.860   4.826 -0.3586 -0.1341  0.0392
 7064TIP3    H121156   6.376   1.949   4.825  0.6684  0.2764 -0.7244
 7064TIP3    H221157   6.399   1.829   4.736 -0.7169 -0.7881  0.2998
 7065TIP3   OH221158   5.100   0.552   1.325  0.9258 -0.0384 -0.1445
 7065TIP3    H121159   5.165   0.582   1.388  1.2081 -0.1967 -0.3605
 7065TIP3    H221160   5.017   0.554   1.373  1.3532 -1.6117  0.6970
 7066TIP3   OH221161   1.892   3.585   2.247 -0.3540 -0.9908 -0.6708
 7066TIP3    H121162   1.884   3.646   2.321  0.4580 -0.4861 -0.9856
 7066TIP3    H221163   1.812   3.600   2.196 -0.4740 -0.6595 -0.3972
 7067TIP3   OH221164   1.802   3.525   1.139 -0.0629 -0.2388 -0.1086
 7067TIP3    H121165   1.867   3.507   1.207  0.1969  0.5761 -0.1326
 7067TIP3    H221166   1.763   3.608   1.164  0.2270  0.2090 -1.0810
 7068TIP3   OH221167   6.100   6.476   2.511  0.0902 -0.3044  0.2363
 7068TIP3    H121168   6.153   6.555   2.511  0.4382 -0.5342 -0.2133
 7068TIP3    H221169   6.158   6.409   2.547  0.3980 -0.7451 -1.0381
 7069TIP3   OH221170   0.545   1.493   4.952  0.0410 -0.6150  0.0293
 7069TIP3    H121171   0.545   1.437   4.875 -0.7818 -0.4750 -0.0895
 7069TIP3    H221172   0.557   1.434   5.026 -3.0320 -1.2996  0.1007
 7070TIP3   OH221173   2.851   1.508   5.737  0.0364 -0.3380 -0.5762
 7070TIP3    H121174   2.862   1.422   5.698  1.7159  0.1525 -1.2975
 7070TIP3    H221175   2.764   1.537   5.708 -0.7139 -1.9113  0.0083
 7071TIP3   OH221176   4.058   4.011   4.481  0.1375 -0.2691  0.2637
 7071TIP3    H121177   3.963   4.000   4.477  0.4105 -3.0423 -1.5171
 7071TIP3    H221178   4.087   3.945   4.544  0.8888  0.5370  0.7738
 7072TIP3   OH221179   6.509   5.148   5.189  0.0678 -0.2753  0.4284
 7072TIP3    H121180   6.481   5.217   5.249  1.4343  1.3771 -0.7570
 7072TIP3    H221181   6.596   5.123   5.220  0.0135 -0.7452  0.2204
 7073TIP3   OH221182   0.560   5.546   2.883  0.2245  0.0134  0.0734
 7073TIP3    H121183   0.599   5.469   2.924 -0.4952 -0.5650 -0.3292
 7073TIP3    H221184   0.469   5.522   2.867  0.4154  0.3063 -1.6516
 7074TIP3   OH221185   5.743   2.040   3.134 -0.0438  0.5101 -0.3404
 7074TIP3    H121186   5.721   2.058   3.226 -1.2062  0.1501 -0.5324
 7074TIP3    H221187   5.731   2.124   3.090 -0.5304  0.4456 -0.3418
 7075TIP3   OH221188   1.694   3.027   1.154  0.1937 -0.2262 -0.0704
 7075TIP3    H121189   1.622   2.987   1.104 -0.3318 -0.3469  0.7501
 7075TIP3    H221190   1.651   3.093   1.208  0.1390 -2.3595  2.7424
 7076TIP3   OH221191   6.083   5.921   3.245  0.6682  0.0713  0.9750
 7076TIP3    H121192   6.116   5.932   3.156  1.0120  1.0800  1.2098
 7076TIP3    H221193   6.095   5.828   3.264 -1.2744 -0.6321 -0.7445
 7077TIP3   OH221194   5.579   1.889   0.720 -0.6783  0.0732 -0.8108
 7077TIP3    H121195   5.497   1.938   0.728  0.1555  1.2516  1.0351
 7077TIP3    H221196   5.629   1.938   0.655 -0.2719  1.1023  0.2541
 7078TIP3   OH221197   0.106   6.580   2.209 -0.1674  0.0621  0.1358
 7078TIP3    H121198   0.063   6.643   2.267  0.3130  0.1960  0.3540
 7078TIP3    H221199   0.123   6.629   2.129 -0.9340 -0.1549 -0.1706
 7079TIP3   OH221200   3.380   1.734   1.289 -0.0975 -0.3963 -0.4486
 7079TIP3    H121201   3.464   1.713   1.329  0.5667 -0.6822 -1.9279
 7079TIP3    H221202   3.363   1.824   1.315  1.3701  0.1507 -1.2496
 7080TIP3   OH221203   7.178   6.315   2.745  0.3553 -0.0726 -0.4820
 7080TIP3    H121204   7.208   6.389   2.796 -0.3157 -0.0568 -0.0975
 7080TIP3    H221205   7.240   6.308   2.672  1.3744 -0.1536  0.3787
 7081TIP3   OH221206   3.025   3.660   1.683 -0.0414 -0.2967  0.7880
 7081TIP3    H121207   3.003   3.698   1.598  4.1219  2.4293  0.6458
 7081TIP3    H221208   2.970   3.706   1.745 -0.7157  0.1673 -0.1304
 7082TIP3   OH221209   6.704   0.091   2.386 -0.7050  0.3453  0.5258
 7082TIP3    H121210   6.789   0.048   2.395 -1.0367 -0.2479  0.8772
 7082TIP3    H221211   6.642   0.019   2.376 -1.3161  0.7262  1.5064
 7083TIP3   OH221212   1.052   3.408   1.134 -0.0661 -0.9055  0.2382
 7083TIP3    H121213   1.003   3.469   1.078  0.1627 -0.7575  0.2004
 7083TIP3    H221214   1.030   3.435   1.223 -2.3285 -2.6040  0.2945
 7084TIP3   OH221215   4.430   5.636   0.927 -0.3028  0.1390  0.5957
 7084TIP3    H121216   4.374   5.559   0.920 -1.8694  1.1352  1.6790
 7084TIP3    H221217   4.371   5.711   0.914  1.4753  1.2171 -2.3991
 7085TIP3   OH221218   4.445   3.162   1.699  0.2886  0.0108 -0.4702
 7085TIP3    H121219   4.486   3.144   1.614 -1.3233 -0.9641 -1.0835
 7085TIP3    H221220   4.465   3.254   1.716  2.7584 -0.4265 -0.6778
 7086TIP3   OH221221   1.707   4.856   3.101 -0.3194  0.1361  0.1374
 7086TIP3    H121222   1.742   4.902   3.178  0.6373  1.1672 -0.8805
 7086TIP3    H221223   1.695   4.925   3.035  1.3756 -1.0560 -1.5139
 7087TIP3   OH221224   2.249   3.228   2.077  0.5564 -0.2920  0.0622
 7087TIP3    H121225   2.157   3.247   2.057  0.1056 -2.7870 -0.4938
 7087TIP3    H221226   2.270   3.286   2.150 -1.9135 -0.6838  1.1828
 7088TIP3   OH221227   3.536   1.106   4.667 -0.1236  0.3418 -0.0581
 7088TIP3    H121228   3.490   1.099   4.751 -0.8605  2.4720 -0.2328
 7088TIP3    H221229   3.476   1.068   4.603 -0.0395 -0.2613  0.2154
 7089TIP3   OH221230   2.395   1.890   4.337  0.1070 -0.3706  0.6264
 7089TIP3    H121231   2.342   1.820   4.298 -2.5478  1.3532  0.8650
 7089TIP3    H221232   2.373   1.967   4.285  0.2842  0.9719  2.4760
 7090TIP3   OH221233   7.060   1.938   3.083  0.0860 -0.4645 -0.1780
 7090TIP3    H121234   6.986   1.962   3.138  1.5896 -0.2125  1.8785
 7090TIP3    H221235   7.094   2.021   3.050  0.8403 -0.3204  0.8742
 7091TIP3   OH221236   1.455   1.408   5.159 -0.3314 -0.4430  0.3998
 7091TIP3    H121237   1.414   1.376   5.240  0.6372  0.7956  1.4338
 7091TIP3    H221238   1.542   1.368   5.158  0.2645  0.7919  0.8422
 7092TIP3   OH221239   0.450   5.151   1.480 -0.1195  0.5381  0.2083
 7092TIP3    H121240   0.368   5.159   1.528 -1.0645 -0.6472 -1.1254
 7092TIP3    H221241   0.476   5.241   1.462 -0.8282  0.9393  1.1282
 7093TIP3   OH221242   2.486   4.158   4.423 -0.6432 -0.2192  0.0603
 7093TIP3    H121243   2.449   4.227   4.478 -0.7744 -0.0666 -0.2182
 7093TIP3    H221244   2.505   4.086   4.483  0.6788  0.5251  0.5751
 7094TIP3   OH221245   3.472   5.237   3.349 -0.1914  0.5243  0.2268
 7094TIP3    H121246   3.420   5.262   3.273  0.4745  1.3456  0.0327
 7094TIP3    H221247   3.482   5.142   3.341 -0.4311  0.5568 -0.5084
 7095TIP3   OH221248   0.545   5.635   1.517 -0.1923  0.4543  0.5409
 7095TIP3    H121249   0.494   5.714   1.502 -1.4954 -0.5420 -0.4659
 7095TIP3    H221250   0.617   5.664   1.574 -1.3192  2.0872  1.2092
 7096TIP3   OH221251   6.077   0.085   4.035  0.1208  0.7075  0.0964
 7096TIP3    H121252   6.139   0.111   3.968 -1.1042  0.6281 -1.1092
 7096TIP3    H221253   6.012   0.156   4.036 -0.3459  0.2834  0.5688
 7097TIP3   OH221254   3.721   1.235   2.265  0.4029  0.2990  0.0216
 7097TIP3    H121255   3.727   1.316   2.214  1.2753  0.3815  0.2310
 7097TIP3    H221256   3.630   1.231   2.293  0.4864  1.5816  0.5864
 7098TIP3   OH221257   4.947   4.335   3.387  0.0383 -0.0441 -0.0365
 7098TIP3    H121258   4.896   4.401   3.434  1.6624 -0.3004  2.2535
 7098TIP3    H221259   4.929   4.253   3.433  1.7183 -0.3001  0.2265
 7099TIP3   OH221260   1.507   0.208   4.473 -0.0912  0.1018  0.0569
 7099TIP3    H121261   1.447   0.189   4.401 -0.5279 -0.4488  0.5600
 7099TIP3    H221262   1.494   0.301   4.491 -0.1031  0.2037 -0.4591
 7100TIP3   OH221263   6.286   4.373   1.911  0.1801 -0.1526  0.6996
 7100TIP3    H121264   6.197   4.339   1.920 -0.2034  0.8055  0.7387
 7100TIP3    H221265   6.310   4.400   2.000 -0.5641  2.0801  0.2878
 7101TIP3   OH221266   3.990   1.228   4.142 -0.6154 -0.6893 -0.3392
 7101TIP3    H121267   4.072   1.180   4.158 -0.7758 -0.9407 -0.2766
 7101TIP3    H221268   4.019   1.316   4.118 -0.3426 -0.5206  0.5556
 7102TIP3   OH221269   3.056   1.128   1.742 -0.1245 -0.2848  0.1711
 7102TIP3    H121270   3.112   1.202   1.768  0.4074 -0.8671  0.7188
 7102TIP3    H221271   2.967   1.162   1.751  0.0742  1.3985 -2.8543
 7103TIP3   OH221272   3.775   0.845   2.830 -0.4015  0.3611 -0.1955
 7103TIP3    H121273   3.816   0.853   2.916 -0.8005 -0.0873  0.0454
 7103TIP3    H221274   3.714   0.771   2.840 -1.3019  1.0404 -0.5293
 7104TIP3   OH221275   3.261   4.083   3.496  0.0679 -0.6741  0.2325
 7104TIP3    H121276   3.255   4.178   3.481  1.8651 -0.5548  0.1234
 7104TIP3    H221277   3.282   4.074   3.588  1.0977 -0.9115 -0.0193
 7105TIP3   OH221278   4.256   3.990   0.386 -0.2889 -0.0824  0.3272
 7105TIP3    H121279   4.280   3.961   0.474  0.4274  0.6784  0.3954
 7105TIP3    H221280   4.331   3.965   0.331 -1.0761 -1.2971 -0.2466
 7106TIP3   OH221281   4.534   1.887   1.467  0.1259  0.4084  0.0502
 7106TIP3    H121282   4.471   1.910   1.399  1.3826 -0.0141 -1.3028
 7106TIP3    H221283   4.567   1.801   1.441  1.7292  0.8989  0.3628
 7107TIP3   OH221284   6.552   0.955   1.499 -0.2977  0.2498  0.1772
 7107TIP3    H121285   6.524   1.033   1.546 -2.1264  1.1035 -2.0941
 7107TIP3    H221286   6.647   0.965   1.491 -0.3203  1.5415  1.1017
 7108TIP3   OH221287   5.103   3.661   0.330 -0.6008  0.2942  0.0395
 7108TIP3    H121288   5.180   3.718   0.337 -0.9206  0.8979 -1.0894
 7108TIP3    H221289   5.104   3.609   0.410  1.0706  0.1842 -0.0157
 7109TIP3   OH221290   2.597   2.877   1.413  1.0147  0.0881  0.4051
 7109TIP3    H121291   2.604   2.828   1.331 -0.2883 -0.2771  0.4820
 7109TIP3    H221292   2.503   2.888   1.426  0.9982 -2.0374  3.1040
 7110TIP3   OH221293   2.548   5.178   0.076  0.1966  0.3364  0.5232
 7110TIP3    H121294   2.636   5.148   0.052 -0.2018 -0.8963  0.5347
 7110TIP3    H221295   2.561   5.227   0.157  1.1061  1.7389 -0.4257
 7111TIP3   OH221296   6.297   5.268   4.861 -0.0765  0.5660  0.4630
 7111TIP3    H121297   6.280   5.292   4.953 -1.2774  0.3311  0.3168
 7111TIP3    H221298   6.210   5.260   4.822  0.4300  0.9222 -0.7728
 7112TIP3   OH221299   2.770   4.298   3.263  0.6250  0.1687 -0.2316
 7112TIP3    H121300   2.835   4.237   3.229  0.9198 -0.1962  0.9492
 7112TIP3    H221301   2.768   4.369   3.199  2.2135  0.2050 -0.2673
 7113TIP3   OH221302   0.630   1.084   4.794 -0.4266  0.4900 -0.4744
 7113TIP3    H121303   0.617   1.163   4.742  1.2651  1.9614  1.1769
 7113TIP3    H221304   0.709   1.044   4.758 -1.6238 -0.8719 -1.7144
 7114TIP3   OH221305   3.543   5.567   4.661 -0.9849  0.1719 -0.3030
 7114TIP3    H121306   3.567   5.586   4.752 -3.5214  1.5875  0.1537
 7114TIP3    H221307   3.466   5.512   4.668 -1.7708  1.0629 -1.5697
 7115TIP3   OH221308   4.819   0.019   4.765 -0.0997 -0.0334 -0.3133
 7115TIP3    H121309   4.852   0.088   4.822  0.4951 -1.6297  1.3567
 7115TIP3    H221310   4.741   0.056   4.725 -0.5482  1.1469  1.5622
 7116TIP3   OH221311   2.331   3.343   2.313 -0.3955  0.1261 -0.0915
 7116TIP3    H121312   2.360   3.380   2.396  0.1487  0.5879 -0.4782
 7116TIP3    H221313   2.237   3.360   2.310 -0.1827  1.3405 -0.1828
 7117TIP3   OH221314   0.442   5.441   0.460  0.1720 -0.4261  0.3276
 7117TIP3    H121315   0.463   5.513   0.519  1.6063  0.1425 -0.8236
 7117TIP3    H221316   0.353   5.459   0.430 -1.0937 -1.3739  3.1728
 7118TIP3   OH221317   6.974   2.389   1.117  0.0963 -0.1957  0.2017
 7118TIP3    H121318   6.968   2.296   1.138 -1.8269 -0.5607 -1.5788
 7118TIP3    H221319   6.988   2.390   1.022  1.0676  1.3538  0.3289
 7119TIP3   OH221320   2.294   1.833   2.378 -0.2114  0.1688 -0.1907
 7119TIP3    H121321   2.272   1.787   2.459 -0.6190 -0.4516 -0.6496
 7119TIP3    H221322   2.232   1.906   2.374 -1.3064 -0.7669 -0.7760
 7120TIP3   OH221323   5.920   0.874   2.396  0.0142  0.2539  0.0535
 7120TIP3    H121324   5.984   0.933   2.356  0.4721  0.3813  0.9643
 7120TIP3    H221325   5.890   0.819   2.323  0.1062  1.1267 -0.6566
 7121TIP3   OH221326   4.334   2.073   0.034 -0.3656 -0.2193 -0.8795
 7121TIP3    H121327   4.369   1.988   0.058 -0.3569  0.2969  1.1034
 7121TIP3    H221328   4.239   2.064   0.042 -0.3046  0.2966  0.6560
 7122TIP3   OH221329   4.197   5.756   0.315 -0.2626 -0.3999 -0.0275
 7122TIP3    H121330   4.265   5.782   0.377  0.5858  0.2627 -1.2045
 7122TIP3    H221331   4.240   5.692   0.257 -0.7295 -0.2285 -0.5761
 7123TIP3   OH221332   3.197   0.102   0.996 -0.7257  0.3491  0.2939
 7123TIP3    H121333   3.180   0.118   0.903 -0.3505 -0.1503  0.1332
 7123TIP3    H221334   3.117   0.132   1.040 -0.5195  1.5070 -0.0874
 7124TIP3   OH221335   2.038   6.381   1.311  0.0765 -0.1794  0.0969
 7124TIP3    H121336   1.969   6.347   1.367 -1.4550  2.2662 -0.1738
 7124TIP3    H221337   2.108   6.406   1.372 -0.6143  0.3285  0.6836
 7125TIP3   OH221338   4.526   3.821   2.840 -0.7159 -0.1896  0.1040
 7125TIP3    H121339   4.593   3.787   2.900 -0.8387 -1.7663 -0.6036
 7125TIP3    H221340   4.565   3.901   2.804  1.5701 -1.9298 -1.5580
 7126TIP3   OH221341   3.538   6.517   2.619 -0.2744  0.2334 -0.2210
 7126TIP3    H121342   3.497   6.468   2.547 -0.5777 -0.7231  0.5679
 7126TIP3    H221343   3.525   6.609   2.596  1.2384  0.0092 -2.2803
 7127TIP3   OH221344   6.975   0.081   3.142 -0.1540  0.6253  0.2314
 7127TIP3    H121345   6.949   0.125   3.223 -1.2936  0.6633 -0.1239
 7127TIP3    H221346   6.961  -0.012   3.159  0.3036  0.5723  0.3178
 7128TIP3   OH221347   1.913   3.974   4.950 -0.1575 -0.1278  0.2102
 7128TIP3    H121348   1.988   3.943   4.900 -0.5872 -0.8844  0.0240
 7128TIP3    H221349   1.951   4.011   5.030  0.5101  0.7968 -0.5115
 7129TIP3   OH221350   5.784   2.920   2.032 -0.5070  0.1500 -0.0311
 7129TIP3    H121351   5.808   2.903   2.123 -1.1698  0.2862  0.1751
 7129TIP3    H221352   5.712   2.983   2.037 -1.0150 -0.3698 -0.6197
 7130TIP3   OH221353   2.934   5.357   2.445 -0.0601  0.0315  0.3182
 7130TIP3    H121354   2.914   5.413   2.369 -0.8771 -0.5134  0.1094
 7130TIP3    H221355   2.955   5.418   2.515  0.8606  0.5405 -0.3861
 7131TIP3   OH221356   5.677   5.893   0.471  0.0942  0.1734 -0.0703
 7131TIP3    H121357   5.661   5.935   0.556  0.4367 -0.6420  0.4103
 7131TIP3    H221358   5.772   5.897   0.460  0.3470 -2.0061  0.8271
 7132TIP3   OH221359   3.284   5.499   1.858 -0.8306 -0.2933 -0.0086
 7132TIP3    H121360   3.251   5.517   1.946 -1.2309  0.3240 -0.2835
 7132TIP3    H221361   3.365   5.550   1.853 -0.9535 -0.1076 -0.0982
 7133TIP3   OH221362   3.034   3.148   2.085  0.7476 -0.2839 -0.2705
 7133TIP3    H121363   2.963   3.210   2.065  1.6424  0.6278 -0.6740
 7133TIP3    H221364   3.022   3.128   2.178 -0.8588 -1.2199 -0.6453
 7134TIP3   OH221365   3.054   5.738   3.451 -0.1358 -0.0525 -0.3319
 7134TIP3    H121366   2.979   5.797   3.463  1.2889  2.0656 -1.3503
 7134TIP3    H221367   3.088   5.760   3.364  2.2973 -0.1816  0.5278
 7135TIP3   OH221368   3.653   4.012   2.787 -0.3982 -0.5333  0.0059
 7135TIP3    H121369   3.726   4.004   2.725 -0.2906 -2.0149  0.2668
 7135TIP3    H221370   3.679   3.958   2.861 -1.5323 -0.6625  0.3297
 7136TIP3   OH221371   7.164   5.076   5.414 -0.5201 -0.6079 -0.2958
 7136TIP3    H121372   7.205   5.077   5.500 -0.6312 -3.4615 -0.0943
 7136TIP3    H221373   7.235   5.094   5.353 -0.1652  0.1125  0.3187
 7137TIP3   OH221374   6.706   4.189   3.997 -0.4162 -0.1605  0.3040
 7137TIP3    H121375   6.745   4.251   4.059  0.4129 -1.6301  1.3171
 7137TIP3    H221376   6.615   4.181   4.026 -0.8722  1.3940 -0.5450
 7138TIP3   OH221377   4.019   6.281   0.074  0.1233  0.3305  0.2005
 7138TIP3    H121378   3.939   6.315   0.115 -0.2266  1.1704 -1.0912
 7138TIP3    H221379   4.090   6.329   0.116 -0.0424 -0.3842  1.3240
 7139TIP3   OH221380   0.791   0.907   0.733  0.3263  0.4216 -0.2752
 7139TIP3    H121381   0.737   0.829   0.748 -0.9776  1.3575  0.0960
 7139TIP3    H221382   0.806   0.908   0.639  2.5295 -1.6227 -0.0558
 7140TIP3   OH221383   0.924   4.587   2.742 -0.3952  0.1862 -0.0634
 7140TIP3    H121384   0.849   4.646   2.732  0.8545  1.9161  0.3790
 7140TIP3    H221385   0.916   4.527   2.668 -1.4508  1.2092 -0.8210
 7141TIP3   OH221386   6.825   1.393   4.461 -0.1154  0.1362 -0.2846
 7141TIP3    H121387   6.778   1.403   4.543 -1.4484 -0.4961 -0.9445
 7141TIP3    H221388   6.911   1.432   4.478  0.0856 -1.0743  1.7681
 7142TIP3   OH221389   3.113   3.513   1.156  0.3447 -0.3427  0.1919
 7142TIP3    H121390   3.077   3.515   1.244  1.2774 -1.1307  0.6138
 7142TIP3    H221391   3.156   3.427   1.150 -0.1366 -0.5132 -1.1977
 7143TIP3   OH221392   1.031   1.245   3.549 -0.0433 -0.0423 -0.1188
 7143TIP3    H121393   1.082   1.180   3.598  0.9762  0.1341 -0.9028
 7143TIP3    H221394   1.069   1.329   3.574  0.5745  0.0430 -1.2678
 7144TIP3   OH221395   6.130   2.146   2.284  0.4496 -0.1749 -0.2416
 7144TIP3    H121396   6.158   2.237   2.275 -0.7558  0.1627 -0.7999
 7144TIP3    H221397   6.195   2.096   2.234  0.3369  0.5298 -1.1191
 7145TIP3   OH221398   2.121   3.069   3.843 -0.0043 -0.2634 -0.1692
 7145TIP3    H121399   2.132   3.008   3.770 -1.7325  0.1413 -0.8149
 7145TIP3    H221400   2.165   3.149   3.815 -2.2489  0.5296 -1.6375
 7146TIP3   OH221401   1.173   2.046   0.571  0.6679  0.6508 -0.0051
 7146TIP3    H121402   1.082   2.019   0.557  1.3078 -1.1356 -0.9401
 7146TIP3    H221403   1.180   2.130   0.525 -0.8719  1.5549  1.3299
 7147TIP3   OH221404   4.986   5.074   1.405 -0.1182  0.1737  1.3767
 7147TIP3    H121405   4.957   5.042   1.490 -1.7984 -0.9244  0.4561
 7147TIP3    H221406   5.076   5.042   1.396 -0.3305 -0.6884  2.2488
 7148TIP3   OH221407   0.267   0.067   4.223  0.0109 -0.0427 -0.7487
 7148TIP3    H121408   0.224   0.108   4.299  0.6799 -0.3287 -0.2100
 7148TIP3    H221409   0.201   0.007   4.188  0.3544 -1.3826  0.8052
 7149TIP3   OH221410   4.713   6.346   4.825 -0.2500 -0.0133 -0.2772
 7149TIP3    H121411   4.770   6.320   4.897  1.2047  1.7708 -0.6914
 7149TIP3    H221412   4.625   6.322   4.853  0.6072 -2.6049  0.5318
 7150TIP3   OH221413   0.130   5.478   0.391  0.0304  0.6421 -0.1735
 7150TIP3    H121414   0.059   5.494   0.330  0.7064  0.3896 -1.0364
 7150TIP3    H221415   0.134   5.558   0.444 -0.9191  0.6350 -0.0717
 7151TIP3   OH221416   6.044   1.476   2.348  0.5549  0.0973  0.4198
 7151TIP3    H121417   6.070   1.546   2.288 -0.7780  0.7582  0.5654
 7151TIP3    H221418   6.047   1.397   2.295  3.8585 -0.1105  0.7101
 7152TIP3   OH221419   3.419   4.668   3.340  0.6748  0.0008 -0.4319
 7152TIP3    H121420   3.447   4.610   3.410  2.0437  1.6914  0.5045
 7152TIP3    H221421   3.328   4.690   3.361  1.2097  0.8695  1.1506
 7153TIP3   OH221422   0.277   1.815   3.857  0.0962  0.1215  0.1085
 7153TIP3    H121423   0.314   1.740   3.810  1.1230  1.4380 -1.2811
 7153TIP3    H221424   0.333   1.888   3.832 -0.9939  1.4036  1.2885
 7154TIP3   OH221425   5.058   2.168   0.228 -0.5057 -0.3077  0.2961
 7154TIP3    H121426   5.046   2.076   0.203 -0.3929 -0.3279  0.3129
 7154TIP3    H221427   4.970   2.199   0.247 -0.5814 -0.3199 -0.0281
 7155TIP3   OH221428   6.765   2.739   1.521 -0.4130 -0.1078 -0.1049
 7155TIP3    H121429   6.833   2.764   1.458 -2.0445  1.1339 -1.4669
 7155TIP3    H221430   6.728   2.659   1.484  1.1137 -1.5685  1.3437
 7156TIP3   OH221431   0.673   5.548   0.785  0.1684 -0.1191 -0.5030
 7156TIP3    H121432   0.668   5.462   0.826  1.4958 -0.7450 -1.5852
 7156TIP3    H221433   0.592   5.555   0.734 -0.4680 -0.2487  0.4838
 7157TIP3   OH221434   6.384   5.055   0.055 -0.1699  0.4703  0.1645
 7157TIP3    H121435   6.321   5.005   0.002 -0.0266  1.2423 -0.7745
 7157TIP3    H221436   6.450   4.990   0.081  0.9080  0.4138 -2.4104
 7158TIP3   OH221437   2.352   2.558   1.336 -0.2538  0.1217  0.1654
 7158TIP3    H121438   2.367   2.644   1.375  0.4002  0.2022 -0.2404
 7158TIP3    H221439   2.264   2.562   1.300  0.7287  1.5924 -2.2572
 7159TIP3   OH221440   5.576   3.775   2.652  0.1758  0.0978 -0.0740
 7159TIP3    H121441   5.534   3.689   2.645 -0.2143  0.1483  1.3781
 7159TIP3    H221442   5.653   3.760   2.706 -0.1551  0.7281  0.6013
 7160TIP3   OH221443   2.247   2.654   4.940  0.1398 -0.1859 -0.1496
 7160TIP3    H121444   2.340   2.650   4.964  0.2690 -0.3371 -0.6457
 7160TIP3    H221445   2.248   2.665   4.845 -0.3541 -0.8287 -0.2375
 7161TIP3   OH221446   5.205   0.536   0.037 -0.0961  0.2677 -0.0896
 7161TIP3    H121447   5.222   0.531  -0.057  2.5500  0.5053  0.3244
 7161TIP3    H221448   5.222   0.627   0.061 -1.4406  0.3880  0.5481
 7162TIP3   OH221449   0.040   3.656   3.240  0.3174 -0.6365  0.0648
 7162TIP3    H121450  -0.043   3.654   3.191  0.7040 -1.0842 -0.5883
 7162TIP3    H221451   0.093   3.587   3.200  0.6309 -1.0477  1.1620
 7163TIP3   OH221452   6.217   4.961   1.529 -0.4192 -0.2636  0.0014
 7163TIP3    H121453   6.258   4.992   1.610  0.5265 -2.3231  0.3749
 7163TIP3    H221454   6.246   5.024   1.463 -0.7013  1.1037  1.1283
 7164TIP3   OH221455   2.896   0.609   3.633 -0.5013  0.1737 -0.2922
 7164TIP3    H121456   2.852   0.661   3.566 -1.5001  2.0747  1.7196
 7164TIP3    H221457   2.827   0.586   3.696  0.5112 -0.9511  0.4741
 7165TIP3   OH221458   1.158   2.800   5.423 -0.2601  0.0194 -0.8288
 7165TIP3    H121459   1.184   2.711   5.446 -2.0446 -0.3736 -0.1663
 7165TIP3    H221460   1.105   2.829   5.497  1.1282  2.0467 -0.5431
 7166TIP3   OH221461   3.218   0.085   1.623  0.0200 -0.3063 -0.5674
 7166TIP3    H121462   3.225   0.180   1.633  1.0578 -0.4186 -0.0753
 7166TIP3    H221463   3.156   0.073   1.552  0.5889  0.7602 -1.2738
 7167TIP3   OH221464   2.515   0.854   2.000  0.4933 -0.1271 -0.2837
 7167TIP3    H121465   2.586   0.916   2.013  0.4782 -0.3368  0.9918
 7167TIP3    H221466   2.512   0.804   2.082 -0.5256 -0.7300 -0.6702
 7168TIP3   OH221467   3.135   5.465   1.224  0.1349 -0.2440  0.4335
 7168TIP3    H121468   3.220   5.421   1.222  0.8994  1.1228  1.5442
 7168TIP3    H221469   3.156   5.558   1.214 -1.3643 -0.0057 -0.8215
 7169TIP3   OH221470   1.805   4.691   2.816 -0.2801  0.4048 -0.6963
 7169TIP3    H121471   1.754   4.670   2.737  0.6902 -0.4057 -1.1401
 7169TIP3    H221472   1.739   4.716   2.881 -1.1388  0.6410 -1.6190
 7170TIP3   OH221473   3.520   2.745   1.636 -0.4106 -0.0468  0.3993
 7170TIP3    H121474   3.608   2.782   1.629 -0.3137 -0.4236 -0.4114
 7170TIP3    H221475   3.525   2.688   1.713 -0.0659  0.2627  0.6105
 7171TIP3   OH221476   4.324   2.452   1.612 -0.2390  0.0150 -0.0217
 7171TIP3    H121477   4.322   2.422   1.703  0.7854  1.2969  0.4563
 7171TIP3    H221478   4.416   2.444   1.586 -0.4705 -0.0429 -0.8591
 7172TIP3   OH221479   4.610   3.987   0.884  0.0418  0.6065  0.2648
 7172TIP3    H121480   4.613   3.920   0.816 -0.2264  0.1995  0.6474
 7172TIP3    H221481   4.573   4.064   0.840  0.9838  0.7276 -0.3519
 7173TIP3   OH221482   0.946   0.893   5.315 -0.1144  0.2438 -0.1601
 7173TIP3    H121483   0.854   0.884   5.343 -0.4725 -0.2076 -1.4022
 7173TIP3    H221484   0.980   0.803   5.318  0.8460  0.6270  2.0099
 7174TIP3   OH221485   0.994   3.752   2.019 -0.0105 -0.2216 -0.2953
 7174TIP3    H121486   1.085   3.757   1.991  0.4278  2.7242  1.2385
 7174TIP3    H221487   0.998   3.708   2.104  0.3129  1.5560  0.6597
 7175TIP3   OH221488   1.434   1.761   3.013 -0.2242 -0.6774  0.1368
 7175TIP3    H121489   1.511   1.747   3.069  0.1192 -0.5912 -0.3104
 7175TIP3    H221490   1.364   1.713   3.057  0.4115 -1.9338 -0.1647
 7176TIP3   OH221491   3.900   3.687   0.387 -0.0704 -0.1708 -0.0964
 7176TIP3    H121492   3.829   3.685   0.323  0.1243 -0.7036 -0.3011
 7176TIP3    H221493   3.963   3.623   0.355  0.8112  0.7561 -0.2714
 7177TIP3   OH221494   3.123   0.894   0.880 -0.8774 -0.0267  0.0077
 7177TIP3    H121495   3.035   0.857   0.871 -1.7260  1.4347  1.7363
 7177TIP3    H221496   3.157   0.897   0.790 -2.4316 -0.9375 -0.6532
 7178TIP3   OH221497   3.057   3.995   4.397  0.1721  0.6235 -0.2478
 7178TIP3    H121498   3.085   3.952   4.315 -0.7329 -0.8208  0.1552
 7178TIP3    H221499   3.013   3.926   4.446  0.1372  1.6319  1.2046
 7179TIP3   OH221500   3.286   6.439   0.721 -0.0411 -0.1463 -0.3364
 7179TIP3    H121501   3.226   6.425   0.794 -0.2625 -0.2035 -0.5282
 7179TIP3    H221502   3.229   6.446   0.644  0.0167  1.9687 -0.2551
 7180TIP3   OH221503   2.567   1.272   4.304  0.0668  0.4491  0.0466
 7180TIP3    H121504   2.518   1.314   4.374  1.7487  3.9399 -0.6246
 7180TIP3    H221505   2.552   1.327   4.227  0.8137 -1.4153 -1.5381
 7181TIP3   OH221506   6.097   5.179   0.232  0.8755  0.3230  0.1630
 7181TIP3    H121507   6.059   5.233   0.301  1.8964  0.6116  0.5264
 7181TIP3    H221508   6.137   5.242   0.172 -0.3810  0.1036 -0.9504
 7182TIP3   OH221509   6.415   5.558   5.116 -0.1822 -0.0547 -0.1239
 7182TIP3    H121510   6.410   5.489   5.183 -2.1407 -0.1674 -0.3241
 7182TIP3    H221511   6.351   5.623   5.144  0.2462  0.7585 -0.9743
 7183TIP3   OH221512   5.265   2.619   5.180 -0.5074  0.3340 -0.1795
 7183TIP3    H121513   5.337   2.676   5.205 -0.8090  0.5529  0.2117
 7183TIP3    H221514   5.257   2.556   5.253 -1.0327  0.6281  0.0236
 7184TIP3   OH221515   1.647   2.766   1.351  0.0983  0.0690  0.2481
 7184TIP3    H121516   1.672   2.857   1.371  0.8852  0.0101 -0.4282
 7184TIP3    H221517   1.720   2.714   1.384  1.3333 -0.0545 -2.4602
 7185TIP3   OH221518   0.531   5.744   1.071  0.2568  0.4816 -0.3156
 7185TIP3    H121519   0.621   5.726   1.042  0.0326 -1.0877 -0.1427
 7185TIP3    H221520   0.481   5.747   0.990  0.5128  1.7722 -0.4422
 7186TIP3   OH221521   4.290   6.747   0.609  0.3607  0.0351  0.2296
 7186TIP3    H121522   4.218   6.765   0.670  1.3000 -2.0695  2.1025
 7186TIP3    H221523   4.248   6.706   0.533 -0.4664 -1.0073  1.2167
 7187TIP3   OH221524   2.039   1.946   4.150 -0.3161 -0.7099 -0.7002
 7187TIP3    H121525   1.991   2.015   4.104 -0.2597 -1.3258 -1.7167
 7187TIP3    H221526   1.992   1.935   4.232  0.4094  1.4008  0.0746
 7188TIP3   OH221527   1.476   2.615   3.497  0.0516  0.0351  0.6919
 7188TIP3    H121528   1.539   2.629   3.426  1.3535  0.3692  1.8787
 7188TIP3    H221529   1.515   2.657   3.573 -1.8253  0.6394  1.3811
 7189TIP3   OH221530   3.092   0.243   2.538 -0.3613 -0.4923  0.4989
 7189TIP3    H121531   3.000   0.268   2.535 -0.1387  0.2911 -0.1912
 7189TIP3    H221532   3.134   0.310   2.591 -0.1454 -0.7096  0.6042
 7190TIP3   OH221533   6.883   2.241   0.004  0.3368 -0.5558  0.4485
 7190TIP3    H121534   6.892   2.206   0.093 -2.8779  2.2352  2.0925
 7190TIP3    H221535   6.789   2.237  -0.014  0.7212  0.5154 -2.1752
 7191TIP3   OH221536   5.929   2.070   5.089 -0.0823 -0.3220 -0.1044
 7191TIP3    H121537   5.848   2.087   5.041 -0.8153 -0.8466  0.9060
 7191TIP3    H221538   5.947   1.977   5.072 -0.3370 -0.5049  0.6080
 7192TIP3   OH221539   4.359   6.505   4.765  0.1460 -0.3953 -0.1543
 7192TIP3    H121540   4.326   6.522   4.853  0.6910  0.6898 -0.1452
 7192TIP3    H221541   4.397   6.418   4.769 -1.2863 -1.0333  0.2482
 7193TIP3   OH221542   5.636   1.798   5.517  0.0358 -0.0410  0.5335
 7193TIP3    H121543   5.571   1.821   5.451 -0.5656  1.2382  1.5267
 7193TIP3    H221544   5.713   1.851   5.494  0.5713 -1.1530 -0.3264
 7194TIP3   OH221545   6.416   4.820   3.694  0.2713  0.1388  0.5080
 7194TIP3    H121546   6.361   4.785   3.764  0.8830 -0.3351  0.7553
 7194TIP3    H221547   6.372   4.901   3.668 -1.2254 -0.8541 -0.1598
 7195TIP3   OH221548   6.920   5.098   1.468 -0.1909 -0.0828 -0.2788
 7195TIP3    H121549   6.868   5.076   1.391 -0.2892  0.1209 -0.2704
 7195TIP3    H221550   6.869   5.166   1.513  0.6397  0.9674 -0.8889
 7196TIP3   OH221551   1.616   3.313   1.578 -0.5363 -0.0166  0.2676
 7196TIP3    H121552   1.527   3.297   1.610  0.3521 -1.1052  2.3916
 7196TIP3    H221553   1.671   3.309   1.656  1.3540  1.0476 -0.9321
 7197TIP3   OH221554   4.681   4.287   0.972  0.1094 -0.0959 -0.5184
 7197TIP3    H121555   4.608   4.266   1.031 -0.0207  0.0748 -0.6191
 7197TIP3    H221556   4.734   4.207   0.971  2.1452  1.0123  2.7043
 7198TIP3   OH221557   5.387   3.144   5.188  0.2752  0.2795 -0.2854
 7198TIP3    H121558   5.309   3.129   5.134 -0.3621 -0.4406  0.7911
 7198TIP3    H221559   5.460   3.119   5.132 -0.4747 -2.4620 -0.1623
 7199TIP3   OH221560   5.157   1.551   1.879  0.3447  0.0585  0.0887
 7199TIP3    H121561   5.091   1.572   1.945 -0.5550  1.3368 -1.1468
 7199TIP3    H221562   5.145   1.617   1.811  1.2824 -1.1440 -1.3267
 7200TIP3   OH221563   5.602   1.950  -0.005  0.3480 -0.5333 -0.3068
 7200TIP3    H121564   5.685   1.956  -0.052  2.2720  2.6240  2.9308
 7200TIP3    H221565   5.625   1.913   0.080 -1.5140  0.4855  0.7188
 7201TIP3   OH221566   0.768   3.836   4.738  0.5620 -0.5144  0.1435
 7201TIP3    H121567   0.856   3.828   4.774  1.0964 -0.8432 -1.1801
 7201TIP3    H221568   0.723   3.757   4.768  0.9498 -0.7157  0.2012
 7202TIP3   OH221569   1.642   0.657   0.334  0.2165 -0.2840  0.1756
 7202TIP3    H121570   1.636   0.734   0.391  2.7725  0.3014 -0.2446
 7202TIP3    H221571   1.620   0.583   0.391 -5.1529  0.7494 -0.0242
 7203TIP3   OH221572   1.830   4.941   0.690  0.1965  0.6636 -0.3219
 7203TIP3    H121573   1.922   4.962   0.703  0.3280  1.8916 -2.6506
 7203TIP3    H221574   1.829   4.881   0.615 -0.7814 -1.2497  1.1463
 7204TIP3   OH221575   6.472   3.327   1.108  0.4002  0.3048  0.0896
 7204TIP3    H121576   6.543   3.311   1.047  1.6145 -0.9563  1.7330
 7204TIP3    H221577   6.480   3.420   1.129  1.7063  0.1550  0.3704
 7205TIP3   OH221578   0.703   0.218   5.561  0.3772 -0.4311 -0.0027
 7205TIP3    H121579   0.756   0.182   5.633 -1.1180 -0.2416  1.2291
 7205TIP3    H221580   0.736   0.307   5.549  0.2347 -0.2527  0.8761
 7206TIP3   OH221581   3.365   3.951   1.039  0.2687  0.2634 -0.2193
 7206TIP3    H121582   3.353   4.034   0.992  0.6627 -0.9097 -2.5698
 7206TIP3    H221583   3.349   3.884   0.972  0.2830 -1.5630  1.5286
 7207TIP3   OH221584   1.850   0.838   4.955  0.2519 -0.1399 -0.0043
 7207TIP3    H121585   1.902   0.762   4.980  1.6269  0.2455 -1.5490
 7207TIP3    H221586   1.796   0.857   5.032  0.1165 -2.4496  0.5255
 7208TIP3   OH221587   7.061   1.552   3.796 -0.0850  0.2562 -0.3151
 7208TIP3    H121588   7.084   1.644   3.811  0.5668  0.0452  0.0102
 7208TIP3    H221589   7.077   1.509   3.880  0.2978 -0.2871 -0.6591
 7209TIP3   OH221590   6.598   2.166   5.545  0.4332 -0.1732  0.7211
 7209TIP3    H121591   6.654   2.206   5.479  1.2501  1.5012  2.3475
 7209TIP3    H221592   6.656   2.149   5.619 -1.0231  0.8856  2.1754
 7210TIP3   OH221593   4.945   1.735   5.490 -0.0793 -0.0737  0.0100
 7210TIP3    H121594   4.968   1.678   5.563  1.0141  1.7023  1.1103
 7210TIP3    H221595   5.009   1.712   5.422  0.3090 -0.2314  0.4201
 7211TIP3   OH221596   0.823   3.915   1.766 -0.4233 -0.3105 -0.4121
 7211TIP3    H121597   0.743   3.963   1.744  0.1642  0.8166 -0.1409
 7211TIP3    H221598   0.845   3.866   1.686  0.5067  2.0722 -1.6995
 7212TIP3   OH221599   0.562   3.094   3.494  0.2086 -0.2502  0.0306
 7212TIP3    H121600   0.497   3.136   3.550 -2.3477 -2.1029 -1.3744
 7212TIP3    H221601   0.577   3.157   3.424  0.9982  0.7303  1.0363
 7213TIP3   OH221602   2.155   2.893   1.093 -0.4483 -0.5471  0.6077
 7213TIP3    H121603   2.065   2.898   1.123  0.0437 -1.7147  2.4501
 7213TIP3    H221604   2.159   2.812   1.041 -0.2958 -0.9361  1.2152
 7214TIP3   OH221605   0.613   2.585   1.554 -0.0938 -0.3883  0.2850
 7214TIP3    H121606   0.638   2.541   1.636  1.2039 -0.0082  0.1275
 7214TIP3    H221607   0.649   2.528   1.485  1.1777  0.6256  0.0699
 7215TIP3   OH221608   5.754   3.542   4.387  0.3817  0.4557  0.5969
 7215TIP3    H121609   5.663   3.551   4.415  0.4397  0.5924  0.7404
 7215TIP3    H221610   5.759   3.593   4.306  0.0675 -0.4209  0.0111
 7216TIP3   OH221611   2.777   6.474   0.941  0.6585 -0.2689  0.0201
 7216TIP3    H121612   2.706   6.538   0.937  0.6719 -0.0960  1.7689
 7216TIP3    H221613   2.739   6.394   0.904  0.1321  0.2901 -0.6817
 7217TIP3   OH221614   4.559   6.326   3.974  0.3312 -0.1907  0.6331
 7217TIP3    H121615   4.536   6.305   4.064  0.8864  1.0467  1.0774
 7217TIP3    H221616   4.524   6.252   3.923  1.2485 -1.6367  1.9822
 7218TIP3   OH221617   6.459   0.674   2.203  0.0368 -0.0070 -0.4037
 7218TIP3    H121618   6.503   0.750   2.240 -0.9096  0.0874  0.5575
 7218TIP3    H221619   6.370   0.678   2.237 -0.3910 -0.8511 -1.3619
 7219TIP3   OH221620   5.996   5.813   5.461  0.3984  0.1769 -0.7337
 7219TIP3    H121621   5.921   5.871   5.462 -0.6986 -1.1779 -0.4084
 7219TIP3    H221622   5.988   5.764   5.380  1.8120  1.0626 -1.4451
 7220TIP3   OH221623   1.525   4.431   3.518  0.3770  0.3107 -0.5665
 7220TIP3    H121624   1.445   4.435   3.465  0.5243 -2.1539 -1.0898
 7220TIP3    H221625   1.596   4.421   3.454  0.5774 -2.4548 -0.0091
 7221TIP3   OH221626   4.534   1.302   4.600  0.3387  0.0062 -0.1471
 7221TIP3    H121627   4.444   1.301   4.570 -0.0020  0.3307  0.8110
 7221TIP3    H221628   4.528   1.289   4.695  1.1794  1.7998  0.1916
 7222TIP3   OH221629   4.564   5.016   1.897 -0.0483  0.2521  0.0570
 7222TIP3    H121630   4.638   5.060   1.854 -0.0209 -0.4362 -0.6227
 7222TIP3    H221631   4.520   5.086   1.945  0.0408  1.0284 -0.9391
 7223TIP3   OH221632   3.540   2.691   5.451  0.0403  0.1171  0.6047
 7223TIP3    H121633   3.621   2.735   5.424 -0.0812 -0.6056 -1.0599
 7223TIP3    H221634   3.497   2.667   5.369 -1.8969  0.4959  1.4481
 7224TIP3   OH221635   1.556   2.781   5.475  0.0758 -0.1732 -0.1570
 7224TIP3    H121636   1.477   2.831   5.458  0.4541  0.2825 -0.6152
 7224TIP3    H221637   1.533   2.722   5.547 -0.2200  1.0055  0.7399
 7225TIP3   OH221638   6.810   1.846   3.261  0.2645 -0.5147 -0.5762
 7225TIP3    H121639   6.723   1.883   3.278 -0.7617 -2.6798 -0.8011
 7225TIP3    H221640   6.859   1.861   3.342 -0.8854 -0.7370  0.1913
 7226TIP3   OH221641   2.146   6.629   3.007  0.5887  0.0295 -0.2794
 7226TIP3    H121642   2.173   6.717   3.033 -2.5442  0.7957  0.6931
 7226TIP3    H221643   2.147   6.578   3.088 -2.6501  0.6544  0.2841
 7227TIP3   OH221644   5.601   2.100   1.118  0.6697 -0.0292  0.2864
 7227TIP3    H121645   5.621   2.169   1.056  0.5451  0.4216  0.7436
 7227TIP3    H221646   5.602   2.143   1.204 -0.1865 -0.4214  0.5050
 7228TIP3   OH221647   3.516   4.049   3.284  0.5302  0.6144  0.5301
 7228TIP3    H121648   3.458   4.007   3.347  2.6550 -0.1472  2.0535
 7228TIP3    H221649   3.568   4.111   3.336  2.4695 -0.1657 -0.3777
 7229TIP3   OH221650   5.648   6.244   4.046  0.1412  0.2010 -0.1845
 7229TIP3    H121651   5.576   6.180   4.046  0.0527  0.2993 -0.1835
 7229TIP3    H221652   5.666   6.260   3.953  0.8720 -0.6110 -0.1955
 7230TIP3   OH221653   2.668   1.791   4.424 -0.1639  0.1946 -0.1244
 7230TIP3    H121654   2.733   1.723   4.406  0.6932  1.2597 -1.2382
 7230TIP3    H221655   2.600   1.747   4.474  1.6388 -0.8741  1.5365
 7231TIP3   OH221656   5.942   1.554   1.968  0.2617  0.3626 -0.0736
 7231TIP3    H121657   5.896   1.471   1.977  0.6768  0.1932  0.5392
 7231TIP3    H221658   5.873   1.618   1.950 -0.2669  0.1699  1.1608
 7232TIP3   OH221659   3.191   3.510   2.874  0.1495 -0.3907 -0.0774
 7232TIP3    H121660   3.262   3.451   2.901  1.7118  1.5414  0.2713
 7232TIP3    H221661   3.116   3.482   2.926  1.1976 -1.2631  1.0255
 7233TIP3   OH221662   4.844   0.090   1.902 -0.0815  0.5442 -0.6158
 7233TIP3    H121663   4.785   0.057   1.833 -0.2290  3.2703 -1.9273
 7233TIP3    H221664   4.929   0.094   1.859  0.4701 -0.5025  0.3381
 7234TIP3   OH221665   3.634   1.318   3.959  0.7281  0.4168 -0.1954
 7234TIP3    H121666   3.588   1.374   3.897  1.0901 -0.1319 -0.9822
 7234TIP3    H221667   3.677   1.379   4.019  3.4647  1.2065 -2.6733
 7235TIP3   OH221668   6.133   0.081   3.132 -0.1185 -0.0857  0.3457
 7235TIP3    H121669   6.175   0.010   3.083 -1.5524 -0.5779 -0.2307
 7235TIP3    H221670   6.179   0.160   3.103  0.9796 -0.6836  0.4051
 7236TIP3   OH221671   2.463   5.699   5.531 -0.0333  0.7078  0.3578
 7236TIP3    H121672   2.558   5.710   5.531 -0.0664  1.0170 -0.0165
 7236TIP3    H221673   2.450   5.605   5.544  0.3251  0.6598  0.3797
 7237TIP3   OH221674   2.648   6.590   0.642  0.1844 -0.7519  0.1801
 7237TIP3    H121675   2.654   6.668   0.586 -0.3870  0.2932  1.5109
 7237TIP3    H221676   2.731   6.544   0.629  0.7593  0.3669 -0.2212
 7238TIP3   OH221677   3.929   3.027   3.525  0.2472 -0.0047  0.1218
 7238TIP3    H121678   3.833   3.027   3.521  0.2715 -0.9090 -0.6810
 7238TIP3    H221679   3.956   3.089   3.457  0.2309  0.8912  0.9097
 7239TIP3   OH221680   1.053   0.900   2.811  0.3202 -0.1807  0.6179
 7239TIP3    H121681   1.012   0.858   2.736  0.8538 -1.4845  1.0308
 7239TIP3    H221682   1.042   0.994   2.795  0.2715 -0.4361 -0.9877
 7240TIP3   OH221683   1.009   1.718   0.048 -0.0473  0.1388 -0.0736
 7240TIP3    H121684   1.073   1.660   0.088 -0.1798  0.3385  0.4391
 7240TIP3    H221685   1.055   1.802   0.039  0.0459  0.0417 -0.5281
 7241TIP3   OH221686   4.234   6.049   0.616 -0.4457 -0.2291  0.5969
 7241TIP3    H121687   4.328   6.053   0.601 -0.5571  0.6748  0.0903
 7241TIP3    H221688   4.202   5.983   0.555 -0.0527 -1.1200  1.3184
 7242TIP3   OH221689   0.249   4.949   1.821 -0.1088  0.4044  0.0907
 7242TIP3    H121690   0.333   4.904   1.832 -0.9998 -1.1889  0.8080
 7242TIP3    H221691   0.264   5.012   1.751  1.8487  0.6012  0.6385
 7243TIP3   OH221692   2.070   0.591   3.337  0.3558  0.0721 -0.2552
 7243TIP3    H121693   2.044   0.552   3.253 -0.4178 -1.0002  0.4478
 7243TIP3    H221694   2.037   0.529   3.402  1.0202  0.8488  0.8383
 7244TIP3   OH221695   5.391   1.167   5.648  0.0040 -0.0870 -0.5915
 7244TIP3    H121696   5.391   1.074   5.627  0.1227 -0.0836 -0.6083
 7244TIP3    H221697   5.456   1.205   5.588  0.9179 -0.1937  0.3085
 7245TIP3   OH221698   0.152   5.452   1.335 -0.0644  0.6224  0.3951
 7245TIP3    H121699   0.137   5.545   1.316  1.5745  1.2442  1.8800
 7245TIP3    H221700   0.237   5.432   1.295 -0.6564 -0.4015 -0.3891
 7246TIP3   OH221701   1.316   5.657   2.532 -0.3245  0.3631  0.4436
 7246TIP3    H121702   1.308   5.660   2.627 -1.1381 -0.8584  0.4329
 7246TIP3    H221703   1.236   5.614   2.501  0.9504 -1.4559 -0.5815
 7247TIP3   OH221704   4.350   1.045   3.480 -0.0996  0.5557 -0.1296
 7247TIP3    H121705   4.415   1.113   3.497  0.9481 -0.7432  1.3128
 7247TIP3    H221706   4.307   1.032   3.564  0.6088 -1.4363 -0.0338
 7248TIP3   OH221707   5.678   6.511   0.846 -0.6361 -0.2623 -0.1949
 7248TIP3    H121708   5.602   6.486   0.794  0.7623 -3.4203 -0.9507
 7248TIP3    H221709   5.665   6.467   0.930 -0.0533 -0.1510 -0.0396
 7249TIP3   OH221710   2.200   3.027   4.877 -0.0393  0.0315  0.1749
 7249TIP3    H121711   2.255   3.052   4.803 -0.6518  0.4135 -0.1580
 7249TIP3    H221712   2.171   3.110   4.915  0.8571 -0.1351  1.3115
 7250TIP3   OH221713   2.541   1.170   0.311 -0.1243  0.0391  0.1867
 7250TIP3    H121714   2.631   1.144   0.329  2.1507  4.8707 -2.2318
 7250TIP3    H221715   2.515   1.221   0.388 -0.5572 -0.7389  0.5666
 7251TIP3   OH221716   3.734   0.167   5.685 -0.0474 -0.1708  0.3660
 7251TIP3    H121717   3.780   0.110   5.624  0.1066  0.2293  0.1088
 7251TIP3    H221718   3.804   0.202   5.742 -0.2203 -0.7715  0.9687
 7252TIP3   OH221719   2.548   1.139   5.732  0.4358 -0.2394  0.6163
 7252TIP3    H121720   2.563   1.168   5.642  3.0601  0.1475  1.0835
 7252TIP3    H221721   2.455   1.156   5.748  0.4417  2.0806 -1.1959
 7253TIP3   OH221722   0.236   4.246   1.336 -0.5524  0.1683 -0.0073
 7253TIP3    H121723   0.207   4.329   1.372 -3.2222 -0.4139 -0.5559
 7253TIP3    H221724   0.195   4.242   1.249 -0.5224 -1.7107  0.0202
 7254TIP3   OH221725   5.733   5.176   1.386 -0.6386  0.1980  0.4861
 7254TIP3    H121726   5.720   5.132   1.470  0.7423 -0.1759  0.5398
 7254TIP3    H221727   5.816   5.140   1.353 -0.4136  1.4040 -0.3458
 7255TIP3   OH221728   0.357   0.321   2.274 -0.0848 -0.6534 -0.1393
 7255TIP3    H121729   0.385   0.407   2.306  1.4613 -1.9117  2.1081
 7255TIP3    H221730   0.423   0.298   2.209  1.9763 -1.8369  2.2225
 7256TIP3   OH221731   3.432   0.137   0.667  0.1053  0.0424  0.3307
 7256TIP3    H121732   3.458   0.226   0.644 -0.1143  0.3826  1.3616
 7256TIP3    H221733   3.346   0.147   0.709 -0.5141 -0.7887 -0.6636
 7257TIP3   OH221734   1.829   6.181   4.122 -0.1179  0.3785 -0.3213
 7257TIP3    H121735   1.890   6.247   4.154 -0.2756  1.3160 -1.9020
 7257TIP3    H221736   1.765   6.230   4.071 -0.6593 -0.9041 -0.9077
 7258TIP3   OH221737   1.499   1.344   2.707 -0.0455 -0.6235  0.4818
 7258TIP3    H121738   1.508   1.254   2.737 -1.2935 -0.9780 -0.1384
 7258TIP3    H221739   1.434   1.383   2.766  0.1275 -0.2705  0.4447
 7259TIP3   OH221740   3.280   4.335   1.960 -0.0174 -0.0413 -0.3555
 7259TIP3    H121741   3.355   4.370   1.911 -0.4460 -0.2881 -1.2111
 7259TIP3    H221742   3.237   4.412   1.997  1.2914  0.0295  1.1058
 7260TIP3   OH221743   1.092   1.277   2.288 -0.6203 -0.3817 -0.9793
 7260TIP3    H121744   1.151   1.345   2.321 -1.2253 -0.1344 -0.3686
 7260TIP3    H221745   1.056   1.314   2.208 -1.9012  0.5859 -0.0006
 7261TIP3   OH221746   1.662   6.747   4.737 -0.9556  0.6530  0.2652
 7261TIP3    H121747   1.717   6.707   4.669 -1.3112 -0.7967  0.7948
 7261TIP3    H221748   1.676   6.692   4.814 -1.3451  1.6695  1.0842
 7262TIP3   OH221749   3.239   6.150   5.758  0.2000  0.2026 -0.3839
 7262TIP3    H121750   3.293   6.177   5.833 -1.2583 -1.0698  1.2096
 7262TIP3    H221751   3.153   6.188   5.774 -0.4034 -0.8865 -0.8882
 7263TIP3   OH221752   0.431   3.734   3.161  0.3938  0.1337 -0.6321
 7263TIP3    H121753   0.466   3.787   3.232  2.4564 -0.4612 -1.1421
 7263TIP3    H221754   0.380   3.795   3.107 -2.3658  0.3648  1.9546
 7264TIP3   OH221755   2.995   3.812   5.233 -0.4512 -0.1058 -0.2354
 7264TIP3    H121756   2.902   3.799   5.248 -0.9888  1.4158 -1.9114
 7264TIP3    H221757   3.016   3.758   5.157 -0.1846  0.2815 -0.4422
 7265TIP3   OH221758   2.838   4.089   0.478 -0.4314  0.0688 -0.3495
 7265TIP3    H121759   2.852   4.177   0.513 -1.0444 -0.1515  0.4964
 7265TIP3    H221760   2.747   4.090   0.448 -0.0331  0.1267 -1.5995
 7266TIP3   OH221761   3.136   1.979   0.759 -0.2694  0.0568  0.5990
 7266TIP3    H121762   3.216   1.983   0.812  0.5040 -1.7240 -0.3423
 7266TIP3    H221763   3.135   2.062   0.711 -1.0813  1.8100  3.3909
 7267TIP3   OH221764   5.676   5.428   4.085  0.2491  0.4723 -0.0025
 7267TIP3    H121765   5.749   5.366   4.078 -1.2608 -1.4352  0.1559
 7267TIP3    H221766   5.657   5.432   4.179 -0.4032  0.2060 -0.1112
 7268TIP3   OH221767   0.749   6.121   0.728 -0.3154 -0.2558  0.4269
 7268TIP3    H121768   0.722   6.168   0.649  1.8172 -1.2446 -0.9675
 7268TIP3    H221769   0.668   6.111   0.778 -1.1711  3.3623  0.0530
 7269TIP3   OH221770   0.315   2.101   4.853 -0.5823 -0.6596  0.2250
 7269TIP3    H121771   0.287   2.165   4.787 -0.3517 -0.1628  0.6028
 7269TIP3    H221772   0.363   2.153   4.917  0.3856 -1.3493  0.0735
 7270TIP3   OH221773   3.803   3.619   1.068 -0.2487  0.3289  0.3083
 7270TIP3    H121774   3.883   3.644   1.023  0.3232 -1.3143  0.3244
 7270TIP3    H221775   3.736   3.619   0.999  0.2759 -0.5614 -0.2280
 7271TIP3   OH221776   0.898   4.538  -0.031 -0.1865  0.0654  0.2166
 7271TIP3    H121777   0.826   4.566   0.026 -0.7057  2.1293 -1.3063
 7271TIP3    H221778   0.941   4.468   0.016 -1.9688  0.1557  2.1000
 7272TIP3   OH221779   4.658   3.711   5.214  0.0540  0.4217  0.3283
 7272TIP3    H121780   4.620   3.746   5.133  0.2366  1.3669  0.6395
 7272TIP3    H221781   4.675   3.789   5.267  1.8418 -0.0239  0.4465
 7273TIP3   OH221782   2.848   1.978   4.569  0.2237  0.2013 -0.3139
 7273TIP3    H121783   2.790   1.928   4.512  0.7461 -0.1269 -0.5657
 7273TIP3    H221784   2.789   2.021   4.631 -0.2517 -0.6321 -0.1623
 7274TIP3   OH221785   2.262   6.533   2.703 -0.6225 -0.6406  0.0550
 7274TIP3    H121786   2.203   6.458   2.696 -1.3640 -0.0344 -0.3364
 7274TIP3    H221787   2.228   6.597   2.640 -1.1304  0.7524  1.6570
 7275TIP3   OH221788   2.895   1.630   1.123 -0.2669 -0.8643  0.2232
 7275TIP3    H121789   2.884   1.547   1.170 -0.8018 -1.0654 -0.2441
 7275TIP3    H221790   2.959   1.610   1.055 -0.0677 -0.7773  0.3853
 7276TIP3   OH221791   3.372   3.327   0.567  0.6822  0.2265  0.1389
 7276TIP3    H121792   3.394   3.408   0.521 -0.2562  0.1885 -0.3889
 7276TIP3    H221793   3.280   3.337   0.592  0.3780 -0.9112 -0.4475
 7277TIP3   OH221794   1.997   6.331   3.191 -0.2999 -0.1235  0.0210
 7277TIP3    H121795   2.063   6.400   3.195 -0.7707  0.2787  1.4134
 7277TIP3    H221796   1.914   6.377   3.177 -0.5338 -0.4533  0.2903
 7278TIP3   OH221797   2.135   0.251   5.251 -0.2321 -0.3153 -0.2312
 7278TIP3    H121798   2.176   0.268   5.165  3.5497  0.2234  1.4738
 7278TIP3    H221799   2.093   0.334   5.273  1.8461  0.7827 -0.1232
 7279TIP3   OH221800   5.609   1.453   4.847  0.4349 -0.5498 -0.5571
 7279TIP3    H121801   5.578   1.495   4.927  0.6920 -2.7411  0.7919
 7279TIP3    H221802   5.701   1.432   4.865  0.7352 -0.3558 -1.7634
 7280TIP3   OH221803  -0.010   1.258   1.419 -0.0715 -0.5389  0.2115
 7280TIP3    H121804   0.021   1.343   1.386  0.3841 -0.7661  0.0505
 7280TIP3    H221805   0.070   1.209   1.437 -0.3381 -1.0465  0.0194
 7281TIP3   OH221806   6.962   4.786   0.528  0.3751 -0.1598 -0.1976
 7281TIP3    H121807   6.878   4.762   0.567  0.0978  0.5200 -0.3583
 7281TIP3    H221808   6.940   4.856   0.467  0.8769 -0.8654 -1.2048
 7282TIP3   OH221809   4.186   2.679   5.129 -0.1330  0.2694 -0.3722
 7282TIP3    H121810   4.132   2.699   5.053  1.2620 -0.1775 -1.5328
 7282TIP3    H221811   4.227   2.595   5.108  1.3520  0.8035  0.2430
 7283TIP3   OH221812   1.358   1.077   1.594  0.2360 -0.0504 -0.1318
 7283TIP3    H121813   1.299   1.150   1.616 -0.4004 -0.2357 -1.1795
 7283TIP3    H221814   1.299   1.005   1.572  0.8601 -0.9858  1.1415
 7284TIP3   OH221815   4.494   0.659   4.131 -0.1058 -0.7478 -0.0899
 7284TIP3    H121816   4.558   0.688   4.196 -1.1873 -0.2502  0.7890
 7284TIP3    H221817   4.543   0.654   4.049  0.4363  2.5944 -0.1076
 7285TIP3   OH221818   4.629   5.571   4.855 -0.4191 -0.0323  0.7319
 7285TIP3    H121819   4.710   5.559   4.904  0.2412 -0.8673 -0.5156
 7285TIP3    H221820   4.563   5.526   4.908 -0.1440  0.8546  1.8824
 7286TIP3   OH221821   0.188   4.636   5.100 -0.0429 -0.1521 -0.9419
 7286TIP3    H121822   0.128   4.667   5.169 -0.5467 -0.3649 -1.2748
 7286TIP3    H221823   0.168   4.692   5.025  0.4534  0.0304 -0.9423
 7287TIP3   OH221824   5.331   3.882   5.069  0.4234 -0.5959  0.4313
 7287TIP3    H121825   5.341   3.893   5.164  0.4698 -0.3467  0.3981
 7287TIP3    H221826   5.353   3.790   5.054 -0.9978 -1.0298  0.8517
 7288TIP3   OH221827   6.832   5.146   4.011  0.4322  0.6889  0.0083
 7288TIP3    H121828   6.804   5.058   4.036 -1.6032  1.0886 -0.6489
 7288TIP3    H221829   6.906   5.166   4.068 -1.7421  0.1972  3.2608
 7289TIP3   OH221830   3.023   4.808   1.066 -0.0820 -0.1358  0.6537
 7289TIP3    H121831   2.977   4.891   1.076 -1.6253 -0.8466 -0.2441
 7289TIP3    H221832   3.042   4.780   1.156 -1.2814  0.2594  1.0436
 7290TIP3   OH221833   2.248   3.371   2.666 -0.3220  0.7860  0.2703
 7290TIP3    H121834   2.257   3.322   2.747  0.9725 -0.0739 -0.3469
 7290TIP3    H221835   2.165   3.342   2.628 -0.0405 -0.1958  0.3922
 7291TIP3   OH221836   0.284   5.720   1.859  0.1899 -0.2085  0.1390
 7291TIP3    H121837   0.257   5.751   1.772  0.7568 -0.6831 -0.2162
 7291TIP3    H221838   0.379   5.731   1.860  0.0575  1.1208  1.2458
 7292TIP3   OH221839   6.591   5.687   1.887 -0.0745  0.2177  0.6564
 7292TIP3    H121840   6.660   5.741   1.926 -1.0679  0.7692  1.6953
 7292TIP3    H221841   6.618   5.597   1.904  1.6089  0.3128 -1.1027
 7293TIP3   OH221842   3.670   1.582   2.468  0.2226 -0.0705 -0.1151
 7293TIP3    H121843   3.583   1.547   2.451 -0.0468  0.2552  0.5453
 7293TIP3    H221844   3.717   1.572   2.386 -0.4296 -0.2777 -0.4669
 7294TIP3   OH221845   4.400   0.333  -0.007 -0.3334  0.3173  0.4513
 7294TIP3    H121846   4.338   0.355   0.063 -1.1104  2.0510 -0.7180
 7294TIP3    H221847   4.486   0.341   0.034 -0.7695  1.3802  1.2037
 7295TIP3   OH221848   3.031   3.823   3.920 -0.5358 -0.7902 -0.3574
 7295TIP3    H121849   3.106   3.810   3.861 -0.4846 -0.1887 -0.4331
 7295TIP3    H221850   2.962   3.860   3.865 -0.1634  0.7279  0.1213
 7296TIP3   OH221851   7.090   4.167   1.010 -0.2346  0.0321 -0.2838
 7296TIP3    H121852   7.065   4.077   0.993 -2.4964  0.3399  1.0374
 7296TIP3    H221853   7.100   4.206   0.923 -0.5587 -1.1515 -0.8677
 7297TIP3   OH221854   3.691   1.305   3.404 -0.0384  0.6025  0.0078
 7297TIP3    H121855   3.682   1.302   3.500 -0.2371 -0.9589 -0.0318
 7297TIP3    H221856   3.601   1.300   3.372  0.0855 -0.0270 -0.2606
 7298TIP3   OH221857   3.193   2.557   0.761  0.7382 -0.1554  0.2790
 7298TIP3    H121858   3.159   2.625   0.819  0.6996  0.3506 -0.3289
 7298TIP3    H221859   3.247   2.604   0.698 -0.9223 -0.3771 -1.4270
 7299TIP3   OH221860   0.095   2.469   1.979 -0.7621  0.6345 -0.3310
 7299TIP3    H121861   0.152   2.537   1.945 -0.3003 -0.2017 -1.2807
 7299TIP3    H221862   0.141   2.433   2.054 -0.1967  0.2201 -0.8666
 7300TIP3   OH221863   3.522   0.440   1.489 -0.2947 -0.5078 -0.0666
 7300TIP3    H121864   3.482   0.437   1.402  2.8287  1.7809 -1.7839
 7300TIP3    H221865   3.504   0.529   1.520  0.3999 -0.6251  0.7015
 7301TIP3   OH221866   5.151   5.012   0.337  0.5752 -0.1098 -0.6166
 7301TIP3    H121867   5.141   5.016   0.242 -0.3051  0.9249 -0.5017
 7301TIP3    H221868   5.125   5.099   0.368  2.3960  0.1132  0.4568
 7302TIP3   OH221869   0.554   6.343   0.890  0.8533 -0.6613 -0.0340
 7302TIP3    H121870   0.480   6.359   0.948  1.7287  1.2630  0.6401
 7302TIP3    H221871   0.522   6.279   0.827 -1.3225 -0.0200  0.3408
 7303TIP3   OH221872   3.167   6.347   2.618 -0.1413  0.1809  0.1802
 7303TIP3    H121873   3.101   6.379   2.678 -1.0590  0.4846 -0.9469
 7303TIP3    H221874   3.140   6.379   2.532  0.5919 -1.0226 -0.5482
 7304TIP3   OH221875   2.878   6.187   3.474  0.2066 -0.4429 -0.2636
 7304TIP3    H121876   2.836   6.197   3.389 -1.0344  0.4399  0.4216
 7304TIP3    H221877   2.868   6.095   3.496  1.5770 -0.9438 -1.5668
 7305TIP3   OH221878   2.438   6.266   0.053 -0.4864 -0.3602  0.1192
 7305TIP3    H121879   2.444   6.356   0.083  0.3523 -0.6718  0.9602
 7305TIP3    H221880   2.410   6.217   0.131 -1.6755 -0.7288 -0.5215
 7306TIP3   OH221881   3.059   2.280   3.150 -0.3588  0.5466 -0.2002
 7306TIP3    H121882   3.076   2.330   3.230 -0.7257  0.5042 -0.0926
 7306TIP3    H221883   2.981   2.228   3.171  0.3439 -0.5059 -0.1093
 7307TIP3   OH221884   0.483   2.247   1.848 -0.2515 -0.1985 -0.6356
 7307TIP3    H121885   0.464   2.227   1.940  0.4161  1.2738 -0.1335
 7307TIP3    H221886   0.578   2.259   1.846 -0.4258  1.4269 -1.1170
 7308TIP3   OH221887   2.333   1.323   1.940  0.0174 -0.0165  0.4949
 7308TIP3    H121888   2.330   1.272   2.020  0.2406 -0.3532  0.2921
 7308TIP3    H221889   2.241   1.332   1.913 -0.1897  1.3286  1.5484
 7309TIP3   OH221890   3.674   4.165   2.147 -0.2543 -0.4606 -0.0530
 7309TIP3    H121891   3.673   4.113   2.227  0.0569  1.4162  1.2491
 7309TIP3    H221892   3.633   4.248   2.171 -1.7358 -0.4462 -2.3290
 7310TIP3   OH221893   1.287   3.454   0.186  0.0692  0.3742  0.4390
 7310TIP3    H121894   1.345   3.441   0.261 -1.0948 -2.0600  1.0249
 7310TIP3    H221895   1.304   3.379   0.129 -3.1413 -1.0976  1.1645
 7311TIP3   OH221896   5.384   4.065   3.566 -0.6853  0.0984 -0.1962
 7311TIP3    H121897   5.476   4.089   3.581 -0.7321 -0.3248  0.8766
 7311TIP3    H221898   5.334   4.130   3.615 -0.8387 -1.5255  1.9341
 7312TIP3   OH221899   6.623   5.159   1.627  0.3799 -0.5230 -0.5787
 7312TIP3    H121900   6.647   5.140   1.718 -0.1051  0.0024 -0.3361
 7312TIP3    H221901   6.598   5.252   1.627  0.7543 -0.4100 -1.3304
 7313TIP3   OH221902   0.203   6.119   2.655 -0.5188 -0.1884  0.1829
 7313TIP3    H121903   0.228   6.182   2.722 -3.1471  1.4841 -0.2546
 7313TIP3    H221904   0.173   6.042   2.703 -0.9783  0.4298  0.9055
 7314TIP3   OH221905   3.949   5.443   1.042  0.0222 -0.2188 -0.0033
 7314TIP3    H121906   3.881   5.425   0.978  0.9908 -0.3334 -1.0259
 7314TIP3    H221907   3.913   5.412   1.125 -0.2146 -2.6259 -0.9324
 7315TIP3   OH221908   5.363   4.288   5.674  0.4172 -0.4162 -0.3975
 7315TIP3    H121909   5.322   4.202   5.678 -0.2891 -0.0564  0.9499
 7315TIP3    H221910   5.420   4.285   5.597  2.3488 -2.9384  0.9780
 7316TIP3   OH221911   5.696   4.614   0.085 -0.0143  0.4642  0.0153
 7316TIP3    H121912   5.667   4.629   0.175 -0.5314 -0.7302  0.0656
 7316TIP3    H221913   5.640   4.670   0.031 -0.6628  0.1103  0.3228
 7317TIP3   OH221914   4.851   2.699   0.881 -0.0166 -0.4491 -0.5805
 7317TIP3    H121915   4.885   2.707   0.970 -0.9577 -0.0895 -0.2393
 7317TIP3    H221916   4.764   2.660   0.892 -1.1251  1.6963 -1.1074
 7318TIP3   OH221917   2.156   3.870   4.802 -0.6074  1.0651  0.3221
 7318TIP3    H121918   2.213   3.833   4.869 -2.7193  0.8030  2.0940
 7318TIP3    H221919   2.185   3.961   4.793 -1.0227  1.4590  2.5108
 7319TIP3   OH221920   4.633   6.317   0.100 -0.1909 -0.0363 -0.6053
 7319TIP3    H121921   4.540   6.302   0.083 -0.2259 -0.3816 -0.1073
 7319TIP3    H221922   4.677   6.255   0.042 -0.3291 -1.8946  1.1669
 7320TIP3   OH221923   2.463   3.459   3.199  0.2597  0.3852  0.7655
 7320TIP3    H121924   2.454   3.475   3.105  2.2956  0.7894  0.6029
 7320TIP3    H221925   2.425   3.372   3.212 -0.1617  0.3790 -0.3995
 7321TIP3   OH221926   1.791   5.949   1.891  0.3610  0.5092 -0.2385
 7321TIP3    H121927   1.810   5.903   1.973 -0.0524 -2.2728 -1.6078
 7321TIP3    H221928   1.876   5.958   1.848  0.5852  2.0144  0.4401
 7322TIP3   OH221929   2.479   6.387   4.552  0.2995 -0.1383  0.0485
 7322TIP3    H121930   2.405   6.393   4.492  0.2014  0.8186  0.2536
 7322TIP3    H221931   2.460   6.450   4.621  1.3146  0.1390  0.0930
 7323TIP3   OH221932   2.702   0.017   1.025  0.2757 -0.1249 -0.2167
 7323TIP3    H121933   2.682   0.110   1.027 -0.0398 -0.1900  1.3864
 7323TIP3    H221934   2.729  -0.003   1.115 -0.5090 -1.7554 -0.3145
 7324TIP3   OH221935   2.671   3.343   5.749  0.1720 -0.1972 -0.2063
 7324TIP3    H121936   2.711   3.407   5.807  2.4170 -0.2461 -1.5786
 7324TIP3    H221937   2.659   3.389   5.666 -0.9108 -0.7403 -0.3752
 7325TIP3   OH221938   3.945   0.836   0.447 -0.0777 -0.1135 -0.5154
 7325TIP3    H121939   4.009   0.904   0.423  0.4451 -0.7233 -0.8647
 7325TIP3    H221940   3.890   0.826   0.369  0.4923 -0.8156 -0.8367
 7326TIP3   OH221941   0.028   1.994   1.928  0.1714 -0.4781 -0.0383
 7326TIP3    H121942  -0.003   1.911   1.892 -1.5189  0.0497  0.1004
 7326TIP3    H221943  -0.024   2.006   2.008 -0.7812  1.4453 -0.8783
 7327TIP3   OH221944   3.290   2.971   4.441 -0.0279  0.0120 -0.2797
 7327TIP3    H121945   3.369   2.977   4.388  1.4666  1.4222  1.9314
 7327TIP3    H221946   3.298   2.887   4.487 -0.4268 -0.3800 -0.9109
 7328TIP3   OH221947   1.593   3.833   4.483 -0.5581  0.5907 -0.1856
 7328TIP3    H121948   1.677   3.878   4.473 -0.1297  0.0131  0.6947
 7328TIP3    H221949   1.588   3.774   4.408  0.9746 -1.1371  0.9860
 7329TIP3   OH221950   3.390   5.942   0.313 -0.0259  0.1259 -0.0544
 7329TIP3    H121951   3.434   5.879   0.369  0.2558  1.1928  0.9657
 7329TIP3    H221952   3.451   5.957   0.241  0.5080  0.2609  0.4199
 7330TIP3   OH221953   2.225   1.402   4.631 -0.5933  0.1267  0.0930
 7330TIP3    H121954   2.244   1.466   4.699 -1.2467  2.4727 -1.7815
 7330TIP3    H221955   2.309   1.360   4.614  0.4502  2.2042 -0.2214
 7331TIP3   OH221956   2.298   6.029   0.656 -0.2156  0.2328 -0.4929
 7331TIP3    H121957   2.242   5.958   0.625  0.0510  0.0193 -0.4832
 7331TIP3    H221958   2.242   6.106   0.653 -0.3335  0.1255 -1.0448
 7332TIP3   OH221959   4.010   2.350   5.286 -0.3053 -0.5279  0.4932
 7332TIP3    H121960   4.081   2.302   5.244 -0.0216  1.6112 -1.7072
 7332TIP3    H221961   3.939   2.351   5.222 -0.3806  1.6865  0.5238
 7333TIP3   OH221962   5.693   1.275   3.810 -0.3981 -0.1198  0.3527
 7333TIP3    H121963   5.736   1.303   3.891 -0.0415 -1.6090  0.7028
 7333TIP3    H221964   5.762   1.274   3.744 -0.5954  0.6573  0.1261
 7334TIP3   OH221965   3.289   3.885   2.614 -0.4882 -0.3208 -0.1307
 7334TIP3    H121966   3.324   3.943   2.682  0.8503 -0.7452 -0.4417
 7334TIP3    H221967   3.205   3.925   2.590 -1.2918 -0.4666  2.1657
 7335TIP3   OH221968   6.865   1.880   5.476  0.7627 -0.4035  0.2066
 7335TIP3    H121969   6.842   1.931   5.554  1.2680  1.5225 -0.8414
 7335TIP3    H221970   6.805   1.806   5.477 -0.5998  0.6618  1.3371
 7336TIP3   OH221971   3.314   6.792   0.341 -0.2397 -0.1933 -0.1404
 7336TIP3    H121972   3.350   6.772   0.427 -0.7808 -1.0267 -0.0859
 7336TIP3    H221973   3.342   6.719   0.286  0.2704  0.4393 -0.7206
 7337TIP3   OH221974   6.749   0.770   1.767 -0.1447 -0.3996  0.3235
 7337TIP3    H121975   6.797   0.801   1.690 -0.8588 -0.8186 -0.3016
 7337TIP3    H221976   6.814   0.773   1.838  0.4098  0.3781 -0.1962
 7338TIP3   OH221977   0.884   3.999   3.853  0.2224  0.1362  0.1473
 7338TIP3    H121978   0.800   4.011   3.899 -0.1256 -0.6189 -0.2694
 7338TIP3    H221979   0.933   4.079   3.872 -1.6223  1.8436 -1.7954
 7339TIP3   OH221980   1.538   3.706   3.330  0.3469 -0.2832 -0.0736
 7339TIP3    H121981   1.603   3.769   3.297 -0.3100  1.3263  1.5351
 7339TIP3    H221982   1.454   3.749   3.317 -0.2987 -1.6284 -0.5541
 7340TIP3   OH221983   1.647   5.455   0.585 -0.6914 -0.4737  0.5824
 7340TIP3    H121984   1.612   5.497   0.664  2.7680  1.5945  1.1832
 7340TIP3    H221985   1.577   5.465   0.520 -1.8085  2.1406  2.0433
 7341TIP3   OH221986   2.158   4.057   0.693  0.2611 -0.2074  0.5844
 7341TIP3    H121987   2.169   4.055   0.789  1.4217  1.2015  0.5238
 7341TIP3    H221988   2.170   4.149   0.670 -2.2078 -0.1094 -0.7200
 7342TIP3   OH221989   0.326   5.354   5.117  0.4930  0.2654 -0.0304
 7342TIP3    H121990   0.276   5.404   5.052 -0.2753  0.3882  0.6257
 7342TIP3    H221991   0.355   5.276   5.071 -0.7012 -0.0214 -0.3379
 7343TIP3   OH221992   1.457   0.928   4.886 -0.3859 -0.3358 -0.0908
 7343TIP3    H121993   1.504   0.942   4.804 -0.2514  1.4716  0.2354
 7343TIP3    H221994   1.370   0.963   4.869 -0.5293 -0.4714  0.3617
 7344TIP3   OH221995   3.697   5.748   3.411  0.1522  0.2811  0.0450
 7344TIP3    H121996   3.688   5.653   3.397  2.3798 -0.6657  3.6418
 7344TIP3    H221997   3.615   5.772   3.455 -0.1180 -0.1542 -0.2049
 7345TIP3   OH221998   4.786   5.749   5.205 -0.8132  0.7455 -0.0276
 7345TIP3    H121999   4.775   5.810   5.278  0.2882 -0.5454  1.2862
 7345TIP3    H222000   4.702   5.750   5.160 -1.3279  2.0372  0.8973
 7346TIP3   OH222001   2.523   3.984   0.774 -0.0703 -0.4494 -0.2838
 7346TIP3    H122002   2.506   4.036   0.852 -0.3102 -2.0558  0.7742
 7346TIP3    H222003   2.598   3.930   0.796  0.2325 -0.5079 -1.3854
 7347TIP3   OH222004   7.072   1.281   2.387  0.0898 -0.5489  0.1616
 7347TIP3    H122005   7.149   1.230   2.410  1.1572  0.4968 -0.8911
 7347TIP3    H222006   7.100   1.332   2.311 -2.0624 -1.1254 -1.1056
 7348TIP3   OH222007   1.813   4.572   1.032  0.2715 -0.4131  0.3042
 7348TIP3    H122008   1.881   4.595   1.094  2.1553 -1.8146 -1.1049
 7348TIP3    H222009   1.795   4.652   0.983  1.7845 -0.2830 -0.0667
 7349TIP3   OH222010   4.864   4.184   4.756 -0.2089 -0.5487  0.1666
 7349TIP3    H122011   4.819   4.193   4.840 -0.2774  0.5095  0.0369
 7349TIP3    H222012   4.793   4.185   4.691 -0.0820 -0.0217  0.0289
 7350TIP3   OH222013   1.998   0.700   1.774  0.2551 -0.2683 -0.1048
 7350TIP3    H122014   1.996   0.747   1.690 -0.3207  1.0610  0.6211
 7350TIP3    H222015   2.081   0.727   1.815 -0.3217  0.5640  0.5452
 7351TIP3   OH222016   6.981   0.032   2.425 -0.2120  0.3353 -0.1624
 7351TIP3    H122017   6.993   0.051   2.518  0.2074 -1.3103  0.1618
 7351TIP3    H222018   7.043  -0.038   2.407  0.0499  0.9431 -1.8182
 7352TIP3   OH222019   2.186   2.477   1.128 -0.2572 -0.3513 -0.2609
 7352TIP3    H122020   2.211   2.538   1.059 -0.9046  0.5688  0.2914
 7352TIP3    H222021   2.225   2.394   1.103 -0.1814  0.0579 -1.5401
 7353TIP3   OH222022   3.277   4.340   2.799 -0.1382 -0.0164 -0.3155
 7353TIP3    H122023   3.369   4.345   2.826  0.2896  0.9612 -1.8302
 7353TIP3    H222024   3.241   4.426   2.820 -1.5226 -1.2033  2.7866
 7354TIP3   OH222025   3.409   4.828   5.807 -0.0596  0.0545  0.2383
 7354TIP3    H122026   3.495   4.792   5.785  0.2411 -0.2467  1.7545
 7354TIP3    H222027   3.421   4.867   5.894 -1.3364  0.4387  0.2655
 7355TIP3   OH222028   2.086   3.528   4.889  0.3446 -0.4712 -0.3052
 7355TIP3    H122029   2.158   3.583   4.919 -0.1868  0.8809 -1.4274
 7355TIP3    H222030   2.016   3.589   4.868 -0.3510 -1.5948 -1.3905
 7356TIP3   OH222031   1.975   1.040   5.186 -0.4908  0.2715 -0.1535
 7356TIP3    H122032   2.021   0.966   5.225 -0.1250  0.3268 -0.4794
 7356TIP3    H222033   1.954   1.097   5.260 -2.7472 -1.1940  0.4225
 7357TIP3   OH222034   0.255   0.621   1.744 -0.1621 -0.5853  0.1473
 7357TIP3    H122035   0.277   0.709   1.711 -0.5002 -0.3961  0.4248
 7357TIP3    H222036   0.330   0.598   1.799 -0.0271 -0.5144 -0.0021
 7358TIP3   OH222037   5.224   3.529   3.352  0.1383  0.4326  0.1369
 7358TIP3    H122038   5.198   3.590   3.282  1.3751  0.8397 -0.0006
 7358TIP3    H222039   5.171   3.555   3.427 -2.1201 -0.7916 -0.9386
 7359TIP3   OH222040   4.594   1.974   3.607 -0.2008  0.3590  0.0731
 7359TIP3    H122041   4.638   2.011   3.531  0.4800  0.2001  0.3842
 7359TIP3    H222042   4.602   1.879   3.596 -1.6457  0.2877 -0.5501
 7360TIP3   OH222043   6.195   0.096   1.521 -0.2459 -0.0792 -0.0448
 7360TIP3    H122044   6.131   0.043   1.567 -4.4081  4.4739  0.2064
 7360TIP3    H222045   6.167   0.093   1.429  0.2984  0.5846 -0.2415
 7361TIP3   OH222046   3.735   3.730   0.168  0.2828  0.2051  0.5826
 7361TIP3    H122047   3.779   3.799   0.118 -0.4666  1.5583  1.6959
 7361TIP3    H222048   3.703   3.669   0.102  1.1368  0.8080 -0.4277
 7362TIP3   OH222049   0.962   5.936   4.048  0.3508 -0.4661  0.4073
 7362TIP3    H122050   1.037   5.876   4.038  0.5175 -0.3078  0.6896
 7362TIP3    H222051   0.895   5.899   3.991  0.8283 -0.3143 -0.2653
 7363TIP3   OH222052   4.465   3.446   4.046  0.3195 -0.1413 -0.1051
 7363TIP3    H122053   4.449   3.532   4.008  1.1943  0.4374  0.8050
 7363TIP3    H222054   4.560   3.437   4.048  0.2502 -0.9067  0.2886
 7364TIP3   OH222055   1.107   2.719   5.012  0.6179 -0.1341 -0.3276
 7364TIP3    H122056   1.190   2.699   5.055  0.4810  1.9770  1.0721
 7364TIP3    H222057   1.130   2.735   4.921  1.8729  0.9034  0.1384
 7365TIP3   OH222058   6.807   4.817   2.740  0.0416 -0.0773 -0.1120
 7365TIP3    H122059   6.837   4.835   2.829  0.6561 -0.3332 -0.2601
 7365TIP3    H222060   6.867   4.867   2.684 -0.1726 -0.1311 -0.3901
 7366TIP3   OH222061   3.588   1.740   1.626  0.1209 -0.1044  1.1636
 7366TIP3    H122062   3.496   1.759   1.606  0.4675  1.7492  1.1238
 7366TIP3    H222063   3.621   1.697   1.548 -0.7529 -0.9370  1.2417
 7367TIP3   OH222064   2.603   2.396   5.580 -0.3175  0.3079 -0.1784
 7367TIP3    H122065   2.536   2.327   5.582 -0.7204  0.7043  0.4054
 7367TIP3    H222066   2.683   2.351   5.607 -0.6008  0.0822  0.3237
 7368TIP3   OH222067   0.104   5.207   5.631  0.2285  0.0402  0.0577
 7368TIP3    H122068   0.140   5.169   5.712 -0.4802  0.2935  0.5030
 7368TIP3    H222069   0.032   5.263   5.661  0.7972  1.1783 -0.6397
 7369TIP3   OH222070   3.100   3.854   5.494 -0.1942  0.0203 -0.1341
 7369TIP3    H122071   3.089   3.811   5.410 -0.2832  0.8260 -0.5427
 7369TIP3    H222072   3.189   3.832   5.521 -0.2801 -0.5137 -0.2761
 7370TIP3   OH222073   6.586   2.076   1.399  0.1637  0.1885 -0.2983
 7370TIP3    H122074   6.525   2.041   1.463  1.9759 -1.6608  0.5302
 7370TIP3    H222075   6.591   2.170   1.419 -1.6397  0.2138  0.1898
 7371TIP3   OH222076   3.385   3.516   1.246 -0.2308 -0.3330  0.8326
 7371TIP3    H122077   3.327   3.593   1.241 -1.8656 -1.5717 -0.6486
 7371TIP3    H222078   3.470   3.552   1.271 -1.2809  1.7626  1.6997
 7372TIP3   OH222079   5.612   1.427   3.518 -0.2403  0.1728 -0.5935
 7372TIP3    H122080   5.677   1.360   3.539 -1.5885 -1.0722 -0.2381
 7372TIP3    H222081   5.536   1.405   3.572 -1.0302  1.4999 -1.1086
 7373TIP3   OH222082   4.951   2.638   2.482  0.7160 -0.1809 -0.4088
 7373TIP3    H122083   4.922   2.700   2.549  1.2327  1.4240 -1.5944
 7373TIP3    H222084   5.046   2.632   2.494  0.8978  0.5694 -1.3067
 7374TIP3   OH222085   2.887   3.155   0.420 -0.2052 -0.1104 -0.2390
 7374TIP3    H122086   2.928   3.215   0.482  0.8475 -0.1439 -0.8895
 7374TIP3    H222087   2.959   3.122   0.367 -1.0856 -0.0104 -1.5472
 7375TIP3   OH222088   2.771   1.629   3.031 -0.4171 -0.0462  0.1761
 7375TIP3    H122089   2.837   1.601   2.968 -0.8129  1.1074 -0.7915
 7375TIP3    H222090   2.792   1.721   3.049  1.2152 -0.9288  3.7218
 7376TIP3   OH222091   1.385   4.525   5.524  0.0378 -0.0091  0.1191
 7376TIP3    H122092   1.457   4.574   5.485  1.4823  0.2977  2.9652
 7376TIP3    H222093   1.386   4.441   5.478  0.8035  0.7478 -1.3308
 7377TIP3   OH222094   0.379   3.726   5.602  0.5129 -0.3929 -0.5626
 7377TIP3    H122095   0.421   3.810   5.623  0.7768 -0.3202 -1.3519
 7377TIP3    H222096   0.438   3.686   5.538 -0.0464 -0.8056 -0.8196
 7378TIP3   OH222097   3.741   5.713   1.557 -0.3672  0.0809  0.2185
 7378TIP3    H122098   3.745   5.624   1.593  1.8538  0.5908  1.4009
 7378TIP3    H222099   3.719   5.768   1.632 -0.0187  0.6980 -0.1279
 7379TIP3   OH222100   4.040   2.813   4.914 -0.4987  0.1806 -0.2088
 7379TIP3    H122101   3.955   2.793   4.874 -0.4449  0.4398 -0.4495
 7379TIP3    H222102   4.104   2.785   4.849 -0.3997 -0.0642 -0.0033
 7380TIP3   OH222103   2.115   6.252   1.725 -0.3859  0.6294 -0.7542
 7380TIP3    H122104   2.036   6.276   1.676 -0.6972 -1.3419 -1.2937
 7380TIP3    H222105   2.167   6.201   1.664  0.3534  0.1782  0.2206
 7381TIP3   OH222106   4.820   6.277   0.834  0.6396 -0.1342 -0.2705
 7381TIP3    H122107   4.846   6.252   0.922  1.1047 -1.2715 -0.7138
 7381TIP3    H222108   4.740   6.227   0.817 -0.2180  1.0983 -0.0177
 7382TIP3   OH222109   1.653   0.333   5.631  0.3837 -0.5923  0.4798
 7382TIP3    H122110   1.632   0.309   5.541  1.2768 -0.7433  0.2986
 7382TIP3    H222111   1.571   0.367   5.667  0.2352  0.3850 -0.6933
 7383TIP3   OH222112   0.933   6.509   1.212 -0.6719 -0.1321 -0.8826
 7383TIP3    H122113   0.973   6.583   1.166 -1.3257 -0.3613 -1.8561
 7383TIP3    H222114   0.989   6.434   1.190  0.2355  0.1222  0.4475
 7384TIP3   OH222115   3.482   6.276   3.410 -0.1241  0.4107  0.2528
 7384TIP3    H122116   3.429   6.353   3.427 -1.1008 -0.1138 -0.2641
 7384TIP3    H222117   3.534   6.299   3.333 -0.8498  0.3598 -0.2628
 7385TIP3   OH222118   4.324   4.202   1.380  0.0476  0.0961  0.0349
 7385TIP3    H122119   4.356   4.205   1.470  1.2192 -1.4065 -0.2942
 7385TIP3    H222120   4.243   4.150   1.385  0.8984 -1.2767  0.0450
 7386TIP3   OH222121   1.632   0.537   1.632  0.4390 -0.0796  0.2883
 7386TIP3    H122122   1.560   0.549   1.693  1.9226  0.5093  2.0343
 7386TIP3    H222123   1.648   0.443   1.632 -0.0769 -0.1696  0.1868
 7387TIP3   OH222124   2.836   4.787   0.075  0.4237 -0.4846 -0.2034
 7387TIP3    H122125   2.795   4.750   0.153  0.8079  0.5835  0.5313
 7387TIP3    H222126   2.804   4.877   0.072  2.1919  0.1906  0.0361
 7388TIP3   OH222127   6.697   3.441   4.700  0.2478  0.6684  0.4074
 7388TIP3    H122128   6.785   3.403   4.696  0.0246  0.2530 -0.9942
 7388TIP3    H222129   6.690   3.474   4.789  2.1335  1.4396  0.3300
 7389TIP3   OH222130   5.576   1.642   0.587  0.2096 -0.1205  0.4247
 7389TIP3    H122131   5.500   1.640   0.529  1.1785 -0.6611 -0.8730
 7389TIP3    H222132   5.576   1.731   0.623  0.2666  0.6325 -1.3636
 7390TIP3   OH222133   6.633   2.123   0.392  0.1576  0.1009 -0.0443
 7390TIP3    H122134   6.696   2.193   0.373  0.1761  0.3599  0.9059
 7390TIP3    H222135   6.681   2.063   0.449  0.2436 -0.8746 -1.1059
 7391TIP3   OH222136   4.728   1.779   2.622  0.3540 -0.1673 -0.1135
 7391TIP3    H122137   4.775   1.862   2.614  1.5522 -0.5393  2.2355
 7391TIP3    H222138   4.640   1.799   2.592  0.7272  1.8515 -0.0338
 7392TIP3   OH222139   0.931   0.805   0.144 -0.8266 -0.0631  0.5519
 7392TIP3    H122140   1.005   0.866   0.144 -1.4002  0.6539  1.0674
 7392TIP3    H222141   0.969   0.721   0.170  0.6416 -0.8522 -3.4955
 7393TIP3   OH222142   3.947   3.349   0.114 -0.0833  0.0066  0.1490
 7393TIP3    H122143   3.941   3.283   0.045  0.3617  0.3211 -0.1930
 7393TIP3    H222144   3.877   3.326   0.175 -0.6503 -0.1245 -0.5377
 7394TIP3   OH222145   3.431   3.001   4.085  0.2991  0.2663 -0.0092
 7394TIP3    H122146   3.440   2.940   4.012  0.2301 -1.2587  1.2006
 7394TIP3    H222147   3.340   3.030   4.081  0.6197  1.1995 -1.2511
 7395TIP3   OH222148   5.840   4.364   4.330 -0.5771 -0.8375  0.4880
 7395TIP3    H122149   5.896   4.294   4.296  1.3125  1.0544 -0.5203
 7395TIP3    H222150   5.898   4.416   4.386 -1.4467  0.8619 -0.1142
 7396TIP3   OH222151   1.736   4.013   3.914  0.0183 -0.2350 -0.2288
 7396TIP3    H122152   1.763   3.975   3.830  0.3821  0.7218 -0.5538
 7396TIP3    H222153   1.643   4.034   3.901  0.6022  1.9941 -1.2105
 7397TIP3   OH222154   5.309   3.624   4.831 -0.1177  0.3214 -0.2706
 7397TIP3    H122155   5.301   3.529   4.820  0.4095  0.2618 -0.1800
 7397TIP3    H222156   5.381   3.635   4.893 -1.0768  0.7489  0.7759
 7398TIP3   OH222157   4.934   5.106   4.082  0.3220  0.4254 -0.5655
 7398TIP3    H122158   5.005   5.066   4.132 -0.3176 -0.3156 -0.2473
 7398TIP3    H222159   4.975   5.182   4.040  1.6442 -0.7397 -1.4623
 7399TIP3   OH222160   2.426   0.842   5.777 -0.0927  0.2214  0.5797
 7399TIP3    H122161   2.400   0.750   5.774 -0.0617  0.2205  0.2785
 7399TIP3    H222162   2.354   0.886   5.822 -0.3215  0.1206  0.3166
 7400TIP3   OH222163   0.989   2.570   1.552 -0.4531 -0.2252 -0.4192
 7400TIP3    H122164   0.914   2.543   1.499 -0.4491  1.9826 -1.7127
 7400TIP3    H222165   1.064   2.526   1.513 -0.5997  0.5686 -1.6537
 7401TIP3   OH222166   6.221   0.342   1.047  0.3807  0.2071 -0.4630
 7401TIP3    H122167   6.269   0.317   0.968 -0.4778 -0.1646 -0.8807
 7401TIP3    H222168   6.266   0.296   1.118  0.5144 -0.2974 -0.8704
 7402TIP3   OH222169   5.390   2.907   4.734 -0.0686  0.0711  0.0536
 7402TIP3    H122170   5.469   2.895   4.787 -1.1171  0.6758  1.8685
 7402TIP3    H222171   5.366   2.819   4.706  0.3931 -0.3173  0.8227
 7403TIP3   OH222172   4.896   3.969   5.527 -0.4996  0.3256 -0.3181
 7403TIP3    H122173   4.801   3.982   5.528 -0.4180  0.9919 -0.5268
 7403TIP3    H222174   4.908   3.879   5.497 -1.1603 -0.9922  2.9122
 7404TIP3   OH222175   0.120   6.833   4.919  0.6307 -0.2219  0.1782
 7404TIP3    H122176   0.029   6.802   4.921  0.4833  0.1516  2.8168
 7404TIP3    H222177   0.169   6.769   4.970  1.1978  1.2572  1.5981
 7405TIP3   OH222178   3.589   1.028   3.844  0.3540  0.8452  0.2457
 7405TIP3    H122179   3.551   1.105   3.886 -0.9948 -0.2849  1.1690
 7405TIP3    H222180   3.555   1.029   3.755  2.0920  2.4691 -0.4710
 7406TIP3   OH222181   5.839   1.849   3.509 -0.7577 -0.4076 -0.0742
 7406TIP3    H122182   5.906   1.808   3.455  1.2695  0.5519  1.5951
 7406TIP3    H222183   5.819   1.785   3.577 -0.1813 -0.0143  0.4763
 7407TIP3   OH222184   5.779   3.878   0.984  0.1371 -0.2033 -0.6316
 7407TIP3    H122185   5.691   3.909   0.965  0.0163 -1.6346 -2.7249
 7407TIP3    H222186   5.835   3.956   0.974 -0.6056  0.2072 -1.7329
 7408TIP3   OH222187   0.850   5.232   1.951 -0.6077  0.3434 -0.4380
 7408TIP3    H122188   0.894   5.297   2.007 -0.6287 -0.7590  0.9208
 7408TIP3    H222189   0.799   5.284   1.889  0.8849  1.6425 -0.6596
 7409TIP3   OH222190   6.239   6.652   3.493 -1.0115  0.2203  0.0075
 7409TIP3    H122191   6.288   6.601   3.428  0.2205  1.4734 -0.1058
 7409TIP3    H222192   6.185   6.588   3.538  1.0717 -1.3626  0.4296
 7410TIP3   OH222193   1.282   1.274   5.730  0.1136 -0.3572 -0.2969
 7410TIP3    H122194   1.308   1.233   5.648 -0.2564 -0.6630 -0.2668
 7410TIP3    H222195   1.249   1.201   5.783  2.1437 -0.5011  0.8779
 7411TIP3   OH222196   2.779   2.606   1.375  0.2681  0.1127 -0.1510
 7411TIP3    H122197   2.870   2.631   1.388  0.1670 -0.0021  0.8205
 7411TIP3    H222198   2.744   2.595   1.463 -0.8254  0.6538 -0.4994
 7412TIP3   OH222199   6.121   0.354   5.465  0.2929  0.4831 -0.1421
 7412TIP3    H122200   6.060   0.414   5.509  0.8650 -1.0301  2.9482
 7412TIP3    H222201   6.064   0.291   5.420 -0.3105  1.8929 -1.4409
 7413TIP3   OH222202   5.710   0.104   3.956  0.2955  0.2486 -0.3031
 7413TIP3    H122203   5.782   0.163   3.980 -0.1845  0.8981 -0.4347
 7413TIP3    H222204   5.632   0.160   3.958 -0.3085 -0.6151  0.5197
 7414TIP3   OH222205   4.912   1.590   4.663  0.3459  0.2068  0.6591
 7414TIP3    H122206   4.974   1.563   4.596  1.3213  0.9351  1.2405
 7414TIP3    H222207   4.958   1.658   4.712 -0.6221  0.2043  1.6035
 7415TIP3   OH222208   3.982   4.290   2.623  0.0385  0.1648 -0.3567
 7415TIP3    H122209   4.013   4.377   2.649  2.5515 -0.6750 -0.1851
 7415TIP3    H222210   3.950   4.251   2.704 -1.4323  1.0229 -0.5024
 7416TIP3   OH222211   5.776   4.985   2.699 -0.4032 -0.0377  0.2624
 7416TIP3    H122212   5.747   5.065   2.656 -1.8524 -0.5515  0.2459
 7416TIP3    H222213   5.796   5.011   2.789  2.5861  1.0387 -0.5613
 7417TIP3   OH222214   6.167   4.276   1.284  0.3017 -0.0417  0.1609
 7417TIP3    H122215   6.187   4.186   1.261 -1.8783 -0.0012 -2.3821
 7417TIP3    H222216   6.073   4.275   1.306 -0.1949  1.8007 -1.5340
 7418TIP3   OH222217   0.241   3.112   0.217  0.8430  0.0893  0.5705
 7418TIP3    H122218   0.239   3.017   0.202 -1.4554  0.2003 -0.1991
 7418TIP3    H222219   0.278   3.121   0.305  1.0691 -1.5189  0.6831
 7419TIP3   OH222220   3.783   1.273   4.411 -0.7449  0.1600  0.0762
 7419TIP3    H122221   3.709   1.307   4.362 -0.2917 -2.1114 -2.4124
 7419TIP3    H222222   3.858   1.325   4.380 -0.8626  0.6191  0.5409
 7420TIP3   OH222223   2.010   6.358   4.204  0.2262  0.1909 -0.5524
 7420TIP3    H122224   2.001   6.446   4.241 -0.4020 -0.1885  0.2075
 7420TIP3    H222225   2.074   6.369   4.134  0.9364  1.0600  0.2004
 7421TIP3   OH222226   4.849   3.817   3.671 -0.0421  0.0142 -0.3662
 7421TIP3    H122227   4.766   3.800   3.628  0.3848 -2.6716 -0.3292
 7421TIP3    H222228   4.832   3.799   3.764  0.5214 -0.4749 -0.3467
 7422TIP3   OH222229   0.652   4.870   0.499  0.2027  0.1554  0.4890
 7422TIP3    H122230   0.734   4.827   0.521  1.9163  2.3311 -1.2681
 7422TIP3    H222231   0.656   4.954   0.544 -1.5428 -0.0541  1.1291
 7423TIP3   OH222232   2.950   2.688   0.895  0.0101 -0.3013  0.3891
 7423TIP3    H122233   2.940   2.602   0.937 -0.3310 -0.8088 -0.6873
 7423TIP3    H222234   2.898   2.681   0.814 -0.1627  0.9830  0.3759
 7424TIP3   OH222235   3.687   5.841   2.099  0.4318 -0.4504  0.1534
 7424TIP3    H122236   3.597   5.811   2.091  0.4167 -0.6798  1.0911
 7424TIP3    H222237   3.682   5.936   2.091 -0.2299 -0.2142  2.6125
 7425TIP3   OH222238   6.527   0.217   0.212  0.7453  1.1309  0.3124
 7425TIP3    H122239   6.530   0.180   0.300  1.6454 -0.2890 -0.2766
 7425TIP3    H222240   6.455   0.169   0.169  0.2313  1.8987  0.2894
 7426TIP3   OH222241   0.926   5.186   4.803  0.5374 -0.7629 -0.3635
 7426TIP3    H122242   0.918   5.202   4.897  0.0150 -2.2467 -0.1244
 7426TIP3    H222243   1.014   5.218   4.781  2.5179 -4.2320  1.5502
 7427TIP3   OH222244   7.006   0.657   1.771  0.6201 -0.2985 -0.2797
 7427TIP3    H122245   7.063   0.635   1.844  0.5857  1.3074  0.2635
 7427TIP3    H222246   7.062   0.652   1.694  1.3149  0.5269  0.1634
 7428TIP3   OH222247   3.544   6.361   1.791  0.3300  0.0642  0.0635
 7428TIP3    H122248   3.516   6.422   1.859  1.7660 -0.0609  0.7954
 7428TIP3    H222249   3.575   6.284   1.838 -0.9092 -1.0354 -0.8271
 7429TIP3   OH222250   1.823   0.254   5.231 -0.5824 -0.0138 -0.7041
 7429TIP3    H122251   1.899   0.243   5.174 -0.1736 -2.2390  0.1721
 7429TIP3    H222252   1.768   0.178   5.212 -1.1390 -0.0104  0.7865
 7430TIP3   OH222253   6.379   3.554   0.690 -0.2730 -0.2647  0.6182
 7430TIP3    H122254   6.404   3.472   0.648 -2.4468 -0.0643 -1.2764
 7430TIP3    H222255   6.289   3.540   0.720 -0.6617  1.3850  0.3304
 7431TIP3   OH222256   2.071  -0.024   2.210  0.2315 -0.3927  0.2167
 7431TIP3    H122257   2.042  -0.018   2.302 -0.0295  0.5774  0.0823
 7431TIP3    H222258   2.073   0.067   2.180  1.1182 -0.6419 -0.5007
 7432TIP3   OH222259   4.494   3.400   1.101 -0.2196 -0.0994 -0.2958
 7432TIP3    H122260   4.474   3.329   1.040 -0.9690 -1.4123  1.4201
 7432TIP3    H222261   4.551   3.360   1.167  0.5403  1.2719 -0.0750
 7433TIP3   OH222262   3.311   2.619   4.179 -0.4112  0.7485  0.0130
 7433TIP3    H122263   3.406   2.628   4.190 -0.2760  0.0714 -0.5445
 7433TIP3    H222264   3.281   2.581   4.262 -0.2938  1.5257  0.4286
 7434TIP3   OH222265   1.823   2.750   2.855 -0.5557 -0.4882 -0.0593
 7434TIP3    H122266   1.729   2.757   2.843 -0.8362 -0.8998  1.6847
 7434TIP3    H222267   1.839   2.657   2.872  0.2500 -0.5139 -0.8362
 7435TIP3   OH222268   3.955   2.715   3.070  0.2756  0.4165  0.5676
 7435TIP3    H122269   3.868   2.706   3.108  0.6183 -1.7806  0.9999
 7435TIP3    H222270   3.940   2.751   2.982 -1.0948 -0.1114  0.5672
 7436TIP3   OH222271   0.977   1.643   4.105 -0.1657 -0.7470 -0.1479
 7436TIP3    H122272   1.026   1.691   4.172  3.2164 -1.2242 -2.0155
 7436TIP3    H222273   0.954   1.709   4.040 -1.8687 -0.5795  0.5778
 7437TIP3   OH222274   1.160   0.425   3.957  0.4704 -0.1477 -0.5264
 7437TIP3    H122275   1.068   0.444   3.934 -0.3975 -2.2845  0.8894
 7437TIP3    H222276   1.193   0.375   3.883 -0.2167 -1.2524 -0.1068
 7438TIP3   OH222277   6.384   4.548   2.556 -0.7699  0.4004 -0.3423
 7438TIP3    H122278   6.470   4.507   2.554 -0.6128  0.7327 -0.7139
 7438TIP3    H222279   6.364   4.560   2.649 -1.1015 -1.0735 -0.1903
 7439TIP3   OH222280   0.776   5.732   1.684 -0.1954  0.2116 -0.0486
 7439TIP3    H122281   0.840   5.670   1.718 -0.7847 -0.8236 -0.7442
 7439TIP3    H222282   0.775   5.804   1.747  0.3963 -0.5657  0.8754
 7440TIP3   OH222283   6.407   4.757   1.914  0.2079 -0.0187 -0.3397
 7440TIP3    H122284   6.502   4.760   1.920  0.2115 -0.8572  0.1886
 7440TIP3    H222285   6.389   4.735   1.822  0.4954  0.9170 -0.6244
 7441TIP3   OH222286   7.083   1.180   4.476  0.6068  0.1305 -0.8687
 7441TIP3    H122287   7.171   1.166   4.510  0.5010 -0.6827 -0.9271
 7441TIP3    H222288   7.076   1.276   4.468  1.2703  0.2319 -0.3174
 7442TIP3   OH222289   0.577   1.471   2.391  0.4194 -0.0470 -0.1110
 7442TIP3    H122290   0.604   1.521   2.315  0.0583 -1.0308 -0.9070
 7442TIP3    H222291   0.516   1.529   2.438 -2.0130 -0.5943 -2.3631
 7443TIP3   OH222292   0.728   0.755   4.971  0.0072 -0.4612  0.1064
 7443TIP3    H122293   0.681   0.799   4.901 -0.3757 -0.6906  0.2127
 7443TIP3    H222294   0.732   0.820   5.042  1.4072  0.1763 -0.5239
 7444TIP3   OH222295   1.953   0.411   1.384 -0.2055 -0.0233  0.6564
 7444TIP3    H122296   1.971   0.423   1.478  0.2848 -0.4629  0.6217
 7444TIP3    H222297   1.875   0.356   1.382 -1.9476  2.2743  0.8110
 7445TIP3   OH222298   5.234   1.960   4.782  0.0909  0.1386 -0.1385
 7445TIP3    H122299   5.289   2.022   4.829 -2.2206  1.6266  0.7772
 7445TIP3    H222300   5.221   1.999   4.696 -2.3850  1.7343  0.8421
 7446TIP3   OH222301   3.370   4.133   3.078  0.2507  0.0493  0.0634
 7446TIP3    H122302   3.425   4.103   3.150  0.7469  0.6155 -0.0779
 7446TIP3    H222303   3.347   4.053   3.030  0.2402 -0.2834  0.6180
 7447TIP3   OH222304   3.887   2.278   1.931  0.6390 -0.1442 -0.5284
 7447TIP3    H122305   3.802   2.247   1.902  0.9894 -1.5104 -0.1456
 7447TIP3    H222306   3.872   2.370   1.954 -1.3283 -0.9135  1.7497
 7448TIP3   OH222307   3.418   4.950   3.299 -0.8085 -0.5224 -0.4824
 7448TIP3    H122308   3.487   4.893   3.333 -0.0438  0.5575 -0.1625
 7448TIP3    H222309   3.349   4.948   3.366 -0.1481  0.0632  0.2322
 7449TIP3   OH222310   6.302   2.365   0.818  0.4630 -0.3286  0.5018
 7449TIP3    H122311   6.247   2.367   0.739  0.1918  0.6967  0.6986
 7449TIP3    H222312   6.311   2.457   0.843  3.0765 -0.3527 -0.0623
 7450TIP3   OH222313   6.683   5.168   3.061  0.0152 -0.0151 -0.2909
 7450TIP3    H122314   6.636   5.208   3.135  0.5118 -2.6488  1.5773
 7450TIP3    H222315   6.752   5.231   3.040 -0.9692  1.4182  0.5739
 7451TIP3   OH222316   1.466   2.243   1.905 -0.1929 -0.3883 -0.0826
 7451TIP3    H122317   1.425   2.240   1.992 -0.7269  0.3845 -0.2938
 7451TIP3    H222318   1.461   2.335   1.880  0.5835 -0.4912 -0.6447
 7452TIP3   OH222319   4.155   3.712   5.561 -0.5481  0.0942 -0.0479
 7452TIP3    H122320   4.061   3.704   5.571 -0.3637  0.1005  2.0285
 7452TIP3    H222321   4.191   3.645   5.620  0.7515  0.4370 -0.4215
 7453TIP3   OH222322   4.723   5.321   2.544 -0.3330 -0.3274 -0.3191
 7453TIP3    H122323   4.643   5.280   2.512 -0.8000  0.2151  0.1276
 7453TIP3    H222324   4.715   5.319   2.639 -0.7034  1.3765 -0.2740
 7454TIP3   OH222325   6.558   1.273   0.341  0.0611  0.0485 -0.3994
 7454TIP3    H122326   6.564   1.277   0.245  0.3315 -0.2693 -0.3963
 7454TIP3    H222327   6.617   1.342   0.371 -0.2046  0.3065 -0.4642
 7455TIP3   OH222328   6.709   0.269   5.720 -0.0774 -0.0128 -0.1768
 7455TIP3    H122329   6.657   0.237   5.646  1.4026 -1.0733 -0.8210
 7455TIP3    H222330   6.721   0.192   5.776  2.1429 -0.2799 -0.9013
 7456TIP3   OH222331   5.485   3.215   1.322  0.0737 -0.4601 -0.1720
 7456TIP3    H122332   5.422   3.148   1.296  0.0970  0.1627 -1.9316
 7456TIP3    H222333   5.476   3.221   1.418 -1.5633 -1.3230 -0.2461
 7457TIP3   OH222334   3.956   6.545   4.452  0.3365  0.1980  0.4668
 7457TIP3    H122335   4.041   6.589   4.465 -0.9279  2.9290  0.0885
 7457TIP3    H222336   3.977   6.468   4.399  2.7615 -0.0528  1.6309
 7458TIP3   OH222337   5.122   2.201   5.433  0.0906  0.2483  0.5845
 7458TIP3    H122338   5.162   2.186   5.518 -0.0412  0.8920  0.7607
 7458TIP3    H222339   5.087   2.115   5.408 -0.9103  0.2917  1.7128
 7459TIP3   OH222340   3.294   2.629   5.250 -0.6888  0.5523 -0.0858
 7459TIP3    H122341   3.297   2.719   5.218 -1.5340  1.0260  1.0875
 7459TIP3    H222342   3.211   2.594   5.218 -1.4491  0.9680  1.3617
 7460TIP3   OH222343   3.332   3.368   5.410 -0.3518 -0.3524 -0.0621
 7460TIP3    H122344   3.383   3.435   5.456 -0.4870 -0.4588  0.2488
 7460TIP3    H222345   3.365   3.285   5.445 -0.7359 -0.4204  0.1429
 7461TIP3   OH222346   3.931   1.817   4.259  0.6058  0.0013  0.0817
 7461TIP3    H122347   3.863   1.843   4.322  2.4589  2.9994  1.0264
 7461TIP3    H222348   3.941   1.722   4.273 -0.4851  0.1920  2.8829
 7462TIP3   OH222349   3.971   6.459   2.407  0.2457 -0.1771 -0.3932
 7462TIP3    H122350   3.896   6.506   2.444  0.1976 -0.3881 -0.2247
 7462TIP3    H222351   3.967   6.372   2.446  1.0633  0.0698  0.2726
 7463TIP3   OH222352   2.430   1.703   0.345 -0.4439 -0.0779 -0.1854
 7463TIP3    H122353   2.486   1.633   0.313  1.0567  0.9543  0.0974
 7463TIP3    H222354   2.453   1.714   0.437 -0.8659  0.5987 -0.1500
 7464TIP3   OH222355   6.121   6.508   2.111 -0.2115 -0.2291  0.2644
 7464TIP3    H122356   6.102   6.500   2.018 -0.8987  0.8116  0.2932
 7464TIP3    H222357   6.036   6.501   2.154  0.1301 -0.9489  0.8369
 7465TIP3   OH222358   4.505   4.871   5.807 -0.3634 -0.4464  0.3002
 7465TIP3    H122359   4.515   4.960   5.839  2.2186 -0.5199 -0.1293
 7465TIP3    H222360   4.554   4.817   5.868 -0.4251 -1.3407 -0.4108
 7466TIP3   OH222361   2.928   5.808   4.121 -0.0697 -0.6843 -0.1252
 7466TIP3    H122362   2.899   5.872   4.185  0.1050  0.2044 -0.9043
 7466TIP3    H222363   2.984   5.748   4.169  1.8970  1.2579  0.1392
 7467TIP3   OH222364   6.941   5.998   4.229 -0.2703 -0.2041 -0.1442
 7467TIP3    H122365   6.947   6.088   4.260 -0.4944 -0.9045  2.1689
 7467TIP3    H222366   6.965   6.002   4.137 -2.1713  2.4842 -0.6223
 7468TIP3   OH222367   2.078   2.508   4.376  0.3295 -0.0487 -0.1780
 7468TIP3    H122368   2.139   2.554   4.318  1.7289 -1.5540  0.0007
 7468TIP3    H222369   2.129   2.490   4.455 -1.1605  0.8642  1.0433
 7469TIP3   OH222370   6.337   3.340   5.532 -0.2017  0.0533 -0.6260
 7469TIP3    H122371   6.245   3.326   5.554 -0.5434  0.0255 -1.9893
 7469TIP3    H222372   6.371   3.252   5.514  0.1344  0.0472  0.0362
 7470TIP3   OH222373   0.054   5.628   2.850 -0.1677 -0.0569  0.5754
 7470TIP3    H122374   0.078   5.719   2.833 -1.0510  0.0106 -0.4479
 7470TIP3    H222375   0.111   5.601   2.922  1.8112  0.5637 -0.6614
 7471TIP3   OH222376   4.895   2.367   0.539  0.6466  0.2529  0.1792
 7471TIP3    H122377   4.890   2.395   0.630  0.1501 -1.6847  0.8045
 7471TIP3    H222378   4.988   2.370   0.518  0.6680  1.7798  0.3516
 7472TIP3   OH222379   6.665   4.303   0.669  0.4405  0.1971 -0.1402
 7472TIP3    H122380   6.698   4.214   0.657 -0.9011 -0.7280  2.2484
 7472TIP3    H222381   6.590   4.309   0.609  0.8747 -0.0729 -0.7157
 7473TIP3   OH222382   2.310   0.615   4.824  0.0356  0.2439 -0.0530
 7473TIP3    H122383   2.292   0.612   4.918  1.8903  1.1727  0.3818
 7473TIP3    H222384   2.367   0.539   4.808 -1.5624 -0.8587 -0.7840
 7474TIP3   OH222385   1.966   1.996   0.766  0.4660  0.1874  0.6667
 7474TIP3    H122386   1.936   1.928   0.825 -0.3585 -0.5205 -0.5104
 7474TIP3    H222387   2.034   1.955   0.713  0.3419  0.4240  0.3140
 7475TIP3   OH222388   6.244   6.463   5.353  0.5586  0.0597  0.1889
 7475TIP3    H122389   6.156   6.449   5.316  0.2276  3.1891 -0.4356
 7475TIP3    H222390   6.299   6.401   5.305 -0.7847  0.2685 -1.7595
 7476TIP3   OH222391   0.745   1.478   5.652  0.2896  0.7927  0.1594
 7476TIP3    H122392   0.732   1.451   5.561 -1.1290  3.5955 -0.5585
 7476TIP3    H222393   0.677   1.432   5.701  1.3845 -1.1357 -0.0224
 7477TIP3   OH222394   2.176   5.462   4.158 -0.8552  0.0556 -0.0448
 7477TIP3    H122395   2.101   5.414   4.193 -0.0157 -1.3820 -0.1319
 7477TIP3    H222396   2.138   5.521   4.094 -2.0034 -0.0334  0.5161
 7478TIP3   OH222397   0.126   4.180   1.951  0.6076 -0.1022  0.1329
 7478TIP3    H122398   0.184   4.132   1.892  0.6077 -0.4008  0.3735
 7478TIP3    H222399   0.068   4.112   1.987 -1.1137  0.4222 -1.5028
 7479TIP3   OH222400   0.564   3.992   2.855  0.9620 -0.5223 -0.0036
 7479TIP3    H122401   0.524   4.040   2.782 -1.3047 -0.9894  0.8527
 7479TIP3    H222402   0.520   4.025   2.933  0.5484 -2.7536  0.7722
 7480TIP3   OH222403   5.602   2.986   1.533 -0.2027 -0.3905 -0.3034
 7480TIP3    H122404   5.559   2.928   1.470 -0.0906 -0.5837 -0.2000
 7480TIP3    H222405   5.533   3.008   1.595  0.0821 -1.4676  0.4122
 7481TIP3   OH222406   2.250   5.412   0.042 -0.4352 -0.1035  0.1590
 7481TIP3    H122407   2.186   5.373   0.101 -2.0368  1.0651 -0.7319
 7481TIP3    H222408   2.266   5.345  -0.024 -1.0059 -0.2753  0.1925
 7482TIP3   OH222409   0.320   4.019   4.017 -0.0564  0.0787 -0.1421
 7482TIP3    H122410   0.270   4.098   3.997  1.1089  0.6650 -0.8818
 7482TIP3    H222411   0.291   3.993   4.105 -2.3711 -0.2128 -0.9237
 7483TIP3   OH222412   2.149   1.643   0.874  0.1279  0.3175 -0.3229
 7483TIP3    H122413   2.166   1.569   0.815  1.3028  0.6297 -0.4039
 7483TIP3    H222414   2.147   1.604   0.961 -1.5422 -0.1358 -0.5313
 7484TIP3   OH222415   0.593   4.306   2.055 -0.7361  0.2280  0.0262
 7484TIP3    H122416   0.521   4.349   2.101  1.3050  1.4394  2.3039
 7484TIP3    H222417   0.560   4.218   2.036 -2.3957  0.3127  2.1181
 7485TIP3   OH222418   3.890   6.311   1.917 -0.0609  0.0131 -0.1363
 7485TIP3    H122419   3.930   6.333   2.001 -1.2272  2.0612 -0.0469
 7485TIP3    H222420   3.813   6.260   1.939  0.7608 -1.2842 -0.1358
 7486TIP3   OH222421   1.102   3.085   1.600 -0.0816  0.1359  0.3198
 7486TIP3    H122422   1.096   2.990   1.606 -1.2826  0.0292 -1.6757
 7486TIP3    H222423   1.096   3.104   1.507 -3.7713  2.2986  0.7645
 7487TIP3   OH222424   0.393   0.039   4.798  0.7289 -0.1395 -0.1683
 7487TIP3    H122425   0.472   0.079   4.761  1.5026 -0.4759  1.0771
 7487TIP3    H222426   0.344   0.008   4.721  1.6781  0.2863 -0.9701
 7488TIP3   OH222427   2.727   3.413   4.588 -0.6855  0.7420 -0.6932
 7488TIP3    H122428   2.706   3.497   4.549  2.2460  1.4513 -0.9267
 7488TIP3    H222429   2.757   3.359   4.515 -0.9769  0.0167 -0.2901
 7489TIP3   OH222430   1.615   3.656   4.250  0.1142  0.1300  0.4864
 7489TIP3    H122431   1.527   3.678   4.218 -0.8014 -1.8348  1.5162
 7489TIP3    H222432   1.674   3.703   4.190 -1.5966  2.0364  0.1576
 7490TIP3   OH222433   2.753  -0.001   3.338 -0.3562 -0.0344 -0.2861
 7490TIP3    H122434   2.813   0.026   3.268 -1.4963 -0.4132 -1.4583
 7490TIP3    H222435   2.766   0.064   3.407  1.6331 -0.3080 -0.3462
 7491TIP3   OH222436   1.130   6.659   5.453 -0.2203  0.0598 -0.0644
 7491TIP3    H122437   1.064   6.591   5.464  1.0027 -1.2478 -0.5054
 7491TIP3    H222438   1.088   6.725   5.398 -1.1804 -0.7007 -0.2674
 7492TIP3   OH222439   4.156   3.417   1.386 -0.1111  0.4405 -0.3639
 7492TIP3    H122440   4.164   3.387   1.477  0.6931  0.1517 -0.5243
 7492TIP3    H222441   4.103   3.496   1.392  0.1126  0.5439  0.3913
 7493TIP3   OH222442   5.244   6.214   2.205  0.2948 -0.9889  0.3809
 7493TIP3    H122443   5.207   6.259   2.129  0.6305 -2.2938 -0.5817
 7493TIP3    H222444   5.326   6.176   2.173 -0.0265 -2.3712  1.1018
 7494TIP3   OH222445   1.949   6.071   5.509  0.1404  0.2187 -0.2665
 7494TIP3    H122446   1.940   6.032   5.596  0.4258 -0.9722 -0.7409
 7494TIP3    H222447   2.035   6.114   5.510  0.1992  0.0953  0.0017
 7495TIP3   OH222448   3.321   3.219   3.586 -0.5121 -0.5567 -0.1687
 7495TIP3    H122449   3.413   3.243   3.591 -0.1619 -1.6806 -0.8160
 7495TIP3    H222450   3.286   3.269   3.512 -0.2862 -0.5437 -0.2664
 7496TIP3   OH222451   6.023   1.241   2.181  0.1196 -0.1749  0.2385
 7496TIP3    H122452   6.084   1.171   2.207  1.5435  0.5372 -1.0768
 7496TIP3    H222453   6.016   1.233   2.086  0.4003  1.5350  0.0494
 7497TIP3   OH222454   4.644   1.797   3.214 -0.1951  0.2103 -0.0253
 7497TIP3    H122455   4.636   1.732   3.283 -1.0491 -0.3865 -0.6672
 7497TIP3    H222456   4.587   1.766   3.144  0.0584  1.1940 -0.7014
 7498TIP3   OH222457   3.338   0.226   2.869 -0.3131  0.1295 -0.0042
 7498TIP3    H122458   3.429   0.217   2.896 -0.4755 -1.9119  0.0067
 7498TIP3    H222459   3.325   0.156   2.805 -1.6590  0.9106 -0.6293
 7499TIP3   OH222460   7.180   6.463   0.936 -0.2227 -0.0860 -0.1847
 7499TIP3    H122461   7.215   6.536   0.986 -0.6361 -0.9226  1.3870
 7499TIP3    H222462   7.226   6.468   0.852  1.3416  0.7039  0.6640
 7500TIP3   OH222463   3.640   3.861   1.288  0.0958  0.3806  0.2695
 7500TIP3    H122464   3.674   3.772   1.281 -0.5881  0.1127  0.2840
 7500TIP3    H222465   3.699   3.913   1.233 -0.7155 -0.4309 -1.4565
 7501TIP3   OH222466   5.281   2.039   2.118 -0.0760  0.3622  0.2458
 7501TIP3    H122467   5.251   1.948   2.119  0.4672  0.1687 -0.3764
 7501TIP3    H222468   5.207   2.089   2.153 -1.4297 -0.0152 -1.9113
 7502TIP3   OH222469   0.612   5.417   4.145  0.0651  0.5330  0.6754
 7502TIP3    H122470   0.568   5.465   4.075  1.1718  1.9812  0.9375
 7502TIP3    H222471   0.562   5.439   4.224 -0.8391 -0.6552  0.4763
 7503TIP3   OH222472   0.514   3.513   4.948  0.2291 -0.4572 -0.7118
 7503TIP3    H122473   0.517   3.605   4.973  1.1439 -1.1303  2.0371
 7503TIP3    H222474   0.573   3.507   4.873 -0.5164  1.3021 -1.4828
 7504TIP3   OH222475   5.102   5.990   0.153  0.4819 -0.0001  0.1128
 7504TIP3    H122476   5.178   5.933   0.167  0.9064  0.2541 -1.1072
 7504TIP3    H222477   5.091   5.994   0.058 -0.0630  1.2849  0.2083
 7505TIP3   OH222478   1.642   1.259   1.825  0.4390  0.1974  0.2550
 7505TIP3    H122479   1.594   1.326   1.776 -1.9889 -1.3988  0.2566
 7505TIP3    H222480   1.714   1.234   1.767 -0.7231  0.3219 -1.3227
 7506TIP3   OH222481   3.512   0.475   3.303 -1.0515  0.2514 -0.3222
 7506TIP3    H122482   3.517   0.400   3.362 -1.6222 -0.9022 -1.7015
 7506TIP3    H222483   3.466   0.542   3.353 -0.6543 -0.3488  0.8817
 7507TIP3   OH222484   7.032   2.214   1.830  0.1467 -0.0021  0.2280
 7507TIP3    H122485   6.983   2.205   1.912 -0.0299  1.6678  0.3380
 7507TIP3    H222486   7.105   2.152   1.839  1.4092  1.6689  2.6612
 7508TIP3   OH222487   1.097   3.646   0.151  0.2243 -0.0026  0.2268
 7508TIP3    H122488   1.161   3.575   0.158 -0.2903 -0.3206  2.3876
 7508TIP3    H222489   1.126   3.710   0.215 -0.7635  0.5520  0.1319
 7509TIP3   OH222490   5.942   4.367   3.737  0.1981 -0.2317  0.3827
 7509TIP3    H122491   5.954   4.441   3.797  1.3337 -1.1176  1.2856
 7509TIP3    H222492   6.021   4.315   3.748 -0.9879 -2.0831  0.4436
 7510TIP3   OH222493   3.934   2.923   1.707 -0.7779 -0.0426 -1.0498
 7510TIP3    H122494   3.929   2.883   1.620 -0.9933 -1.2678 -0.5000
 7510TIP3    H222495   4.025   2.951   1.715 -0.2106 -1.8087 -0.9004
 7511TIP3   OH222496   7.172   5.355   1.623 -0.0491  0.3962  0.0962
 7511TIP3    H122497   7.122   5.348   1.705 -1.4591 -0.9958 -0.8419
 7511TIP3    H222498   7.166   5.269   1.583  0.7224  1.0183 -1.4355
 7512TIP3   OH222499   5.705   6.538   5.767 -0.4047 -0.1705 -0.6245
 7512TIP3    H122500   5.693   6.464   5.828 -0.6554 -0.3852 -0.9339
 7512TIP3    H222501   5.790   6.574   5.792 -0.3932 -0.4077 -0.3014
 7513TIP3   OH222502   4.343   3.291   3.838  0.3524  0.0134  0.0518
 7513TIP3    H122503   4.389   3.294   3.754 -0.7475  3.0745 -0.5977
 7513TIP3    H222504   4.397   3.344   3.897 -0.0469 -0.1890  0.6101
 7514TIP3   OH222505   6.982   5.988   5.372  0.0934 -0.3375 -0.0310
 7514TIP3    H122506   7.018   5.987   5.461 -1.0849  0.6315  0.4950
 7514TIP3    H222507   7.059   5.990   5.315  0.8738 -0.0202  0.9965
 7515TIP3   OH222508   4.815   0.475   5.166 -0.1020  0.1681  0.0132
 7515TIP3    H122509   4.910   0.462   5.155  0.3168  0.7439  2.2571
 7515TIP3    H222510   4.803   0.570   5.157 -0.3580  0.1639  0.2821
 7516TIP3   OH222511   2.264   5.531   5.318  0.5004 -0.1888  0.1576
 7516TIP3    H122512   2.299   5.585   5.247 -0.1618  0.3767  0.2578
 7516TIP3    H222513   2.340   5.516   5.374  0.8452  0.0664 -0.2257
 7517TIP3   OH222514   4.222   4.386   1.740  0.1385 -0.1609  0.1580
 7517TIP3    H122515   4.293   4.349   1.688 -0.4746 -1.6211  0.3074
 7517TIP3    H222516   4.211   4.326   1.813 -0.8005  0.4171  0.5157
 7518TIP3   OH222517   7.175   5.157   4.757  0.1729  0.5857 -0.5621
 7518TIP3    H122518   7.151   5.138   4.847  0.0030  0.9370 -0.5319
 7518TIP3    H222519   7.224   5.080   4.728  0.9476  0.8109  0.0926
 7519TIP3   OH222520   3.723   3.150   5.356 -0.1602  0.3290  0.2709
 7519TIP3    H122521   3.710   3.151   5.261 -0.3878  0.8583  0.2985
 7519TIP3    H222522   3.783   3.223   5.372 -0.0689  0.1968  0.5257
 7520TIP3   OH222523   6.692   5.328   3.545 -0.1182  0.1885 -0.0470
 7520TIP3    H122524   6.618   5.354   3.599  0.5899 -0.2846  1.1945
 7520TIP3    H222525   6.655   5.311   3.459 -1.2271  1.2862  0.1938
 7521TIP3   OH222526   1.795   0.850   4.315  0.1942 -0.7774 -0.4241
 7521TIP3    H122527   1.878   0.807   4.333  0.7459  0.6592  0.6610
 7521TIP3    H222528   1.744   0.838   4.394 -0.5390 -1.3925 -0.9753
 7522TIP3   OH222529   0.036   2.551   1.149  0.0459  0.1263  0.8375
 7522TIP3    H122530   0.103   2.517   1.089  1.2075  2.3624  0.7390
 7522TIP3    H222531  -0.041   2.497   1.133  1.1053 -0.9911 -0.7909
 7523TIP3   OH222532   0.324   4.911   3.619 -0.3204  0.7044  0.4106
 7523TIP3    H122533   0.337   4.902   3.713  0.3001  1.7193  0.4399
 7523TIP3    H222534   0.238   4.953   3.611 -0.7911 -0.2185  0.4721
 7524TIP3   OH222535   6.160   2.500   0.346  0.1603  0.0361 -0.2356
 7524TIP3    H122536   6.077   2.541   0.320  0.1895 -0.1175 -0.5792
 7524TIP3    H222537   6.219   2.574   0.363 -0.1467  0.1529  0.3522
 7525TIP3   OH222538   0.897   2.752   1.316 -0.2855 -0.0949 -0.3852
 7525TIP3    H122539   0.971   2.718   1.266 -0.6413  1.0529 -1.7745
 7525TIP3    H222540   0.858   2.675   1.357  1.3470 -0.7907 -0.0228
 7526TIP3   OH222541   5.748   1.998   3.725 -0.3562  0.4173  0.2705
 7526TIP3    H122542   5.736   2.093   3.722 -0.7350  0.3932  0.8432
 7526TIP3    H222543   5.767   1.973   3.635  3.8375  1.5501  0.6001
 7527TIP3   OH222544   1.279   1.987   4.565  0.1675 -0.6090  0.0234
 7527TIP3    H122545   1.323   1.944   4.492  1.6865 -1.3911  1.3344
 7527TIP3    H222546   1.221   1.920   4.601 -1.7168  0.2255 -1.3083
 7528TIP3   OH222547   1.163   1.704   0.941 -0.7736  0.2708  0.4014
 7528TIP3    H122548   1.216   1.652   1.000  0.6812  1.7623  0.4785
 7528TIP3    H222549   1.091   1.737   0.995  0.8123  2.0311  1.5376
 7529TIP3   OH222550   5.362   0.657   4.379  0.1550  0.2165 -0.3970
 7529TIP3    H122551   5.385   0.717   4.451  2.5084 -1.0317 -0.0149
 7529TIP3    H222552   5.377   0.708   4.300 -1.0080  1.1236 -0.0708
 7530TIP3   OH222553   3.787   4.881   4.395 -0.3727 -0.0733 -0.7581
 7530TIP3    H122554   3.828   4.797   4.376  2.3975  1.5191 -2.4800
 7530TIP3    H222555   3.809   4.898   4.487 -1.9763 -1.6783 -0.0232
 7531TIP3   OH222556   4.170   2.325   1.376 -0.5507  0.5657 -0.3131
 7531TIP3    H122557   4.191   2.358   1.463  1.9646 -1.6563  0.0598
 7531TIP3    H222558   4.232   2.369   1.318 -1.2211  0.9278 -0.7674
 7532TIP3   OH222559   7.227   1.727   3.083  0.0549  0.0626 -0.5061
 7532TIP3    H122560   7.238   1.692   2.995 -1.9485 -0.5866 -0.5461
 7532TIP3    H222561   7.178   1.809   3.071  1.1404  0.7975 -0.0932
 7533TIP3   OH222562   5.369   3.602   1.887 -0.5109 -0.3637  0.2664
 7533TIP3    H122563   5.354   3.695   1.872  1.3692 -0.0269  0.1526
 7533TIP3    H222564   5.314   3.580   1.962 -2.0245  0.4825 -0.5439
 7534TIP3   OH222565   6.977   4.082   0.361 -0.1954  0.1606 -0.0610
 7534TIP3    H122566   7.051   4.143   0.365  0.0945  0.0139 -2.0298
 7534TIP3    H222567   7.012   3.999   0.393  0.1642  0.3951  0.1525
 7535TIP3   OH222568   0.405   6.705   2.966  0.0579  0.2309 -0.0665
 7535TIP3    H122569   0.438   6.760   2.895  0.5839  0.3625  0.2773
 7535TIP3    H222570   0.321   6.743   2.989  1.0149  1.7497  1.1038
 7536TIP3   OH222571   4.669   1.650   1.430 -0.2900  0.4684 -0.2500
 7536TIP3    H122572   4.663   1.574   1.489 -2.5989  0.4426 -0.4035
 7536TIP3    H222573   4.690   1.612   1.345  0.8122  0.2708  0.0874
 7537TIP3   OH222574   6.314   5.589   1.860  0.0407  0.2662 -0.0267
 7537TIP3    H122575   6.235   5.641   1.879 -0.7203 -1.0031  0.3893
 7537TIP3    H222576   6.386   5.649   1.879 -0.8075  1.5863 -0.7724
 7538TIP3   OH222577   3.364   4.861   4.044 -0.1826  0.1788  0.2542
 7538TIP3    H122578   3.301   4.798   4.078  1.6359 -1.4884  0.7193
 7538TIP3    H222579   3.423   4.879   4.118  0.9816  0.2409 -0.6618
 7539TIP3   OH222580   1.103   3.883   3.025 -0.7574  0.3366  0.7612
 7539TIP3    H122581   1.157   3.814   3.064 -1.9254 -2.2682 -1.8710
 7539TIP3    H222582   1.014   3.863   3.054 -1.1659  0.4395 -0.3791
 7540TIP3   OH222583   1.644   1.927   3.773 -0.7654  0.5864  0.1407
 7540TIP3    H122584   1.740   1.921   3.781 -0.6680 -0.0997 -1.2725
 7540TIP3    H222585   1.622   2.010   3.816  0.1895 -0.2567  2.4279
 7541TIP3   OH222586   1.871   5.050   5.855  0.2413 -0.3201  0.6477
 7541TIP3    H122587   1.835   5.012   5.775 -0.2776 -0.5720  0.9938
 7541TIP3    H222588   1.864   5.144   5.843  1.1504 -0.3256 -0.0467
 7542TIP3   OH222589   3.549   5.209   4.553 -0.2846  0.5293  0.2257
 7542TIP3    H122590   3.617   5.242   4.495 -1.4559  0.3757 -1.2795
 7542TIP3    H222591   3.595   5.190   4.635  1.4963  0.3203 -0.7735
 7543TIP3   OH222592   7.176   3.842   0.425  0.2440 -0.1652 -0.1120
 7543TIP3    H122593   7.183   3.747   0.426  2.3187 -0.0505  0.9588
 7543TIP3    H222594   7.223   3.870   0.347 -1.1050 -0.0270 -0.9022
 7544TIP3   OH222595   1.467   5.812   4.887  0.3660  0.4875  0.8009
 7544TIP3    H122596   1.394   5.754   4.865 -0.8541  2.1445  0.3639
 7544TIP3    H222597   1.535   5.790   4.823 -0.6763  0.6157 -0.3782
 7545TIP3   OH222598   5.899   3.312   4.188 -0.0541  0.0364  0.2539
 7545TIP3    H122599   5.901   3.271   4.102 -1.2341 -0.7710  0.5929
 7545TIP3    H222600   5.854   3.249   4.244  1.7523  0.0067  1.7639
 7546TIP3   OH222601   1.772   6.033   2.469  0.5331 -0.0533  0.1898
 7546TIP3    H122602   1.773   6.054   2.562  0.6291 -1.3517  0.5084
 7546TIP3    H222603   1.843   6.086   2.432  0.6354  0.3188  0.8979
 7547TIP3   OH222604   5.127   2.520   4.138 -0.1854 -0.2547 -0.0175
 7547TIP3    H122605   5.056   2.467   4.176 -1.2122  0.9134 -0.2419
 7547TIP3    H222606   5.107   2.610   4.165  1.2711  0.0986 -0.0295
 7548TIP3   OH222607   6.486   3.764   0.902  0.0123  0.0351 -0.1655
 7548TIP3    H122608   6.541   3.843   0.902  0.4715 -0.2467 -1.9908
 7548TIP3    H222609   6.408   3.788   0.853 -0.4933 -0.2591  0.4683
 7549TIP3   OH222610   4.697   5.393   1.432 -0.7450 -0.0042 -0.4526
 7549TIP3    H122611   4.615   5.353   1.405 -0.1999 -0.4489 -1.4887
 7549TIP3    H222612   4.682   5.487   1.425 -0.8700 -0.1007 -1.5789
 7550TIP3   OH222613   1.376   6.682   0.230 -0.5990 -0.4994  0.5056
 7550TIP3    H122614   1.310   6.615   0.248 -0.7159 -0.7373 -0.7450
 7550TIP3    H222615   1.332   6.765   0.248 -0.8063 -0.7032  0.9686
 7551TIP3   OH222616   3.690   1.758   0.694  0.2568 -0.2733  0.1578
 7551TIP3    H122617   3.669   1.699   0.766  0.4998 -2.1716 -1.2576
 7551TIP3    H222618   3.768   1.721   0.653 -0.5250  0.0697 -1.7802
 7552TIP3   OH222619   7.061   2.607   5.162  0.1909  0.6227 -0.0686
 7552TIP3    H122620   6.987   2.649   5.117  0.4723  1.7557  0.4769
 7552TIP3    H222621   7.136   2.661   5.138  0.8762 -0.5654 -0.6866
 7553TIP3   OH222622  -0.006   1.770   3.920 -0.5826 -0.0881 -0.3800
 7553TIP3    H122623  -0.008   1.809   4.007 -0.5482 -2.9810  1.0119
 7553TIP3    H222624   0.087   1.764   3.898 -0.3951 -1.9751  0.7265
 7554TIP3   OH222625   0.480   0.994   1.858 -0.1810 -0.1276 -0.4542
 7554TIP3    H122626   0.552   0.968   1.915 -0.2102  1.2680  0.2695
 7554TIP3    H222627   0.516   1.064   1.804 -1.0544  0.7933  0.1187
 7555TIP3   OH222628   3.976   4.984   5.497  0.2670  0.1076  0.0432
 7555TIP3    H122629   3.923   4.955   5.422  0.2506 -0.0657  0.1204
 7555TIP3    H222630   4.036   5.048   5.461  0.0042  0.3050 -0.0480
 7556TIP3   OH222631   5.596   3.489   3.561  0.4108  0.5037  0.5819
 7556TIP3    H122632   5.650   3.417   3.595  1.0896  0.4793 -0.5052
 7556TIP3    H222633   5.639   3.515   3.480  0.7010  2.7567  1.3846
 7557TIP3   OH222634   0.522   2.237   0.256  0.5897  0.4388 -0.7023
 7557TIP3    H122635   0.558   2.185   0.328 -0.3246 -0.1521 -0.6520
 7557TIP3    H222636   0.504   2.323   0.295  1.9552  0.7737 -0.7448
 7558TIP3   OH222637   6.053   4.747   3.315  0.5583 -0.4903 -0.0209
 7558TIP3    H122638   6.017   4.697   3.388  1.3661 -2.1433 -0.7013
 7558TIP3    H222639   6.017   4.705   3.237  2.7113 -1.2595 -0.6708
 7559TIP3   OH222640   3.447   2.635   2.430 -0.1651  0.2780  0.2636
 7559TIP3    H122641   3.417   2.725   2.443 -1.3717  0.0432 -0.6919
 7559TIP3    H222642   3.423   2.615   2.340  0.6317 -0.8127  0.2718
 7560TIP3   OH222643   3.237   0.362   0.405  0.1096 -0.4151  0.3660
 7560TIP3    H122644   3.214   0.273   0.377  1.2212 -0.9829  1.1807
 7560TIP3    H222645   3.322   0.352   0.448  0.7861  1.2301 -0.5263
 7561TIP3   OH222646   1.388   3.386   0.660 -0.0468 -0.2612  0.1122
 7561TIP3    H122647   1.456   3.392   0.728  0.2769  0.7668 -0.2834
 7561TIP3    H222648   1.310   3.423   0.701  0.1506  0.3667 -0.0728
 7562TIP3   OH222649   3.046   0.725   1.731  0.1707 -0.4517 -0.1226
 7562TIP3    H122650   3.070   0.761   1.817 -0.9160 -3.2968  1.5032
 7562TIP3    H222651   3.033   0.802   1.676  3.1230  1.4616  1.5661
 7563TIP3   OH222652   3.810   1.492   1.082  0.0256  0.1734 -0.1539
 7563TIP3    H122653   3.905   1.503   1.082 -0.0925  1.4025  0.4709
 7563TIP3    H222654   3.792   1.438   1.159  0.1691  0.5592  0.1555
 7564TIP3   OH222655   3.059   3.049   1.465 -1.0561  0.1357  0.1012
 7564TIP3    H122656   2.983   3.008   1.507 -0.2998  1.5369  3.1108
 7564TIP3    H222657   3.119   3.068   1.537  2.3359 -1.0868 -2.1560
 7565TIP3   OH222658   6.766   4.439   1.847  0.0543 -0.1075  0.8740
 7565TIP3    H122659   6.795   4.521   1.807 -0.1851 -0.4506 -0.0176
 7565TIP3    H222660   6.674   4.432   1.823 -0.2405 -0.0694  1.9346
 7566TIP3   OH222661   4.183   3.992   1.509 -0.1941 -0.2006  0.3873
 7566TIP3    H122662   4.111   3.933   1.487 -1.4999  1.3789  0.1788
 7566TIP3    H222663   4.195   3.981   1.603 -0.9613 -0.2512  0.4894
 7567TIP3   OH222664   4.979   2.855   4.809 -0.2349  0.1850  0.3821
 7567TIP3    H122665   5.047   2.854   4.877  0.1394 -0.3363  0.0066
 7567TIP3    H222666   4.897   2.860   4.858 -0.0515 -1.6805  0.9695
 7568TIP3   OH222667   0.830   2.914   1.052 -0.5933  0.3681 -0.0707
 7568TIP3    H122668   0.911   2.872   1.022  0.4107  1.1113  1.4594
 7568TIP3    H222669   0.860   2.983   1.111 -2.3778  0.1835  1.1219
 7569TIP3   OH222670   6.532   5.351   5.444 -0.7403  0.3924  0.3014
 7569TIP3    H122671   6.569   5.291   5.509 -0.9197 -0.9621 -0.7995
 7569TIP3    H222672   6.601   5.416   5.430  1.3872 -2.0277 -1.6509
 7570TIP3   OH222673   6.064   0.011   4.439  0.5744  0.4772 -0.6653
 7570TIP3    H122674   5.987  -0.030   4.399 -0.6541  1.6737  0.3582
 7570TIP3    H222675   6.042   0.104   4.444  1.9583  0.7961 -0.0328
 7571TIP3   OH222676   5.673   4.770   3.454 -0.2207  0.1358 -0.4777
 7571TIP3    H122677   5.701   4.679   3.438  1.2679  0.4220  0.3111
 7571TIP3    H222678   5.687   4.814   3.371 -0.7992 -0.3174 -0.8209
 7572TIP3   OH222679   3.021   4.848   4.287  0.2231 -0.3881 -0.0094
 7572TIP3    H122680   3.003   4.810   4.373 -2.1941 -0.3035 -0.4243
 7572TIP3    H222681   3.081   4.785   4.246 -0.4363 -1.6301  0.8731
 7573TIP3   OH222682   5.576   0.641   0.190  0.2242  0.0195  0.1163
 7573TIP3    H122683   5.571   0.678   0.102 -0.5624 -0.6144 -0.1099
 7573TIP3    H222684   5.518   0.695   0.243  1.9963  1.4926  0.6684
 7574TIP3   OH222685   3.547   1.390   5.463  0.3846  0.0073 -0.5615
 7574TIP3    H122686   3.465   1.342   5.468  1.3503 -1.5937  0.6507
 7574TIP3    H222687   3.564   1.399   5.369 -1.3021  0.6570 -0.8420
 7575TIP3   OH222688   3.242   0.667   1.993 -0.1748 -0.2868 -0.4558
 7575TIP3    H122689   3.175   0.608   2.029 -0.9171  0.1467 -1.0936
 7575TIP3    H222690   3.214   0.754   2.021  0.9746 -0.2126  0.5735
 7576TIP3   OH222691   0.190   2.513   5.377  0.7472  0.3567  1.0004
 7576TIP3    H122692   0.182   2.489   5.285 -1.0274 -0.5669  1.3478
 7576TIP3    H222693   0.269   2.567   5.381  0.7915  0.5288 -1.0719
 7577TIP3   OH222694   5.731   0.136   0.755  0.5799  0.4176  0.2271
 7577TIP3    H122695   5.638   0.158   0.743  0.0946  0.5266  3.3979
 7577TIP3    H222696   5.743   0.054   0.708 -0.9146  0.7689 -0.8413
 7578TIP3   OH222697   4.728   3.357   0.014  0.1591  0.0358 -0.4215
 7578TIP3    H122698   4.643   3.315   0.028  0.3162 -0.3461 -0.6063
 7578TIP3    H222699   4.792   3.288   0.027  0.4865  0.4791  0.4004
 7579TIP3   OH222700   0.472   5.968   1.687 -0.2387 -0.2019 -0.3990
 7579TIP3    H122701   0.548   5.928   1.731  0.2041 -0.6217 -1.4969
 7579TIP3    H222702   0.465   6.055   1.727 -0.8152 -1.0885  1.5849
 7580TIP3   OH222703   0.805  -0.028   3.015 -0.0203 -0.2796  0.0073
 7580TIP3    H122704   0.715  -0.009   2.988 -0.0026 -0.3667 -0.1156
 7580TIP3    H222705   0.846   0.058   3.022 -0.3301 -0.1885  0.8490
 7581TIP3   OH222706   2.612   1.111   2.071 -0.3163  0.1544 -0.1602
 7581TIP3    H122707   2.664   1.174   2.120 -1.4787 -0.1336  1.5313
 7581TIP3    H222708   2.521   1.139   2.085 -0.7762 -1.0458 -0.5722
 7582TIP3   OH222709   1.974   5.278   4.227  0.0281  0.2691 -0.0633
 7582TIP3    H122710   1.990   5.236   4.312 -1.2931 -3.1524 -1.3039
 7582TIP3    H222711   1.921   5.214   4.179 -0.5010  2.6776 -2.9767
 7583TIP3   OH222712   2.486   1.578   4.319 -0.2413 -0.3517 -0.6652
 7583TIP3    H122713   2.427   1.622   4.258 -1.1209  0.0448  0.4289
 7583TIP3    H222714   2.466   1.617   4.404  1.5792 -0.2650 -0.2452
 7584TIP3   OH222715   3.289   1.771   1.678  0.2960  0.1434 -0.4124
 7584TIP3    H122716   3.327   1.702   1.732  1.3777  0.6161 -0.5417
 7584TIP3    H222717   3.244   1.829   1.740  0.7367  0.1797 -0.1245
 7585TIP3   OH222718   0.717   5.001   2.013 -0.6780  0.1038 -0.5427
 7585TIP3    H122719   0.770   5.079   2.002  1.6002 -1.2366  0.3148
 7585TIP3    H222720   0.739   4.945   1.939  0.2344 -1.0270  0.5260
 7586TIP3   OH222721   3.950   2.092   3.872 -0.3354 -0.2025  0.1379
 7586TIP3    H122722   3.961   2.156   3.802 -1.0296  1.4273  1.4480
 7586TIP3    H222723   4.028   2.036   3.866 -0.4936 -0.2459 -2.0221
 7587TIP3   OH222724   1.225   4.131   3.102  0.8313  0.3992 -0.1060
 7587TIP3    H122725   1.203   4.044   3.069  1.0104  0.4741 -0.4221
 7587TIP3    H222726   1.205   4.126   3.196 -5.1740  1.8761 -0.9032
 7588TIP3   OH222727   4.067   0.102   1.869 -0.1048  0.1239  0.2721
 7588TIP3    H122728   3.998   0.038   1.858  2.7015 -3.1325 -0.0862
 7588TIP3    H222729   4.045   0.148   1.950 -1.9587 -1.6844  0.8643
 7589TIP3   OH222730   4.553   1.967   2.848  0.0240 -0.1737  0.1594
 7589TIP3    H122731   4.488   1.899   2.831 -0.7931  0.7109 -0.3748
 7589TIP3    H222732   4.530   2.002   2.934 -0.3710  0.3140 -0.1427
 7590TIP3   OH222733   5.797   2.513   5.661 -0.2125 -0.3591 -0.0699
 7590TIP3    H122734   5.861   2.585   5.663  0.9850 -1.3416 -1.4068
 7590TIP3    H222735   5.841   2.443   5.613 -2.3837 -0.9978 -1.2432
 7591TIP3   OH222736   5.306   3.868   3.762 -0.7817 -0.3875 -0.1775
 7591TIP3    H122737   5.336   3.801   3.700 -0.0852 -0.6831  0.4651
 7591TIP3    H222738   5.262   3.934   3.707 -0.9624 -1.0794 -0.8792
 7592TIP3   OH222739   2.226   5.226   0.697 -0.5762  0.3990 -0.0566
 7592TIP3    H122740   2.167   5.278   0.642  1.8432  1.6551 -1.6628
 7592TIP3    H222741   2.271   5.168   0.635  0.4179  0.0250  0.9895
 7593TIP3   OH222742   5.206   4.826   0.523  0.1835 -0.5529 -0.0392
 7593TIP3    H122743   5.214   4.898   0.460 -1.3870  0.2855  0.6649
 7593TIP3    H222744   5.117   4.793   0.510  0.7803 -2.2337 -0.1659
 7594TIP3   OH222745   4.982   3.067   4.607  0.5144  0.0169  0.0405
 7594TIP3    H122746   4.990   2.997   4.672  0.8433 -0.0668 -0.0851
 7594TIP3    H222747   5.071   3.102   4.600  0.2298  0.8674  0.5582
 7595TIP3   OH222748   1.211   0.613   2.408 -0.1706 -0.0753 -0.1281
 7595TIP3    H122749   1.121   0.585   2.387  0.0628  0.1771 -1.5563
 7595TIP3    H222750   1.266   0.562   2.349  0.7148 -0.7966  1.2767
 7596TIP3   OH222751   5.598   6.228   2.685 -0.0443 -0.5682  0.3192
 7596TIP3    H122752   5.686   6.266   2.686  0.3899 -1.4585 -1.1293
 7596TIP3    H222753   5.612   6.134   2.699 -0.7812 -0.7006  0.2256
 7597TIP3   OH222754   4.008   6.007   3.050  0.0015  0.2562  0.6065
 7597TIP3    H122755   4.075   6.061   3.091 -0.2269  0.1457  1.1339
 7597TIP3    H222756   3.974   5.953   3.121 -1.7370  1.3976  0.6934
 7598TIP3   OH222757   1.447   4.236   5.772  0.2206  0.6488 -0.1354
 7598TIP3    H122758   1.517   4.206   5.830  0.5617 -0.6958 -1.2016
 7598TIP3    H222759   1.488   4.239   5.685 -0.9912 -0.0090 -0.7448
 7599TIP3   OH222760   6.623   1.551   3.550  0.3316  0.0154 -0.4509
 7599TIP3    H122761   6.616   1.456   3.547  1.0241 -0.0280 -0.9748
 7599TIP3    H222762   6.595   1.574   3.639  0.1574 -0.6716 -0.3203
 7600TIP3   OH222763   3.067   4.259   0.583  0.0584  0.0861  0.0846
 7600TIP3    H122764   3.148   4.305   0.606  0.0282  0.1653  0.0321
 7600TIP3    H222765   3.047   4.207   0.661 -0.6223  1.1692  0.6614
 7601TIP3   OH222766   0.488   6.285   2.149  0.4147 -0.1921  0.0896
 7601TIP3    H122767   0.436   6.215   2.189  1.3777 -0.2405  1.3205
 7601TIP3    H222768   0.453   6.366   2.188 -0.8465  0.0695 -1.4984
 7602TIP3   OH222769   3.545   5.232   3.644 -0.2606  0.2430  0.2693
 7602TIP3    H122770   3.579   5.253   3.557  1.9299 -1.6120  0.5746
 7602TIP3    H222771   3.620   5.245   3.702 -1.6852  1.4871  1.9435
 7603TIP3   OH222772   0.253   1.358   0.249  0.2768  0.1699 -1.1254
 7603TIP3    H122773   0.227   1.266   0.242  0.2274  0.2038 -1.3762
 7603TIP3    H222774   0.330   1.357   0.306 -0.4240  0.0955 -0.1590
 7604TIP3   OH222775   4.857   2.589   4.956  0.5659  1.2250  0.0016
 7604TIP3    H122776   4.930   2.527   4.949  1.7287  2.4208  0.8240
 7604TIP3    H222777   4.804   2.574   4.878  0.9330 -0.6318  0.0817
 7605TIP3   OH222778   2.817   0.615   1.610  0.0124 -0.0932  0.0863
 7605TIP3    H122779   2.870   0.621   1.689 -0.3767 -0.9821  0.4266
 7605TIP3    H222780   2.802   0.522   1.598 -0.0200  0.0402 -0.9887
 7606TIP3   OH222781   3.605   5.813   3.962  0.4478 -0.0270 -0.1414
 7606TIP3    H122782   3.569   5.848   3.881  0.5832 -0.3280 -0.3304
 7606TIP3    H222783   3.700   5.820   3.952  0.4739 -0.4304 -0.1693
 7607TIP3   OH222784   2.932   1.408   0.465  0.4160 -0.0479 -0.5073
 7607TIP3    H122785   2.899   1.490   0.502  0.2882  0.0909 -0.9186
 7607TIP3    H222786   2.860   1.346   0.477  0.2613  0.0742 -0.7832
 7608TIP3   OH222787   0.489   4.315   4.076  0.3457  0.3555 -0.5680
 7608TIP3    H122788   0.526   4.227   4.066 -1.7655 -0.5141 -1.2807
 7608TIP3    H222789   0.468   4.342   3.987 -1.1428  0.5905 -0.1650
 7609TIP3   OH222790   1.433   1.682   4.686 -0.0674  0.3528 -0.8209
 7609TIP3    H122791   1.432   1.630   4.767  1.2739  1.2419 -0.1919
 7609TIP3    H222792   1.344   1.714   4.678 -0.3774 -0.2524 -0.0272
 7610TIP3   OH222793   2.868   0.045   1.706 -0.4914  0.4073 -0.2775
 7610TIP3    H122794   2.885   0.079   1.619  0.7979  1.6117  0.3872
 7610TIP3    H222795   2.955   0.026   1.741 -0.9248  0.6112  0.9801
 7611TIP3   OH222796   1.772   5.880   1.580  1.2149  0.3092 -0.3463
 7611TIP3    H122797   1.841   5.919   1.526  1.0755  0.0191 -0.7382
 7611TIP3    H222798   1.811   5.875   1.667  0.8623  2.3300 -0.0213
 7612TIP3   OH222799   5.370   3.361   0.103 -0.2932 -0.1970  0.2806
 7612TIP3    H122800   5.372   3.453   0.128  2.1341 -0.1535  0.0971
 7612TIP3    H222801   5.334   3.361   0.014  0.9129  0.7148 -0.2269
 7613TIP3   OH222802   3.695   5.433   3.805  0.0898  0.3998  0.2485
 7613TIP3    H122803   3.636   5.386   3.864 -0.4453 -1.1407 -1.4186
 7613TIP3    H222804   3.643   5.508   3.774  0.1018  0.7669  1.0846
 7614TIP3   OH222805   6.945   3.956   0.039  0.6730 -0.9358 -0.1992
 7614TIP3    H122806   7.002   4.030   0.058  0.5922 -0.5666 -1.2906
 7614TIP3    H222807   6.901   3.980  -0.043 -1.6143 -0.8739  0.9533
 7615TIP3   OH222808   5.029   2.776   1.066 -0.0326  0.4069 -0.0354
 7615TIP3    H122809   5.039   2.871   1.055  1.3175  0.0436 -2.7406
 7615TIP3    H222810   5.018   2.764   1.161  1.8807  3.0945  0.6548
 7616TIP3   OH222811   7.125   1.432   0.071  0.4697 -0.3179  0.0760
 7616TIP3    H122812   7.151   1.342   0.090 -0.4178 -0.7261 -0.5730
 7616TIP3    H222813   7.144   1.444  -0.022 -1.4181 -0.5679 -0.3705
 7617TIP3   OH222814   2.194   5.999   4.661 -0.4951  0.2148 -0.1817
 7617TIP3    H122815   2.227   5.974   4.575  1.2694  0.7774  0.2923
 7617TIP3    H222816   2.191   5.917   4.711  0.7594  0.2187 -0.0707
 7618TIP3   OH222817   6.805   0.647   2.365 -0.1489  0.8071  0.0037
 7618TIP3    H122818   6.815   0.563   2.410  0.7623  1.3272  0.8262
 7618TIP3    H222819   6.747   0.698   2.422 -0.9772  0.6303 -0.6662
 7619TIP3   OH222820   4.318   5.729   5.717  0.4708  0.0723  0.0841
 7619TIP3    H122821   4.331   5.640   5.684 -1.1063 -0.4536  0.7969
 7619TIP3    H222822   4.255   5.719   5.788  1.5795  1.5521  1.3268
 7620TIP3   OH222823   4.739   3.529   5.470 -0.1418 -0.0606 -0.6416
 7620TIP3    H122824   4.775   3.462   5.528 -2.1878 -1.0878 -0.4877
 7620TIP3    H222825   4.729   3.486   5.386 -2.5576 -0.3903 -0.2569
 7621TIP3   OH222826   0.244   4.090   0.070 -0.1094 -0.1022  0.0030
 7621TIP3    H122827   0.322   4.043   0.042 -0.2249  0.9398 -2.2672
 7621TIP3    H222828   0.277   4.166   0.119  0.1339 -1.3114  1.8077
 7622TIP3   OH222829   5.341   1.699   4.864  0.1538 -0.1371 -0.4611
 7622TIP3    H122830   5.326   1.784   4.821 -1.0597  0.0312  0.2715
 7622TIP3    H222831   5.335   1.635   4.793  1.4946  0.3858 -1.1012
 7623TIP3   OH222832   3.133   1.871   3.930  0.2742  0.0364 -0.0323
 7623TIP3    H122833   3.088   1.890   3.848  0.1755 -0.3206 -0.0634
 7623TIP3    H222834   3.139   1.775   3.932  1.0053  0.0743 -0.0196
 7624TIP3   OH222835   1.722   0.521   5.220  0.0800 -0.0265  0.0338
 7624TIP3    H122836   1.781   0.445   5.216 -0.3077 -0.3837  0.8109
 7624TIP3    H222837   1.690   0.531   5.130  0.4962 -0.4927 -0.1742
 7625TIP3   OH222838   0.152   1.666   0.094 -0.2949 -0.3586 -0.1711
 7625TIP3    H122839   0.126   1.711   0.014  1.4061  1.7159  0.3465
 7625TIP3    H222840   0.186   1.581   0.065 -0.7431 -0.0919 -1.5056
 7626TIP3   OH222841   1.129   6.339   2.716 -0.1337  0.0038 -0.0070
 7626TIP3    H122842   1.164   6.425   2.693  0.1019  0.2868  1.2941
 7626TIP3    H222843   1.087   6.307   2.636 -1.3413  1.8843 -0.1921
 7627TIP3   OH222844   5.618   1.245   4.432  0.1734  0.1279 -0.1861
 7627TIP3    H122845   5.651   1.313   4.372  1.7395 -0.0682  0.4046
 7627TIP3    H222846   5.564   1.189   4.377  0.5260  0.6928 -1.1371
 7628TIP3   OH222847   3.598   2.895   0.337 -0.0804 -0.2310  0.0103
 7628TIP3    H122848   3.600   2.806   0.301 -1.3739  0.4569 -1.8703
 7628TIP3    H222849   3.509   2.925   0.324  0.3689  1.4176  0.4939
 7629TIP3   OH222850   3.751   3.197   2.739  0.3035  0.1807  0.2590
 7629TIP3    H122851   3.714   3.262   2.800  0.3364  0.5974 -0.1604
 7629TIP3    H222852   3.747   3.240   2.654  0.4933 -0.3063  0.0054
 7630TIP3   OH222853   6.019   3.743   2.482  0.2769 -0.5090  0.3702
 7630TIP3    H122854   6.047   3.801   2.554  0.9156 -1.2422  0.7212
 7630TIP3    H222855   5.931   3.775   2.459 -0.1879 -0.6255  1.8725
 7631TIP3   OH222856   3.645   0.362   0.282 -0.0047  0.0625 -0.8405
 7631TIP3    H122857   3.740   0.359   0.280  0.0324 -0.7514  0.5003
 7631TIP3    H222858   3.622   0.444   0.239  1.2464 -0.1872 -2.0149
 7632TIP3   OH222859   6.892   2.481   3.853  0.4291  0.1736  0.6879
 7632TIP3    H122860   6.835   2.504   3.926  0.8205  0.8511  0.7934
 7632TIP3    H222861   6.873   2.547   3.786 -0.2033 -0.6674  0.0224
 7633TIP3   OH222862   3.398   2.163   1.928  0.1935  0.5376 -0.5956
 7633TIP3    H122863   3.391   2.210   2.011  0.6952  1.4112 -1.0361
 7633TIP3    H222864   3.338   2.089   1.937  2.6169 -1.3455  1.8300
 7634TIP3   OH222865   2.953   0.075   4.793 -0.2090  0.0759 -0.6850
 7634TIP3    H122866   3.017   0.134   4.753  0.5338 -0.2685 -0.0227
 7634TIP3    H222867   2.880   0.074   4.731 -0.9612  2.9432 -0.0163
 7635TIP3   OH222868   2.137   3.265   4.979 -0.0823 -0.2757  0.5531
 7635TIP3    H122869   2.171   3.336   4.924 -0.6328 -0.8505 -0.5634
 7635TIP3    H222870   2.088   3.309   5.047  1.3304  0.4926  1.1250
 7636TIP3   OH222871   3.245   1.654   0.757 -0.0761  0.5535 -0.1205
 7636TIP3    H122872   3.151   1.672   0.763 -0.0598  0.6722 -0.2191
 7636TIP3    H222873   3.280   1.684   0.841 -0.0125  1.2096 -0.3823
 7637TIP3   OH222874   5.319   4.142   4.492 -0.3264  0.0330  0.3982
 7637TIP3    H122875   5.296   4.166   4.402 -0.3700  0.2364  0.4635
 7637TIP3    H222876   5.236   4.123   4.534 -0.1680 -2.4327 -0.2631
 7638TIP3   OH222877   5.470   5.759   2.796  0.2464 -0.2149 -0.1046
 7638TIP3    H122878   5.406   5.738   2.864  0.7132 -0.3105  0.3129
 7638TIP3    H222879   5.551   5.720   2.828  0.5474  0.0418 -0.5564
 7639TIP3   OH222880   6.090   3.323   5.339 -0.1139 -0.4648  0.6877
 7639TIP3    H122881   6.057   3.264   5.407  1.6401 -2.2359  0.0987
 7639TIP3    H222882   6.051   3.291   5.258 -0.4922  0.3032  0.5491
 7640TIP3   OH222883   2.280   3.428   0.190  0.0632 -0.3041  0.0193
 7640TIP3    H122884   2.266   3.477   0.108 -1.9938  0.8318  0.9623
 7640TIP3    H222885   2.319   3.492   0.249  0.9798 -0.9471  0.1143
 7641TIP3   OH222886   4.368   5.706   4.005 -0.1835  0.0348 -0.3831
 7641TIP3    H122887   4.411   5.639   3.952  2.3265  2.2340 -1.3263
 7641TIP3    H222888   4.392   5.683   4.095 -0.7162 -1.1708 -0.5183
 7642TIP3   OH222889   4.576   2.863   2.890  0.4341 -0.3792  0.1148
 7642TIP3    H122890   4.503   2.922   2.875 -0.4866 -1.3200  0.7806
 7642TIP3    H222891   4.571   2.799   2.819  2.6156  1.3978 -1.7911
 7643TIP3   OH222892   4.622   1.951   3.890 -0.2848  0.2380 -0.6325
 7643TIP3    H122893   4.683   1.878   3.880 -0.7908 -0.1642 -0.8108
 7643TIP3    H222894   4.600   1.977   3.801 -2.5098 -1.4372 -0.6562
 7644TIP3   OH222895   3.263   0.345   0.061 -0.1686  0.1369  0.1181
 7644TIP3    H122896   3.220   0.419   0.104 -0.3865  0.1991 -0.1956
 7644TIP3    H222897   3.240   0.356  -0.032 -0.3095 -0.3954  0.0883
 7645TIP3   OH222898   1.259   0.853   5.624 -0.5236 -0.2142  0.0599
 7645TIP3    H122899   1.283   0.840   5.532  0.0872  2.5118 -0.2650
 7645TIP3    H222900   1.327   0.807   5.674 -0.0260 -0.4936 -0.8534
 7646TIP3   OH222901   5.784   2.171   4.187 -0.1879  0.2232 -0.7952
 7646TIP3    H122902   5.871   2.198   4.157  0.4548 -0.1053  0.6840
 7646TIP3    H222903   5.723   2.215   4.128  0.9697  0.8345 -1.5606
 7647TIP3   OH222904   4.855   3.206   5.584 -0.2675  0.2549 -0.1128
 7647TIP3    H122905   4.933   3.252   5.552 -0.8846  0.9745 -0.6528
 7647TIP3    H222906   4.802   3.194   5.505 -1.7222  1.8325  0.5548
 7648TIP3   OH222907   2.437   3.426   1.095  0.3042  0.1614  0.3447
 7648TIP3    H122908   2.449   3.335   1.121  1.5853  0.7388  1.9316
 7648TIP3    H222909   2.440   3.424   0.999 -0.3798 -1.5184  0.3218
 7649TIP3   OH222910   3.877   2.829   5.718 -0.0407  0.3674  0.2373
 7649TIP3    H122911   3.838   2.888   5.783 -1.4186 -0.3764  0.1354
 7649TIP3    H222912   3.848   2.865   5.634  0.0663  0.2027  0.1301
 7650TIP3   OH222913   3.600   0.099   1.726  0.1657 -0.2841 -0.5223
 7650TIP3    H122914   3.523   0.112   1.781 -0.4192 -0.9684 -1.1479
 7650TIP3    H222915   3.564   0.082   1.639  1.0622  0.4890 -1.0602
 7651TIP3   OH222916   2.753   6.067   1.920 -0.5486  0.5201  0.2908
 7651TIP3    H122917   2.709   6.053   1.836 -0.7905 -0.7365  0.6124
 7651TIP3    H222918   2.846   6.065   1.899 -0.6099  0.3433  0.0340
 7652TIP3   OH222919   4.967   6.598   5.275  0.0886  0.5516 -0.2291
 7652TIP3    H122920   4.893   6.633   5.225 -0.5322  1.9874  1.6216
 7652TIP3    H222921   4.979   6.659   5.347  1.7058 -0.8301  0.7426
 7653TIP3   OH222922   1.937   1.298   2.680  0.0527  0.8809 -0.7818
 7653TIP3    H122923   1.907   1.261   2.764 -0.3632  0.6358 -1.0338
 7653TIP3    H222924   2.032   1.302   2.688 -0.0342  1.6095  0.0179
 7654TIP3   OH222925   1.605   5.119   0.728 -0.1562  0.3187 -0.0795
 7654TIP3    H122926   1.688   5.073   0.712 -0.4402 -0.1836 -0.1442
 7654TIP3    H222927   1.624   5.211   0.709  0.5452  0.2951  0.4823
 7655TIP3   OH222928   7.046   5.488   4.811  0.1773 -0.1800  0.0848
 7655TIP3    H122929   7.085   5.532   4.886  1.7484  0.0587 -0.8253
 7655TIP3    H222930   6.977   5.433   4.848 -0.5652  1.5696  1.4529
 7656TIP3   OH222931   6.018   5.322   3.257 -0.2421  0.5772  0.1528
 7656TIP3    H122932   5.936   5.363   3.285  0.4970  0.1328  3.3336
 7656TIP3    H222933   6.010   5.230   3.284  1.0975  0.3988  0.0200
 7657TIP3   OH222934   6.498   0.690   1.068  0.0516  0.3170  0.2262
 7657TIP3    H122935   6.567   0.639   1.111 -1.3970 -0.8489  1.2862
 7657TIP3    H222936   6.462   0.631   1.001 -0.9844  0.2757  0.7924
 7658TIP3   OH222937   3.040   1.619   2.895 -0.4186 -0.6023 -0.1131
 7658TIP3    H122938   3.064   1.695   2.841  3.6386 -2.2155 -0.9804
 7658TIP3    H222939   2.999   1.558   2.834 -1.0041 -0.2697 -0.0604
 7659TIP3   OH222940   0.324   3.160   4.102 -0.3948 -0.0196 -0.0850
 7659TIP3    H122941   0.282   3.127   4.181  0.3476 -1.0757 -0.1203
 7659TIP3    H222942   0.372   3.086   4.066 -0.6605  0.4546 -1.5092
 7660TIP3   OH222943   5.023   4.396   0.917  0.6777  0.1138 -0.1106
 7660TIP3    H122944   4.977   4.434   0.992  0.7695  0.3843 -0.1892
 7660TIP3    H222945   5.015   4.462   0.848 -0.2583 -0.5375 -0.6590
 7661TIP3   OH222946   0.905   4.059   2.071  0.3947 -0.0507 -0.5727
 7661TIP3    H122947   0.853   4.121   2.122 -0.1453  0.3600 -1.5855
 7661TIP3    H222948   0.993   4.096   2.070  0.5328 -0.3216  0.4580
 7662TIP3   OH222949   4.818   3.117   0.552  1.0523  0.4742 -0.1231
 7662TIP3    H122950   4.747   3.111   0.489 -0.5409  1.0355  1.5154
 7662TIP3    H222951   4.823   3.210   0.574  3.1912  0.6389 -1.1319
 7663TIP3   OH222952   3.731   6.665   5.435  0.1283 -0.1234 -0.4268
 7663TIP3    H122953   3.717   6.579   5.474  1.0698  0.0656  0.3759
 7663TIP3    H222954   3.790   6.649   5.362  1.2945 -0.0328  0.4601
 7664TIP3   OH222955   4.983   1.917   1.927  0.5554  0.2108  1.0674
 7664TIP3    H122956   5.023   1.958   1.850  0.6249 -0.3744  0.7786
 7664TIP3    H222957   5.053   1.916   1.992  0.6608  0.2286  0.9558
 7665TIP3   OH222958   2.510   3.195   0.185 -0.3492  0.6227  0.2380
 7665TIP3    H122959   2.503   3.266   0.249  2.5841  1.0386  0.2377
 7665TIP3    H222960   2.577   3.138   0.220  0.6955  0.3771 -2.0069
 7666TIP3   OH222961   1.971   5.481   2.594 -0.9277 -0.5194  0.2019
 7666TIP3    H122962   1.957   5.550   2.659 -0.6412  1.5298 -1.7598
 7666TIP3    H222963   1.884   5.445   2.578 -1.7720  1.9235 -1.2629
 7667TIP3   OH222964   6.715   2.706   0.568 -0.1085 -0.1319  0.9667
 7667TIP3    H122965   6.688   2.617   0.587 -1.3472  0.3163  1.3719
 7667TIP3    H222966   6.795   2.696   0.515 -0.7527 -1.4821  0.1993
 7668TIP3   OH222967   1.840   1.037   3.137  0.1134  0.0740  0.2856
 7668TIP3    H122968   1.931   1.009   3.152  0.4750  0.0136 -1.7447
 7668TIP3    H222969   1.787   0.972   3.184  1.0847 -0.8730  0.1223
 7669TIP3   OH222970   5.681   0.921   0.352  0.2244  0.2968  0.2533
 7669TIP3    H122971   5.757   0.901   0.297  0.2283 -0.8679  0.6510
 7669TIP3    H222972   5.719   0.961   0.430  0.1749  2.5282 -0.7858
 7670TIP3   OH222973   1.209   1.946   0.246  0.6384 -0.1610 -0.3682
 7670TIP3    H122974   1.190   2.035   0.216  0.3329  0.1284  0.6230
 7670TIP3    H222975   1.235   1.899   0.167 -1.1536  0.2558 -1.2654
 7671TIP3   OH222976   2.595   3.248   4.802  0.1495 -0.1095  0.0409
 7671TIP3    H122977   2.639   3.311   4.745  0.6737  0.0885  0.6465
 7671TIP3    H222978   2.508   3.236   4.763  1.0994 -1.3638 -1.8075
 7672TIP3   OH222979   3.295   5.822   1.663  0.4381 -0.2257 -0.3446
 7672TIP3    H122980   3.205   5.808   1.635  0.3024 -0.3402  0.1392
 7672TIP3    H222981   3.344   5.749   1.626 -0.0014 -1.2068  0.9242
 7673TIP3   OH222982   4.708   3.963   4.370 -0.0596  0.4380  0.3643
 7673TIP3    H122983   4.625   3.942   4.413  0.3895  0.7169  1.3958
 7673TIP3    H222984   4.737   3.880   4.333 -0.3943  0.1585  0.7207
 7674TIP3   OH222985   3.047   3.506   3.726 -0.0390  0.2577 -0.6615
 7674TIP3    H122986   3.066   3.539   3.638  0.0517 -0.3536 -0.8823
 7674TIP3    H222987   2.970   3.450   3.714  0.2734 -0.2278 -0.4536
 7675TIP3   OH222988   0.911   6.721   3.195 -0.1434 -0.6644  0.1118
 7675TIP3    H122989   0.901   6.791   3.130 -1.3832 -2.3382 -1.5908
 7675TIP3    H222990   0.852   6.746   3.267 -0.0785  0.3347 -0.1650
 7676TIP3   OH222991   6.894   6.141   0.057  0.3016 -0.2799 -0.4406
 7676TIP3    H122992   6.923   6.097   0.137  0.9183  1.2507  0.2231
 7676TIP3    H222993   6.854   6.072   0.004  3.2231 -2.1500 -0.4804
 7677TIP3   OH222994   2.841   5.917   3.493 -0.1420  0.3027  0.0425
 7677TIP3    H122995   2.757   5.962   3.488 -0.4412 -0.2607 -0.1062
 7677TIP3    H222996   2.824   5.841   3.549  0.0671 -0.2373 -0.6116
 7678TIP3   OH222997   4.709   0.789   1.497 -0.3611  0.5274  0.9114
 7678TIP3    H122998   4.684   0.748   1.579 -0.9361 -0.1482  0.4090
 7678TIP3    H222999   4.646   0.861   1.486  0.0470  0.9563  1.3122
 7679TIP3   OH223000   3.815   3.011   4.322 -0.0438  0.3210  0.2261
 7679TIP3    H123001   3.890   2.964   4.359 -0.5291 -1.2144 -0.6244
 7679TIP3    H223002   3.849   3.053   4.243  0.3894  1.4264  0.9799
 7680TIP3   OH223003   1.430   3.717   5.583 -0.3008  0.3161  0.3280
 7680TIP3    H123004   1.400   3.769   5.657  0.0353 -2.0244  2.2276
 7680TIP3    H223005   1.517   3.687   5.609 -0.1042 -0.4110 -1.0908
 7681TIP3   OH223006   0.653   4.548   0.089 -0.3292 -0.2397 -0.3761
 7681TIP3    H123007   0.573   4.597   0.109 -1.2102 -0.9986 -1.8614
 7681TIP3    H223008   0.690   4.527   0.175 -1.0286  1.2124  0.3265
 7682TIP3   OH223009   0.476   4.171   3.048 -0.1361 -0.5261 -0.3447
 7682TIP3    H123010   0.551   4.164   3.107  1.5325 -1.5159 -2.4523
 7682TIP3    H223011   0.470   4.265   3.027  0.2832 -0.3992  0.0889
 7683TIP3   OH223012   4.367   4.825   1.880  0.0524 -0.1144 -0.5523
 7683TIP3    H123013   4.369   4.797   1.789  1.5408 -1.5596 -0.1231
 7683TIP3    H223014   4.438   4.889   1.887  0.6077 -0.7520 -0.2104
 7684TIP3   OH223015   3.963   4.153   2.886 -0.2148 -0.4232  0.2426
 7684TIP3    H123016   4.002   4.095   2.952 -1.5187 -0.6766  0.8244
 7684TIP3    H223017   3.903   4.209   2.936 -0.5381  0.0016 -0.6038
 7685TIP3   OH223018   4.677   3.865   1.645 -0.1230  0.5043  0.0459
 7685TIP3    H123019   4.611   3.934   1.651 -0.8455 -0.2177  0.6463
 7685TIP3    H223020   4.735   3.894   1.574 -1.6597  0.6780 -1.2012
 7686TIP3   OH223021   7.191   1.035   5.297 -0.0942  0.4023  0.2962
 7686TIP3    H123022   7.228   1.005   5.380 -2.9162  1.6447  2.1530
 7686TIP3    H223023   7.143   1.114   5.320 -1.0388  0.7498 -2.5465
 7687TIP3   OH223024   5.440   0.189   3.725 -0.0867  0.0748 -0.5490
 7687TIP3    H123025   5.369   0.126   3.741  1.3666 -1.3891  0.5763
 7687TIP3    H223026   5.414   0.268   3.773 -0.5965 -0.7381  0.5762
 7688TIP3   OH223027   5.883   3.721   5.485 -0.8104  0.1227  0.0020
 7688TIP3    H123028   5.908   3.676   5.566 -2.1728  0.6718  0.7641
 7688TIP3    H223029   5.847   3.651   5.430 -0.6945 -0.1195  0.2274
 7689TIP3   OH223030   3.277   4.595   0.075 -0.4219 -0.3394  0.1729
 7689TIP3    H123031   3.254   4.592  -0.018 -0.4041  1.0328  0.1096
 7689TIP3    H223032   3.196   4.620   0.119 -0.5294 -1.3680  0.5830
 7690TIP3   OH223033   2.672   1.137   3.132 -0.3813 -0.4605 -0.1447
 7690TIP3    H123034   2.727   1.196   3.081 -0.1870  0.0133  0.5899
 7690TIP3    H223035   2.614   1.195   3.181  0.1549 -0.8404  0.9796
 7691TIP3   OH223036   6.591   5.447   1.600  0.0728  0.1716  0.6056
 7691TIP3    H123037   6.685   5.427   1.600  0.3225  1.2934  0.4043
 7691TIP3    H223038   6.585   5.532   1.557 -1.1057 -0.1600  0.0931
 7692TIP3   OH223039   4.586   2.571   2.789  0.3523 -0.8664  0.5592
 7692TIP3    H123040   4.623   2.483   2.789 -0.0633 -1.1814 -3.1531
 7692TIP3    H223041   4.497   2.559   2.756  0.7650  1.0176 -1.4362
 7693TIP3   OH223042   3.750   4.679   1.155  0.6557 -0.1548  0.1726
 7693TIP3    H123043   3.827   4.640   1.114 -0.0157  0.1220 -1.4112
 7693TIP3    H223044   3.732   4.757   1.103  0.1306  0.5718  1.3950
 7694TIP3   OH223045   2.556   6.392   1.505  0.4562  0.0142 -0.6080
 7694TIP3    H123046   2.616   6.354   1.441  1.9120 -0.1895  0.7870
 7694TIP3    H223047   2.612   6.447   1.560 -0.1418 -1.8471  2.0849
 7695TIP3   OH223048   2.590   3.484   5.525  0.4142  0.2073  0.0965
 7695TIP3    H123049   2.623   3.501   5.437  2.2390 -0.1006  0.6695
 7695TIP3    H223050   2.508   3.437   5.512  0.8649 -0.2078 -1.4392
 7696TIP3   OH223051   6.626   1.584   2.124 -0.3213  0.0082 -0.4367
 7696TIP3    H123052   6.559   1.549   2.065 -2.1179 -1.1850  2.1234
 7696TIP3    H223053   6.697   1.520   2.119 -1.4204 -1.3231  0.3383
 7697TIP3   OH223054   2.816   5.073   0.040  0.1222 -0.0567 -0.1978
 7697TIP3    H123055   2.808   5.049  -0.052  0.0643  0.6020 -0.3743
 7697TIP3    H223056   2.902   5.114   0.048  1.9156 -3.6027  0.8915
 7698TIP3   OH223057   2.101   3.901   5.464 -0.4832  0.4930  0.4500
 7698TIP3    H123058   2.195   3.895   5.483 -0.6396 -1.0170  0.8698
 7698TIP3    H223059   2.072   3.980   5.509  0.1808 -0.2001  2.1546
 7699TIP3   OH223060   1.566   5.567   2.871 -0.0522 -0.4067  0.8508
 7699TIP3    H123061   1.621   5.611   2.806 -0.7738 -1.1547 -0.2934
 7699TIP3    H223062   1.615   5.574   2.953  0.9148  0.4791  0.2147
 7700TIP3   OH223063   0.074   3.497   4.729  0.3578 -0.3694 -0.5347
 7700TIP3    H123064   0.022   3.496   4.810 -0.8196 -1.3632 -1.2559
 7700TIP3    H223065   0.008   3.492   4.659  1.3486  0.5207 -1.5657
 7701TIP3   OH223066   3.773   5.039   1.792  0.1895  0.5340 -0.6663
 7701TIP3    H123067   3.713   4.965   1.785 -1.0732  1.5875 -1.7887
 7701TIP3    H223068   3.833   5.029   1.718 -0.3727  0.9314 -1.1889
 7702TIP3   OH223069   5.567   4.827   1.569 -0.5131  0.1959  0.1627
 7702TIP3    H123070   5.548   4.735   1.554  1.1105 -0.0742 -0.5024
 7702TIP3    H223071   5.588   4.861   1.482  0.7373  0.7188  0.6435
 7703TIP3   OH223072   6.638   4.125   1.868  0.0064  0.2575  0.0575
 7703TIP3    H123073   6.633   4.115   1.773 -0.0761  0.9015 -0.0093
 7703TIP3    H223074   6.631   4.219   1.882 -2.6311 -0.0083  0.8712
 7704TIP3   OH223075   1.525   5.569   5.168  0.4329  0.4559 -0.2846
 7704TIP3    H123076   1.526   5.663   5.147  1.8110  0.0482 -2.3671
 7704TIP3    H223077   1.556   5.564   5.258 -0.3551  2.0232  0.1177
 7705TIP3   OH223078   6.195   3.635   3.406  0.0248 -0.1750  0.2436
 7705TIP3    H123079   6.219   3.601   3.320  2.2049  0.6765  0.4635
 7705TIP3    H223080   6.151   3.718   3.389 -2.7834 -1.5882 -0.1393
 7706TIP3   OH223081   4.514   3.185   0.053 -0.4102 -0.3624 -0.1416
 7706TIP3    H123082   4.422   3.202   0.032 -0.7841 -0.7460  1.1329
 7706TIP3    H223083   4.513   3.101   0.098  0.9082 -1.7806 -2.5722
 7707TIP3   OH223084   3.242   6.421   3.669  0.2674  0.3251  0.0329
 7707TIP3    H123085   3.200   6.504   3.694  0.1951  0.2842  0.0477
 7707TIP3    H223086   3.204   6.399   3.584 -0.3303 -0.1150  0.4030
 7708TIP3   OH223087   0.860   3.299   1.875  0.1768 -0.5256 -0.0551
 7708TIP3    H123088   0.845   3.259   1.789  0.5533 -0.2042 -0.2744
 7708TIP3    H223089   0.834   3.390   1.864  1.2516 -0.2094 -0.1531
 7709TIP3   OH223090   0.695   3.419   5.446 -0.3072 -0.3099  0.6486
 7709TIP3    H123091   0.782   3.446   5.473 -0.4572  1.2340 -0.3111
 7709TIP3    H223092   0.704   3.398   5.353 -1.0756  0.4154  0.4033
 7710TIP3   OH223093   1.159   4.629   5.423 -0.1926 -1.3377 -0.4489
 7710TIP3    H123094   1.168   4.616   5.328  1.4060 -0.9718 -0.3733
 7710TIP3    H223095   1.247   4.613   5.457 -0.3783  0.1446  0.7911
 7711TIP3   OH223096   0.516   6.204   4.445  0.0109 -0.0988 -0.3178
 7711TIP3    H123097   0.585   6.215   4.379  0.0921 -1.1934 -0.4408
 7711TIP3    H223098   0.532   6.274   4.508  1.7640 -0.8056  0.1078
 7712TIP3   OH223099   1.611   5.691   4.654 -0.3424 -0.1317  0.4646
 7712TIP3    H123100   1.540   5.683   4.591  0.2309 -2.2864  0.0028
 7712TIP3    H223101   1.687   5.654   4.609  0.0307 -1.9716  2.4422
 7713TIP3   OH223102   6.891   3.256   5.542 -0.1622 -0.6661 -0.2567
 7713TIP3    H123103   6.860   3.346   5.550 -2.0503 -1.2827 -0.1464
 7713TIP3    H223104   6.950   3.258   5.466 -0.8980  0.4830 -0.8271
 7714TIP3   OH223105   3.333   4.677   2.442 -0.5008 -0.2874 -0.1146
 7714TIP3    H123106   3.242   4.681   2.471  0.0372 -0.7286  1.7198
 7714TIP3    H223107   3.349   4.763   2.403 -1.3934  0.1746  0.4908
 7715TIP3   OH223108   0.877   1.990   3.059  0.1523  0.5902  0.2638
 7715TIP3    H123109   0.936   2.036   2.998  1.0892 -0.5494  0.2601
 7715TIP3    H223110   0.931   1.976   3.137  0.3037 -1.4381 -0.1379
 7716TIP3   OH223111   2.981   1.026   4.455  0.2713  0.4747 -0.1642
 7716TIP3    H123112   2.992   1.043   4.362  0.4624 -1.0638 -0.4540
 7716TIP3    H223113   2.888   1.043   4.472  0.2550  0.8340 -0.6076
 7717TIP3   OH223114   5.076   0.391   5.142 -0.4725 -0.2014 -0.3321
 7717TIP3    H123115   5.108   0.363   5.228 -1.6552  0.5370  0.3779
 7717TIP3    H223116   5.129   0.468   5.121 -0.6320  0.0174  0.0531
 7718TIP3   OH223117   0.427   2.303   3.867 -0.6294 -0.8175  0.4862
 7718TIP3    H123118   0.390   2.269   3.785 -1.0753  1.4795 -0.3206
 7718TIP3    H223119   0.375   2.380   3.887  0.5723 -0.3553  2.0494
 7719TIP3   OH223120   1.595   3.483   0.113  0.3207 -0.8762  0.1434
 7719TIP3    H123121   1.572   3.574   0.093  0.3236 -0.4107  2.0703
 7719TIP3    H223122   1.584   3.476   0.207  1.8173 -2.4658  0.2367
 7720TIP3   OH223123   2.162   1.960   3.831 -0.3319 -0.1178  0.3596
 7720TIP3    H123124   2.188   2.048   3.859 -0.2582  0.1018 -0.3750
 7720TIP3    H223125   2.236   1.930   3.779 -1.2413  0.2321 -1.1752
 7721TIP3   OH223126   5.818   3.041   4.313  0.2740  0.2941  0.4986
 7721TIP3    H123127   5.839   2.977   4.381  0.7601  1.2023  1.2140
 7721TIP3    H223128   5.742   3.003   4.268 -2.0892  1.0457  3.5008
 7722TIP3   OH223129   3.629   1.939   2.466  0.2232 -0.1748 -0.4455
 7722TIP3    H123130   3.622   1.871   2.533  0.4587  1.4076  1.2552
 7722TIP3    H223131   3.670   2.013   2.511  0.9464  0.7604 -2.5049
 7723TIP3   OH223132   6.140   3.863   5.633  0.2008 -0.4818 -0.6760
 7723TIP3    H123133   6.209   3.801   5.609  0.7077  0.1625 -0.8795
 7723TIP3    H223134   6.070   3.807   5.666  1.0982 -1.1056  0.2433
 7724TIP3   OH223135   1.942   5.470   4.792 -0.1475  0.1448  0.1485
 7724TIP3    H123136   1.850   5.471   4.820 -0.7701 -0.3257 -1.7305
 7724TIP3    H223137   1.964   5.563   4.779  0.2037  0.3916  2.1646
 7725TIP3   OH223138   4.103   6.520   1.843  0.3076  0.0811  0.3323
 7725TIP3    H123139   4.123   6.613   1.839  2.2942 -0.2875  0.7825
 7725TIP3    H223140   4.051   6.510   1.923  1.6826  0.5534  1.3114
 7726TIP3   OH223141   1.035   1.746   5.317 -0.1527 -0.1760  0.1343
 7726TIP3    H123142   1.095   1.811   5.281 -0.6663  0.2394  0.0146
 7726TIP3    H223143   0.948   1.787   5.312 -0.2368 -0.0043  2.0295
 7727TIP3   OH223144   6.145   4.464   1.068  0.5766  0.6848  0.1215
 7727TIP3    H123145   6.197   4.411   1.128 -0.4887 -0.6964 -0.1262
 7727TIP3    H223146   6.054   4.450   1.096  0.1643  1.1812 -0.9010
 7728TIP3   OH223147   6.302   4.535   3.572 -0.4205 -0.4027  0.5584
 7728TIP3    H123148   6.332   4.625   3.563 -2.1221  0.1263 -0.2633
 7728TIP3    H223149   6.338   4.505   3.656  1.1812  0.6034  0.2614
 7729TIP3   OH223150   3.491   6.048   3.199  0.0070  0.2626 -0.2755
 7729TIP3    H123151   3.468   5.968   3.152 -1.0523 -0.8612  2.0178
 7729TIP3    H223152   3.581   6.034   3.228  0.3474  0.5799 -1.1367
 7730TIP3   OH223153   1.408   2.398   0.846 -0.2738  0.1227 -0.0974
 7730TIP3    H123154   1.478   2.377   0.785 -1.5659  0.5713 -1.8027
 7730TIP3    H223155   1.420   2.336   0.918  1.1621 -0.5783 -0.8906
 7731TIP3   OH223156   1.755   0.505   3.866 -0.1391  0.1480 -0.0129
 7731TIP3    H123157   1.821   0.566   3.835 -1.3242  0.7065 -1.6131
 7731TIP3    H223158   1.673   0.555   3.865 -1.5060 -1.7910 -3.1747
 7732TIP3   OH223159   1.223   3.986   5.036 -0.0205  0.1527 -0.3332
 7732TIP3    H123160   1.233   4.076   5.005  1.5015  0.6970  1.5164
 7732TIP3    H223161   1.312   3.950   5.032 -0.2621 -0.6124  0.7474
 7733TIP3   OH223162   1.178   2.454   3.163 -0.2504 -0.1876  0.2300
 7733TIP3    H123163   1.105   2.445   3.101  0.2597  1.4099 -0.6702
 7733TIP3    H223164   1.148   2.521   3.225 -1.0988 -2.3697  2.3187
 7734TIP3   OH223165   6.023   1.480   5.158 -0.3287 -0.6742 -0.0824
 7734TIP3    H123166   6.096   1.536   5.131  1.6077 -3.0093 -0.0487
 7734TIP3    H223167   6.039   1.464   5.251 -0.9561 -1.1204 -0.0454
 7735TIP3   OH223168   5.389   2.435   4.103 -0.0523 -0.7955  0.0711
 7735TIP3    H123169   5.445   2.512   4.089  0.6803 -1.2925  0.1942
 7735TIP3    H223170   5.316   2.468   4.155  0.3167 -0.2028  0.2269
 7736TIP3   OH223171   2.577   6.250   5.588 -0.0958  0.0508 -0.1320
 7736TIP3    H123172   2.670   6.229   5.595 -0.2609 -0.8139 -0.3872
 7736TIP3    H223173   2.560   6.252   5.494 -0.2867  0.4275 -0.0883
 7737TIP3   OH223174   4.768   2.480   5.749  0.1546 -0.1568 -0.3345
 7737TIP3    H123175   4.818   2.405   5.716 -0.9990 -1.0851 -0.0063
 7737TIP3    H223176   4.807   2.499   5.835  1.4183  0.5944 -1.0331
 7738TIP3   OH223177   2.963   3.760   1.438 -0.5724 -0.0027 -0.6534
 7738TIP3    H123178   2.979   3.670   1.408  1.5427 -0.0955  0.5401
 7738TIP3    H223179   2.995   3.815   1.367  0.5609 -0.2142 -0.3197
 7739TIP3   OH223180   6.916   1.586   4.869 -0.4641  0.0885  0.3267
 7739TIP3    H123181   6.989   1.526   4.855  1.0693  1.6037  1.4281
 7739TIP3    H223182   6.876   1.556   4.950  0.9644  1.0984  1.4646
 7740TIP3   OH223183   4.801   0.518   0.203  0.3781 -0.4357  0.3281
 7740TIP3    H123184   4.782   0.598   0.252  1.4964 -1.1077  1.9329
 7740TIP3    H223185   4.893   0.527   0.177  0.7228 -1.4761  1.1230
 7741TIP3   OH223186   7.128   2.862   4.300  0.2781 -1.0519  0.0609
 7741TIP3    H123187   7.078   2.827   4.374 -0.4877  2.5209  1.4478
 7741TIP3    H223188   7.215   2.878   4.335  0.1893 -0.2194 -0.0884
 7742TIP3   OH223189   6.189   1.129   2.573  0.1285  0.2902  0.7411
 7742TIP3    H123190   6.116   1.187   2.595 -0.8610 -1.1587  1.4768
 7742TIP3    H223191   6.176   1.053   2.629  0.9066 -1.0007 -0.7629
 7743TIP3   OH223192   3.086   2.463   5.765  0.1898  0.6416  0.2787
 7743TIP3    H123193   3.083   2.555   5.792  0.4060  0.3672  1.2862
 7743TIP3    H223194   3.163   2.458   5.708  0.5120  0.9783  0.6747
 7744TIP3   OH223195   4.278   2.818   0.279  0.3307  0.1567 -0.3183
 7744TIP3    H123196   4.244   2.744   0.329  0.2219 -0.1293 -0.8101
 7744TIP3    H223197   4.363   2.838   0.319 -0.4295  0.9366  0.9797
 7745TIP3   OH223198   2.960   3.005   1.817 -0.1917  0.2159  0.2654
 7745TIP3    H123199   2.993   3.092   1.843 -0.8897  0.0656  1.7703
 7745TIP3    H223200   2.883   2.992   1.872  0.6791 -1.9407  1.0585
 7746TIP3   OH223201   1.522   0.854   2.083  0.3114  0.1167  0.3152
 7746TIP3    H123202   1.541   0.947   2.071 -0.1732  0.2525  0.5703
 7746TIP3    H223203   1.595   0.809   2.039  1.7495  0.5987  2.0762
 7747TIP3   OH223204   2.285   1.916   0.442 -0.0078 -0.7530  0.4018
 7747TIP3    H123205   2.204   1.955   0.408 -0.0557 -1.3310 -0.1619
 7747TIP3    H223206   2.330   1.883   0.365  1.5003  0.8833  0.5186
 7748TIP3   OH223207   2.241   3.914   3.441  0.3454  0.2460 -0.1161
 7748TIP3    H123208   2.307   3.910   3.511 -0.3941 -1.8639  0.5517
 7748TIP3    H223209   2.287   3.881   3.363  0.6576  0.8331 -0.1860
 7749TIP3   OH223210   0.566   0.621   3.898  0.0765  0.6943  0.4600
 7749TIP3    H123211   0.620   0.693   3.863  0.1083  0.8329  0.7857
 7749TIP3    H223212   0.581   0.625   3.993 -1.1361  1.2595  0.6489
 7750TIP3   OH223213   5.469   0.752   0.669 -0.4513  0.9116 -0.0847
 7750TIP3    H123214   5.543   0.804   0.699  0.0150 -0.0422  0.4441
 7750TIP3    H223215   5.405   0.817   0.638 -0.6696  1.9456  2.2844
 7751TIP3   OH223216   5.494   3.522   2.698  0.3027 -0.3944  0.1171
 7751TIP3    H123217   5.510   3.509   2.792  1.4010 -1.4250 -0.1821
 7751TIP3    H223218   5.409   3.566   2.694  0.3424 -0.1179  1.5991
 7752TIP3   OH223219   2.546   5.794   2.386 -0.1819  0.8112 -0.7388
 7752TIP3    H123220   2.626   5.843   2.403  0.9296 -0.9370 -0.7591
 7752TIP3    H223221   2.572   5.723   2.328 -1.7759  0.2894 -0.8831
 7753TIP3   OH223222   7.058   5.406   3.841 -0.3312  0.1371  0.2292
 7753TIP3    H123223   7.048   5.379   3.932  1.0521  0.6931  0.5675
 7753TIP3    H223224   7.037   5.500   3.841 -1.3792 -0.0776 -0.2401
 7754TIP3   OH223225   1.262   1.857   5.552 -0.2554 -0.6958  0.3496
 7754TIP3    H123226   1.213   1.858   5.635  0.7776 -1.3421  0.9895
 7754TIP3    H223227   1.298   1.945   5.546  1.6207 -1.2990  1.8283
 7755TIP3   OH223228   0.778   2.384   0.133  0.9089 -0.0691  0.3758
 7755TIP3    H123229   0.838   2.325   0.179  0.1159 -2.3936 -1.3562
 7755TIP3    H223230   0.696   2.377   0.182  0.4434 -1.5112 -0.5407
 7756TIP3   OH223231   2.253   1.350   4.348 -0.1700 -0.4904  0.5639
 7756TIP3    H123232   2.220   1.413   4.411 -1.0514 -0.1834 -0.1908
 7756TIP3    H223233   2.299   1.284   4.401 -0.0442  0.2786  1.4283
 7757TIP3   OH223234   6.806   0.354   2.716 -0.4155  0.1565  0.3383
 7757TIP3    H123235   6.731   0.303   2.685  0.3090 -1.3689  1.0169
 7757TIP3    H223236   6.842   0.303   2.788  2.1436  0.0929 -0.8605
 7758TIP3   OH223237   5.017   2.481   2.912  0.5264  0.1281  0.2324
 7758TIP3    H123238   4.954   2.548   2.883 -0.6374 -1.0772 -0.1234
 7758TIP3    H223239   5.091   2.531   2.946  0.3447  1.6053 -1.3829
 7759TIP3   OH223240   2.549   3.279   3.531  0.0098 -0.0813 -0.0145
 7759TIP3    H123241   2.499   3.198   3.533 -0.3144  0.0719 -1.1447
 7759TIP3    H223242   2.484   3.348   3.543 -0.1441  0.1380 -1.8266
 7760TIP3   OH223243   6.152   2.693   2.329  0.3013 -0.0113  0.2826
 7760TIP3    H123244   6.160   2.660   2.418 -0.4175 -2.9617 -0.6475
 7760TIP3    H223245   6.058   2.690   2.310  0.6069 -1.5159 -1.2439
 7761TIP3   OH223246   4.829   3.827   0.420 -0.5107 -0.2164  0.8801
 7761TIP3    H123247   4.743   3.785   0.431 -1.3456  0.7377 -1.4323
 7761TIP3    H223248   4.890   3.754   0.405 -1.4477 -0.7962 -0.3124
 7762TIP3   OH223249   4.418   3.603   1.485  0.4204  0.1489 -0.4307
 7762TIP3    H123250   4.401   3.696   1.501 -0.3725 -0.4996  3.3649
 7762TIP3    H223251   4.394   3.590   1.393  1.4797  3.8319 -1.4122
 7763TIP3   OH223252   4.521   2.564   5.150  0.2665  0.3868 -0.0797
 7763TIP3    H123253   4.509   2.615   5.230 -3.1321  1.5655 -1.1567
 7763TIP3    H223254   4.544   2.629   5.083  2.6689 -0.5300 -0.2793
 7764TIP3   OH223255   1.002   1.371   0.261  0.4810 -0.4728  0.8146
 7764TIP3    H123256   0.997   1.321   0.342 -2.7858 -2.2416 -0.3161
 7764TIP3    H223257   0.921   1.422   0.259  1.9437  2.0365  0.0614
 7765TIP3   OH223258   5.119   2.745   1.957  0.1838  0.1182  0.3515
 7765TIP3    H123259   5.023   2.742   1.956  0.1188  0.6940 -2.3792
 7765TIP3    H223260   5.146   2.654   1.968 -0.8135 -0.7045 -2.8518
 7766TIP3   OH223261   6.658   3.712   2.350 -0.4771  0.1170 -0.0936
 7766TIP3    H123262   6.678   3.619   2.358 -1.5830 -0.2668 -1.2782
 7766TIP3    H223263   6.728   3.747   2.295 -1.3229 -0.5579 -1.6685
 7767TIP3   OH223264   2.994   4.105   2.779  0.5352 -0.5339 -0.1362
 7767TIP3    H123265   2.992   4.066   2.692  1.2054 -1.9298  0.4337
 7767TIP3    H223266   3.060   4.054   2.827  0.2750  0.2710  1.1497
 7768TIP3   OH223267   1.260   0.413   0.897 -0.4806 -0.6452 -0.4949
 7768TIP3    H123268   1.296   0.469   0.965 -0.2561 -0.9209 -0.3852
 7768TIP3    H223269   1.291   0.451   0.815  1.5442 -1.8777 -0.3561
 7769TIP3   OH223270   1.104   1.077   5.476 -0.6137  0.1922 -0.2374
 7769TIP3    H123271   1.151   1.003   5.514 -0.2255 -0.1553 -1.3388
 7769TIP3    H223272   1.044   1.037   5.413  0.4810  0.8527 -1.7605
 7770TIP3   OH223273   5.693   0.914   5.698  0.0303 -0.2965  0.6110
 7770TIP3    H123274   5.694   0.956   5.784  4.2231  0.3192  0.4972
 7770TIP3    H223275   5.719   0.984   5.637  0.0106 -1.3759 -0.6893
 7771TIP3   OH223276   5.630   3.328   4.011 -0.0307 -0.1118 -0.0464
 7771TIP3    H123277   5.588   3.414   4.005  0.8282  0.3548  0.5873
 7771TIP3    H223278   5.704   3.333   3.951 -0.4779 -0.7222 -0.6753
 7772TIP3   OH223279   7.237   1.509   5.101 -0.3881  0.0064 -0.2660
 7772TIP3    H123280   7.205   1.469   5.020  0.2860  1.9104 -1.5401
 7772TIP3    H223281   7.185   1.468   5.170 -1.2900 -1.3517 -1.6854
 7773TIP3   OH223282   0.539   3.456   4.528  0.1536  0.3168 -0.5423
 7773TIP3    H123283   0.479   3.460   4.453  0.9386  0.4313 -1.1766
 7773TIP3    H223284   0.589   3.538   4.522  1.8455 -0.7099 -1.2831
 7774TIP3   OH223285   1.506   4.307   4.249 -0.4670 -0.2888 -0.8172
 7774TIP3    H123286   1.419   4.266   4.253 -0.2252 -0.7228  0.1703
 7774TIP3    H223287   1.555   4.268   4.321  0.2270  0.7140 -0.7200
 7775TIP3   OH223288   1.216   2.584   0.946  0.4688  0.3142  0.6376
 7775TIP3    H123289   1.159   2.522   0.992 -1.4643  0.9495 -0.7850
 7775TIP3    H223290   1.291   2.530   0.918  0.2648 -0.7018  1.9106
 7776TIP3   OH223291   1.982   4.104   2.772 -0.1231 -0.0937 -0.4235
 7776TIP3    H123292   1.990   4.012   2.797  0.4798  0.1167  0.1596
 7776TIP3    H223293   1.887   4.119   2.766 -0.3679  0.0715  2.6162
 7777TIP3   OH223294   4.879   2.746   0.547  0.4788 -0.2986  0.1571
 7777TIP3    H123295   4.872   2.817   0.484 -1.1794  0.0020  0.6261
 7777TIP3    H223296   4.806   2.688   0.526 -0.7416  0.3259  2.3768
 7778TIP3   OH223297   6.862   3.934   4.171 -0.1600 -0.1694  0.1906
 7778TIP3    H123298   6.956   3.949   4.162  0.4915 -2.6914  1.6129
 7778TIP3    H223299   6.821   4.003   4.119  2.3927  2.2644  1.1774
 7779TIP3   OH223300   4.516   1.469   1.856 -0.7970  0.6467 -0.1090
 7779TIP3    H123301   4.473   1.431   1.933  0.0709 -0.7068 -0.2620
 7779TIP3    H223302   4.479   1.420   1.783 -0.1689  0.5534 -0.3688
 7780TIP3   OH223303   5.194   1.524   4.622 -0.4266 -0.1797  0.4017
 7780TIP3    H123304   5.286   1.499   4.621 -0.2532  0.4375 -0.0444
 7780TIP3    H223305   5.162   1.497   4.708 -0.2714 -1.9043 -0.0466
 7781TIP3   OH223306   2.872   0.513   2.731  0.4165 -0.0837  0.3468
 7781TIP3    H123307   2.794   0.470   2.696  0.2457  0.5287 -0.0382
 7781TIP3    H223308   2.894   0.463   2.810 -2.4606  1.8107  2.5401
 7782TIP3   OH223309   4.211   2.868   1.990 -0.0414  0.0368  0.2197
 7782TIP3    H123310   4.149   2.890   2.060  0.5944  2.1245  0.1890
 7782TIP3    H223311   4.196   2.775   1.973 -1.4470 -0.0878  1.8934
 7783TIP3   OH223312   5.420   1.658   1.626  0.0266  0.0573  0.5411
 7783TIP3    H123313   5.419   1.622   1.537  1.2440 -1.4511  1.0907
 7783TIP3    H223314   5.512   1.658   1.651 -0.4648 -4.0541  3.4581
 7784TIP3   OH223315   1.440   2.884   2.983  0.3043 -0.3189  0.0228
 7784TIP3    H123316   1.499   2.954   3.010  0.3226  0.0222 -0.8886
 7784TIP3    H223317   1.361   2.898   3.037  0.8643 -0.5044  0.9066
 7785TIP3   OH223318   3.226   4.934   2.600 -0.0196 -0.0309 -0.1943
 7785TIP3    H123319   3.185   5.006   2.553 -0.4752 -1.4414 -2.0868
 7785TIP3    H223320   3.168   4.859   2.583  1.8069 -1.4245 -0.5086
 7786TIP3   OH223321   3.016   2.454   0.247  0.0619  0.2718  0.0072
 7786TIP3    H123322   2.986   2.454   0.338 -0.2235 -1.6598 -0.0488
 7786TIP3    H223323   2.993   2.541   0.214 -0.9859  0.5578  1.4118
 7787TIP3   OH223324   6.668   3.972   0.912 -0.3591 -0.6374  0.3379
 7787TIP3    H123325   6.637   4.039   0.972 -1.1378 -0.6518 -0.0268
 7787TIP3    H223326   6.748   3.938   0.952 -0.2322  0.1572  0.7690
 7788TIP3   OH223327   0.036   2.839   1.203 -0.1738  0.1794  0.3209
 7788TIP3    H123328   0.119   2.831   1.250  0.6933  0.4675 -1.0866
 7788TIP3    H223329   0.019   2.750   1.170  0.2053  0.3520 -0.3693
 7789TIP3   OH223330   2.570   3.975   2.303 -0.2747  0.0712  0.2727
 7789TIP3    H123331   2.568   3.900   2.244 -1.1266 -0.3841  0.8668
 7789TIP3    H223332   2.583   4.051   2.245  1.0985 -0.5615 -0.2814
 7790TIP3   OH223333   3.429   4.203   5.660 -0.1093 -0.7773  0.0924
 7790TIP3    H123334   3.389   4.286   5.634 -0.9014 -0.7320  1.3963
 7790TIP3    H223335   3.499   4.228   5.721  0.4052 -1.0084 -0.3922
 7791TIP3   OH223336   5.731   0.602   4.729 -0.2069  0.1423 -0.1593
 7791TIP3    H123337   5.771   0.644   4.653  2.5673 -0.5630  0.7910
 7791TIP3    H223338   5.709   0.674   4.788 -1.7158  0.6388 -1.2593
 7792TIP3   OH223339   2.427   3.788   2.152  0.1418 -0.4714 -0.5534
 7792TIP3    H123340   2.344   3.758   2.189 -0.3763  1.8700  0.3693
 7792TIP3    H223341   2.408   3.800   2.059 -0.2459 -0.9161 -0.5374
 7793TIP3   OH223342   0.258   6.628   0.804  0.0959 -0.0839  0.1652
 7793TIP3    H123343   0.269   6.704   0.862 -3.6846 -0.7607  2.0836
 7793TIP3    H223344   0.238   6.556   0.864  0.4299 -1.8922 -1.8091
 7794TIP3   OH223345   7.236   2.739   2.690  0.3281 -0.6263  0.3302
 7794TIP3    H123346   7.223   2.780   2.776  1.4876 -0.1051  0.2719
 7794TIP3    H223347   7.177   2.787   2.632  0.8110  0.1894  0.4983
 7795TIP3   OH223348   6.563   2.668   1.729 -0.1399  0.0253 -0.4383
 7795TIP3    H123349   6.635   2.671   1.665  1.0780  0.0926  0.8668
 7795TIP3    H223350   6.546   2.760   1.750  0.5481 -0.0398  0.4607
 7796TIP3   OH223351   3.458   4.502   1.838 -0.5075 -0.3919  0.1751
 7796TIP3    H123352   3.464   4.550   1.755 -0.3520  0.2212  0.5276
 7796TIP3    H223353   3.459   4.571   1.905 -1.1715 -0.8511  0.6650
 7797TIP3   OH223354   3.273   6.369   4.708 -0.6014 -0.0963  0.2052
 7797TIP3    H123355   3.315   6.379   4.793  0.4491 -0.5330 -0.2474
 7797TIP3    H223356   3.308   6.440   4.654 -0.5868 -0.3425 -0.1179
 7798TIP3   OH223357   7.081   5.137   4.178  0.2308  0.0985  0.4955
 7798TIP3    H123358   7.112   5.132   4.268  0.1258  0.1452  0.5348
 7798TIP3    H223359   7.135   5.074   4.130 -1.5558 -2.0597  1.1265
 7799TIP3   OH223360   3.953   0.804   3.081 -0.5881  0.6017  0.2245
 7799TIP3    H123361   4.012   0.834   3.150 -0.5220  0.6786  0.1347
 7799TIP3    H223362   3.990   0.721   3.052 -0.1074  1.0060 -0.3408
 7800TIP3   OH223363   0.240   3.027   4.886 -0.0256  0.2372  0.3378
 7800TIP3    H123364   0.251   3.090   4.958 -1.0158 -0.9596  1.5932
 7800TIP3    H223365   0.269   2.943   4.923 -2.0130 -0.7063 -0.1135
 7801TIP3   OH223366   6.258   6.760   5.711  0.1504  0.2516 -0.2022
 7801TIP3    H123367   6.190   6.754   5.645 -1.3820  0.9426  1.2496
 7801TIP3    H223368   6.297   6.672   5.714 -1.5548 -0.5339 -0.1587
 7802TIP3   OH223369   0.713   0.163   4.942 -0.3078 -0.4268 -0.0316
 7802TIP3    H123370   0.650   0.161   5.014 -2.1451 -0.7171 -1.5644
 7802TIP3    H223371   0.763   0.243   4.956 -2.2342  0.7823  0.3047
 7803TIP3   OH223372   0.056   0.768   4.416 -0.2741  0.1208  1.1457
 7803TIP3    H123373   0.062   0.787   4.509 -1.0921 -1.3068  1.5158
 7803TIP3    H223374   0.109   0.689   4.404 -0.2479  0.2402  0.4150
 7804TIP3   OH223375   4.454   3.061   3.714 -0.1878  0.3481  0.2057
 7804TIP3    H123376   4.459   2.977   3.669  1.0522  0.6800 -0.3057
 7804TIP3    H223377   4.471   3.040   3.806  0.7375  0.1108 -0.0136
 7805TIP3   OH223378   4.366   0.139   2.564  0.3064 -0.1781 -0.1227
 7805TIP3    H123379   4.286   0.107   2.605  0.3139 -0.0631 -0.0147
 7805TIP3    H223380   4.346   0.229   2.539  0.4903 -0.0564  0.1599
 7806TIP3   OH223381   2.265   5.512   1.273 -0.6536 -0.3491  0.0478
 7806TIP3    H123382   2.298   5.565   1.201  0.7949  0.8912  1.5531
 7806TIP3    H223383   2.338   5.506   1.335 -1.8393 -1.3447  1.4357
 7807TIP3   OH223384   0.505   5.714   3.220  0.0832  0.4071  0.5172
 7807TIP3    H123385   0.549   5.717   3.305 -0.5017 -0.0033  0.8408
 7807TIP3    H223386   0.466   5.626   3.217  0.7579  0.1303 -0.5036
 7808TIP3   OH223387   4.196   1.200   2.138  0.3563  0.1937  0.1106
 7808TIP3    H123388   4.117   1.147   2.130 -1.9699  3.0665  1.8711
 7808TIP3    H223389   4.205   1.216   2.232  1.0608  2.5962 -0.2972
 7809TIP3   OH223390   6.719   3.777   4.610  0.8825 -1.0460  0.3596
 7809TIP3    H123391   6.798   3.774   4.557 -0.1068  1.2089 -1.4338
 7809TIP3    H223392   6.750   3.778   4.700  3.0665  1.8536 -0.2999
 7810TIP3   OH223393   4.881   1.254   4.688 -0.2114 -0.6722  0.2534
 7810TIP3    H123394   4.819   1.182   4.701  0.3520 -1.3112 -0.5332
 7810TIP3    H223395   4.873   1.307   4.768 -2.2798 -0.3303 -0.1265
 7811TIP3   OH223396   3.668   0.301   5.413 -0.7005  0.3205  0.1371
 7811TIP3    H123397   3.703   0.341   5.334 -0.9057 -0.9804 -0.6400
 7811TIP3    H223398   3.744   0.289   5.471 -0.6291  1.7161  0.3522
 7812TIP3   OH223399   0.558   3.344   1.712  0.3377 -0.5768  0.3215
 7812TIP3    H123400   0.609   3.403   1.767 -0.1446 -0.5058  0.7019
 7812TIP3    H223401   0.622   3.303   1.654  0.7788 -0.2577  0.5806
 7813TIP3   OH223402   1.451   5.305   5.130  0.0728 -0.3268 -0.4201
 7813TIP3    H123403   1.485   5.284   5.217  0.5500 -2.1913 -1.0200
 7813TIP3    H223404   1.466   5.399   5.121  1.4065 -0.3757  0.9284
 7814TIP3   OH223405   3.471   3.634   0.315 -0.1146 -0.2207 -0.1637
 7814TIP3    H123406   3.552   3.678   0.343 -0.8721 -0.1576  2.0900
 7814TIP3    H223407   3.439   3.688   0.242 -0.3910  2.3910  1.7493
 7815TIP3   OH223408   5.920   0.293   3.962 -0.6988 -0.0488 -0.2716
 7815TIP3    H123409   5.945   0.353   4.032  0.4926  0.4183 -1.0674
 7815TIP3    H223410   5.988   0.304   3.896  0.1975 -3.0657 -0.0059
 7816TIP3   OH223411   0.999   3.460   2.234  0.6164  0.8565  0.1220
 7816TIP3    H123412   1.052   3.425   2.163 -0.7052  1.9461 -1.4756
 7816TIP3    H223413   1.041   3.427   2.314  1.8312 -0.8638 -1.1502
 7817TIP3   OH223414   2.977   2.725   4.048 -0.3125 -0.3731 -0.0208
 7817TIP3    H123415   2.918   2.695   4.116 -1.4287  1.0495 -0.3094
 7817TIP3    H223416   3.022   2.800   4.088 -0.3557 -0.0546 -0.5695
 7818TIP3   OH223417   5.588   0.341   5.310  0.0139  0.0300 -0.2049
 7818TIP3    H123418   5.641   0.421   5.311  1.3004 -0.7978  0.5859
 7818TIP3    H223419   5.566   0.328   5.218 -1.4019  2.0117 -0.2292
 7819TIP3   OH223420   1.686   4.933   2.534 -0.0078  0.6799 -0.7195
 7819TIP3    H123421   1.599   4.912   2.500  0.1128 -0.4435 -0.3647
 7819TIP3    H223422   1.746   4.877   2.485  0.3111  0.0074  0.4012
 7820TIP3   OH223423   5.691   5.217   2.580 -0.3925  0.6114  0.3324
 7820TIP3    H123424   5.708   5.295   2.527 -1.0327  0.9503  0.6051
 7820TIP3    H223425   5.653   5.251   2.661 -1.7539 -0.0334  0.0012
 7821TIP3   OH223426   2.940   4.743   4.515 -0.5561 -0.1099  0.8501
 7821TIP3    H123427   2.857   4.710   4.481 -0.8902 -0.2452  1.7723
 7821TIP3    H223428   2.915   4.803   4.586  0.1383 -0.4319  1.3805
 7822TIP3   OH223429   1.027   5.794   0.471  0.2424  0.0167  0.2815
 7822TIP3    H123430   1.097   5.730   0.457 -0.1860 -0.2680 -0.6266
 7822TIP3    H223431   0.956   5.743   0.510 -0.4401 -0.3039 -1.2760
 7823TIP3   OH223432   5.357   0.379   3.365 -0.4626 -0.2241  0.7769
 7823TIP3    H123433   5.445   0.379   3.402 -0.0379  0.0232 -0.2239
 7823TIP3    H223434   5.307   0.435   3.424  0.7459  2.0300 -0.2427
 7824TIP3   OH223435   4.297   2.319   4.789  0.2881 -0.5370 -1.0269
 7824TIP3    H123436   4.288   2.388   4.855  0.2829 -0.8407 -0.7080
 7824TIP3    H223437   4.341   2.362   4.715  0.3870 -0.2227 -0.7879
 7825TIP3   OH223438   6.625   6.087   1.145 -0.4182  0.6086 -0.3532
 7825TIP3    H123439   6.560   6.136   1.196 -0.8696  1.1487 -1.4259
 7825TIP3    H223440   6.624   5.999   1.183  1.2660  1.6248  2.4438
 7826TIP3   OH223441   4.395   5.951   3.548 -0.0195  0.5948  0.1696
 7826TIP3    H123442   4.464   5.994   3.499  0.8931 -0.8920  0.0661
 7826TIP3    H223443   4.385   6.003   3.627  0.8596  1.1192 -0.0545
 7827TIP3   OH223444   2.134   2.470   2.357 -0.4186 -0.2009  0.1708
 7827TIP3    H123445   2.068   2.487   2.289 -0.5610 -1.1162  0.0710
 7827TIP3    H223446   2.135   2.375   2.366 -0.6338 -0.0835  1.6982
 7828TIP3   OH223447   5.912   0.759   2.146 -0.1366  0.1747  0.2065
 7828TIP3    H123448   5.840   0.780   2.086 -0.7461 -1.8393  0.1567
 7828TIP3    H223449   5.981   0.725   2.089  0.1574  0.3958  0.4303
 7829TIP3   OH223450   6.459   5.939   0.682  0.2424  0.1218  0.1143
 7829TIP3    H123451   6.520   5.975   0.747 -0.5893  1.8575 -0.0093
 7829TIP3    H223452   6.379   5.924   0.732  0.3383 -0.8878 -0.0146
 7830TIP3   OH223453   5.040   5.850   2.366 -0.1616 -0.4777 -0.0831
 7830TIP3    H123454   5.007   5.850   2.456 -1.9764  0.6597 -0.7070
 7830TIP3    H223455   5.117   5.793   2.370  1.5597  1.7395  2.7786
 7831TIP3   OH223456   6.724   0.194   4.557 -0.6605 -0.2473 -0.4996
 7831TIP3    H123457   6.724   0.120   4.618  1.0747  0.8754  0.9504
 7831TIP3    H223458   6.706   0.270   4.612  0.5189  0.7501 -1.4426
 7832TIP3   OH223459   5.211   5.696   4.507 -0.3152  0.0003  0.0772
 7832TIP3    H123460   5.219   5.790   4.490 -0.7488  0.2681  1.2705
 7832TIP3    H223461   5.189   5.690   4.600 -0.1692 -1.2925  0.0463
 7833TIP3   OH223462   0.998   0.395   0.329 -0.1328  0.0401 -0.1141
 7833TIP3    H123463   1.060   0.353   0.389 -1.6255 -0.3155  1.2425
 7833TIP3    H223464   1.026   0.486   0.325  0.3836 -0.0852  0.5958
 7834TIP3   OH223465   6.712   1.709   2.840 -0.1115  0.3586  0.1690
 7834TIP3    H123466   6.645   1.719   2.908  0.4500  0.7174  0.6835
 7834TIP3    H223467   6.673   1.747   2.762 -1.7509 -2.2588 -0.4105
 7835TIP3   OH223468   3.512   6.780   1.471  0.7396 -0.0355 -0.1559
 7835TIP3    H123469   3.554   6.827   1.399 -1.0875 -0.4987 -1.5991
 7835TIP3    H223470   3.419   6.791   1.456  0.2943 -1.3110  1.3818
 7836TIP3   OH223471   0.293   4.329   2.449  0.5497  0.7286  0.0914
 7836TIP3    H123472   0.380   4.345   2.414  1.5363 -1.0407  1.5603
 7836TIP3    H223473   0.259   4.256   2.397  0.7725  0.1206  0.7771
 7837TIP3   OH223474   4.115   1.305   2.869 -0.1433  0.3014 -0.4357
 7837TIP3    H123475   4.089   1.218   2.898 -0.3976  0.5211  0.0015
 7837TIP3    H223476   4.208   1.312   2.890 -0.5081  0.7724  1.1345
 7838TIP3   OH223477   6.634   5.085   4.298  0.9041 -0.1525 -0.0635
 7838TIP3    H123478   6.612   5.030   4.223  1.0914  0.3619 -0.5050
 7838TIP3    H223479   6.660   5.169   4.260 -1.6654  1.0781  0.6277
 7839TIP3   OH223480   0.554   2.222   4.493 -0.0616  0.1505  0.0218
 7839TIP3    H123481   0.647   2.204   4.504  0.0619  0.5941 -0.2846
 7839TIP3    H223482   0.532   2.278   4.567  0.4595  2.0001 -1.1722
 7840TIP3   OH223483   4.515   0.043   1.238  0.3320 -0.3872 -0.1068
 7840TIP3    H123484   4.598   0.023   1.194  0.3915  0.5234 -0.4370
 7840TIP3    H223485   4.461  -0.034   1.224  0.6444 -0.4412 -1.0803
 7841TIP3   OH223486   5.438   1.321   0.429  0.1358 -0.3920  0.1386
 7841TIP3    H123487   5.444   1.241   0.377 -1.1030  0.1689 -0.9028
 7841TIP3    H223488   5.529   1.349   0.439  0.3846  0.0416 -2.6526
 7842TIP3   OH223489   6.614   6.783   0.060  0.3086  0.5468 -0.1487
 7842TIP3    H123490   6.650   6.729  -0.011  0.6780  0.8666 -0.2059
 7842TIP3    H223491   6.543   6.730   0.096  1.4709 -0.5471  0.6320
 7843TIP3   OH223492   0.439   1.017   5.741 -0.1136  0.1174  0.4184
 7843TIP3    H123493   0.440   1.047   5.832  0.2111 -0.3316  0.5705
 7843TIP3    H223494   0.348   0.992   5.725 -0.5606  1.9047  0.0270
 7844TIP3   OH223495   6.430   6.187   4.853  0.2881  0.4724 -0.2564
 7844TIP3    H123496   6.462   6.144   4.932  1.9641  0.9444 -0.6225
 7844TIP3    H223497   6.373   6.256   4.884  0.8206  0.5624  0.5483
 7845TIP3   OH223498   1.410   0.442   4.110 -0.2752 -0.2962 -0.2219
 7845TIP3    H123499   1.331   0.472   4.066 -1.1369 -0.4308  1.1574
 7845TIP3    H223500   1.456   0.389   4.045 -0.1429  1.6670 -1.7797
 7846TIP3   OH223501   7.148   2.615   4.793 -0.3887  0.5897  0.2583
 7846TIP3    H123502   7.173   2.707   4.804  0.1529  0.5847 -0.7852
 7846TIP3    H223503   7.209   2.582   4.728 -0.5529 -0.5318  0.6605
 7847TIP3   OH223504   2.101   4.306   1.778  0.5055 -0.1646 -0.3540
 7847TIP3    H123505   2.169   4.348   1.830  0.9539 -2.2064  0.8189
 7847TIP3    H223506   2.021   4.352   1.802  0.9250 -0.1673  1.1643
 7848TIP3   OH223507   3.528   3.392   3.553  0.3297  0.2660 -0.0499
 7848TIP3    H123508   3.566   3.385   3.641  0.7657 -0.3261 -0.2742
 7848TIP3    H223509   3.604   3.407   3.496  0.4495 -2.2745 -0.6796
 7849TIP3   OH223510   0.523   5.691   0.562 -0.4860 -0.1920 -0.2406
 7849TIP3    H123511   0.453   5.756   0.565 -1.3173 -1.0252 -1.1742
 7849TIP3    H223512   0.573   5.714   0.484  1.1641  1.2292  1.1260
 7850TIP3   OH223513   1.164   3.249   5.497 -0.5195  0.1428 -0.0524
 7850TIP3    H123514   1.228   3.307   5.537  0.9206 -2.7522  2.2729
 7850TIP3    H223515   1.205   3.220   5.415  0.8984 -1.0148  1.0034
 7851TIP3   OH223516   3.313   3.081   1.963 -0.1117  0.3374  0.3765
 7851TIP3    H123517   3.258   3.142   2.013 -1.1080  1.5660 -2.0576
 7851TIP3    H223518   3.400   3.122   1.963  0.0686 -0.0050  1.5752
 7852TIP3   OH223519   4.427   2.309   2.931  0.1866 -0.3177 -0.3595
 7852TIP3    H123520   4.357   2.366   2.898  1.3429  0.6330 -1.2833
 7852TIP3    H223521   4.480   2.290   2.854  1.2015 -0.6443  0.4008
 7853TIP3   OH223522   2.149   3.683   4.611 -0.0089  0.4007 -1.0336
 7853TIP3    H123523   2.062   3.657   4.582 -0.3610  0.3489  0.0071
 7853TIP3    H223524   2.133   3.754   4.674  0.5800 -0.5852  0.2872
 7854TIP3   OH223525   2.749   0.624   5.197 -0.3375 -0.0362  0.2427
 7854TIP3    H123526   2.786   0.693   5.252  2.5528  0.2634 -1.8170
 7854TIP3    H223527   2.724   0.669   5.116  0.5242 -1.1710 -0.7018
 7855TIP3   OH223528   5.885   1.537   4.538 -0.2303  0.4884  0.3851
 7855TIP3    H123529   5.964   1.574   4.578 -0.5506  1.2309  0.3377
 7855TIP3    H223530   5.890   1.443   4.557  0.8645  0.4646  0.0431
 7856TIP3   OH223531   3.275   2.598   3.392  0.0634 -0.3193 -0.6671
 7856TIP3    H123532   3.299   2.518   3.345  0.0334  0.6409 -2.4051
 7856TIP3    H223533   3.188   2.620   3.361  1.0001  1.6740 -2.1295
 7857TIP3   OH223534   4.028   3.022   2.420  0.3561  0.0848 -0.3730
 7857TIP3    H123535   4.050   2.952   2.359  1.4973 -0.0692  0.1945
 7857TIP3    H223536   3.932   3.018   2.426  0.2827 -0.3698 -1.5706
 7858TIP3   OH223537   4.988   6.472   1.124  0.6178  0.3440  0.1623
 7858TIP3    H123538   5.035   6.502   1.047  0.0946  1.6006  0.3045
 7858TIP3    H223539   5.034   6.512   1.198 -0.2868  1.0939  0.3381
 7859TIP3   OH223540   4.484   0.351   3.564  0.0447 -0.5922 -0.7440
 7859TIP3    H123541   4.511   0.286   3.628  0.7023 -0.7410 -1.1662
 7859TIP3    H223542   4.435   0.415   3.615  0.3775 -0.8183 -0.1255
 7860TIP3   OH223543   4.434   5.655   4.266 -0.2211 -0.1384 -0.4432
 7860TIP3    H123544   4.517   5.629   4.305 -0.8073  0.6377  1.4763
 7860TIP3    H223545   4.372   5.589   4.298 -1.2115  1.8963  2.2967
 7861TIP3   OH223546   6.022   6.685   1.719 -0.1950 -0.2349 -0.4485
 7861TIP3    H123547   5.979   6.609   1.759 -1.2999  0.2601 -0.6445
 7861TIP3    H223548   6.014   6.755   1.784 -1.4510  0.4030 -1.2425
 7862TIP3   OH223549   2.372   5.835   4.983  0.1203 -0.4861  0.3206
 7862TIP3    H123550   2.329   5.870   5.062  1.4282  0.4084  0.6575
 7862TIP3    H223551   2.379   5.909   4.924 -0.3787 -1.0384 -0.4554
 7863TIP3   OH223552   1.457   3.260   3.267  0.0942 -0.4107  0.0619
 7863TIP3    H123553   1.450   3.259   3.363 -0.5692 -1.1725  0.0107
 7863TIP3    H223554   1.372   3.230   3.236  0.3309 -0.2393 -0.7677
 7864TIP3   OH223555   2.153   0.935   1.319 -0.3721  0.1785  0.0236
 7864TIP3    H123556   2.212   0.974   1.384 -0.1848  0.0695 -0.0798
 7864TIP3    H223557   2.069   0.928   1.364 -0.2527  0.1409  0.2435
 7865TIP3   OH223558   2.779   3.748   3.877 -0.1370  0.1078  0.2685
 7865TIP3    H123559   2.775   3.696   3.797 -0.4288 -0.4205  0.6182
 7865TIP3    H223560   2.841   3.702   3.933 -2.1787 -1.2923  1.5486
 7866TIP3   OH223561   4.411   2.960   3.176 -0.0777 -0.4904  0.0968
 7866TIP3    H123562   4.455   3.041   3.204  0.5492 -0.2667 -1.4573
 7866TIP3    H223563   4.319   2.985   3.169  0.1256  0.1276 -0.4809
 7867TIP3   OH223564   2.518   2.429   4.155  0.1790 -0.2662  0.4145
 7867TIP3    H123565   2.556   2.353   4.111 -1.5202 -0.3270 -1.0928
 7867TIP3    H223566   2.431   2.400   4.181 -0.2176  0.9309  0.4593
 7868TIP3   OH223567   5.132   6.695   1.492 -0.0440 -0.1840 -0.0345
 7868TIP3    H123568   5.221   6.691   1.527  0.2961  0.2770 -0.8264
 7868TIP3    H223569   5.086   6.754   1.552  0.1046 -0.6230  0.5235
 7869TIP3   OH223570   0.175   1.841   2.782 -0.1210  0.0938  0.1763
 7869TIP3    H123571   0.172   1.877   2.693  1.5723  0.4834  0.2535
 7869TIP3    H223572   0.154   1.749   2.771 -1.0596  0.3678 -0.4661
 7870TIP3   OH223573   4.326   2.271   2.147 -0.5467  0.8752  0.4271
 7870TIP3    H123574   4.417   2.293   2.170 -0.4287  0.1093  0.7342
 7870TIP3    H223575   4.328   2.177   2.131 -1.2299  0.9095  0.1270
 7871TIP3   OH223576   6.942   3.963   3.428  0.3211 -0.1110 -0.3226
 7871TIP3    H123577   6.916   4.044   3.471  1.2330 -0.4156  0.8419
 7871TIP3    H223578   7.010   3.926   3.485  0.0425 -1.5994 -0.9156
 7872TIP3   OH223579   2.396   3.518   2.908  0.4331 -0.3228  0.2106
 7872TIP3    H123580   2.347   3.574   2.849  0.4118 -1.5888 -1.0410
 7872TIP3    H223581   2.330   3.481   2.967  0.3261  0.2822  0.4729
 7873TIP3   OH223582   5.878   2.430   2.546  0.3760 -0.1098 -0.2659
 7873TIP3    H123583   5.929   2.349   2.541 -0.4185 -0.7052  0.8648
 7873TIP3    H223584   5.814   2.414   2.615 -0.5184  1.0866 -0.7781
 7874TIP3   OH223585   3.935   2.811   1.457 -0.0019  0.3716  0.3244
 7874TIP3    H123586   4.005   2.771   1.406 -0.1072  2.1785 -1.3921
 7874TIP3    H223587   3.858   2.757   1.439  0.1955  0.4065 -0.6699
 7875TIP3   OH223588   3.752   6.568   1.427 -0.1882 -0.4409 -0.9236
 7875TIP3    H123589   3.788   6.637   1.371 -0.6846 -0.2011 -0.9636
 7875TIP3    H223590   3.787   6.586   1.514 -0.7121  0.1749 -0.8305
 7876TIP3   OH223591   6.100   2.090   0.714  0.9046 -0.3689  0.2409
 7876TIP3    H123592   6.067   2.147   0.783  1.6709 -0.5537  0.7664
 7876TIP3    H223593   6.049   2.115   0.636  0.0468 -0.1489  0.8553
 7877TIP3   OH223594   5.838   0.430   3.009 -0.2048 -0.1296 -0.4574
 7877TIP3    H123595   5.796   0.513   3.033 -1.1007 -0.4457 -0.8838
 7877TIP3    H223596   5.824   0.373   3.084 -0.6842 -0.2811 -0.6568
 7878TIP3   OH223597   4.862   4.091   0.662 -0.2238  0.3346 -0.3476
 7878TIP3    H123598   4.878   4.096   0.756  0.3938 -1.5372 -0.3217
 7878TIP3    H223599   4.822   4.005   0.648 -0.7683  0.7818 -1.7388
 7879TIP3   OH223600   1.379   0.898   3.935  0.2734  0.0219  0.3768
 7879TIP3    H123601   1.343   0.914   3.848 -1.2904  0.8290  1.1436
 7879TIP3    H223602   1.463   0.945   3.935 -0.4859  1.4223 -0.1565
 7880TIP3   OH223603   5.332   0.795   4.133  0.2830  0.1629 -0.3782
 7880TIP3    H123604   5.332   0.888   4.110  4.2083  0.1221 -1.2562
 7880TIP3    H223605   5.252   0.761   4.092  0.6063  2.4891 -3.3053
 7881TIP3   OH223606   3.465   2.421   3.974 -0.1664  0.5241  0.6372
 7881TIP3    H123607   3.517   2.484   4.023  0.6333  0.2449  0.1697
 7881TIP3    H223608   3.404   2.475   3.923 -0.3734  0.8521  1.2196
 7882TIP3   OH223609   4.382   1.303   2.949 -0.7169  0.8501  0.3503
 7882TIP3    H123610   4.424   1.220   2.975  0.2309  1.2112  0.0188
 7882TIP3    H223611   4.427   1.369   3.001 -0.9533  1.2396  0.0627
 7883TIP3   OH223612   0.043   2.644   0.281  0.5264  0.4440  0.2228
 7883TIP3    H123613   0.071   2.552   0.279 -0.7520 -0.0292  1.6132
 7883TIP3    H223614   0.004   2.659   0.195  3.4643  0.6710 -1.1921
 7884TIP3   OH223615   3.717   3.403   2.179 -0.2264  0.0316  0.1682
 7884TIP3    H123616   3.631   3.415   2.139  0.3924  2.6685 -0.5919
 7884TIP3    H223617   3.779   3.422   2.109  0.9743 -0.9367  0.9269
 7885TIP3   OH223618   2.890   0.162   1.475 -0.2872  0.5161  0.9117
 7885TIP3    H123619   2.856   0.251   1.477 -1.4517  0.1347 -0.3099
 7885TIP3    H223620   2.964   0.165   1.413 -1.4605  0.2995 -0.5475
 7886TIP3   OH223621   7.147   2.902   3.569 -0.2108 -0.2820 -0.1674
 7886TIP3    H123622   7.080   2.937   3.628 -0.2646  0.3532 -0.5922
 7886TIP3    H223623   7.124   2.938   3.484 -0.6656 -1.9154 -0.7723
 7887TIP3   OH223624   6.556   6.267   2.001  0.7625  0.9659 -0.0537
 7887TIP3    H123625   6.611   6.226   1.933  2.3557  1.8188  0.6768
 7887TIP3    H223626   6.613   6.273   2.077 -1.2638 -0.8384  1.7448
 7888TIP3   OH223627   7.122   2.610   3.875 -0.0399  0.5904 -0.2160
 7888TIP3    H123628   7.079   2.688   3.909 -1.0073  1.3651 -2.9361
 7888TIP3    H223629   7.050   2.550   3.854  0.0814  1.4964 -3.8671
 7889TIP3   OH223630   6.848   3.981   1.981  0.0213 -0.8018 -0.0678
 7889TIP3    H123631   6.931   4.012   1.945 -0.4113  1.4380  0.6461
 7889TIP3    H223632   6.781   4.016   1.922 -0.5161  0.1188  1.0193
 7890TIP3   OH223633   6.397   1.989   5.386 -0.0146  1.0172  0.3482
 7890TIP3    H123634   6.388   1.920   5.452 -0.0044  1.2077  0.5531
 7890TIP3    H223635   6.445   2.058   5.432  2.7402 -0.0316 -0.7537
 7891TIP3   OH223636   0.121   2.011   0.447  0.0674 -0.0567  0.0351
 7891TIP3    H123637   0.207   1.995   0.408 -0.4263  1.2664 -1.7099
 7891TIP3    H223638   0.129   2.096   0.489 -0.3486 -0.0045  0.0129
 7892TIP3   OH223639   5.210   1.415   3.895 -0.6010 -0.4906 -0.0578
 7892TIP3    H123640   5.174   1.339   3.941 -1.2635  0.8695  1.7788
 7892TIP3    H223641   5.286   1.441   3.948 -0.6608  0.4107 -0.3971
 7893TIP3   OH223642   0.492   1.827   4.391  0.3637 -0.0031  0.4708
 7893TIP3    H123643   0.514   1.735   4.377  0.3818 -0.0205  0.6085
 7893TIP3    H223644   0.561   1.860   4.448 -0.1286 -0.1436  1.1753
 7894TIP3   OH223645   0.248   1.063   5.504  0.2476 -0.1957 -1.0628
 7894TIP3    H123646   0.255   0.970   5.482  1.5350 -1.7488  4.4147
 7894TIP3    H223647   0.165   1.070   5.551  0.9585  1.0028  0.0628
 7895TIP3   OH223648   5.034   6.813   2.926  0.3471 -0.0555  0.1854
 7895TIP3    H123649   4.951   6.790   2.968  0.7483  0.1583  1.1198
 7895TIP3    H223650   5.018   6.799   2.833 -0.2787 -1.4170  0.4711
 7896TIP3   OH223651   5.753   3.552   5.278  0.1584 -0.1737 -0.1694
 7896TIP3    H123652   5.738   3.498   5.200 -0.5366  1.6999 -1.4201
 7896TIP3    H223653   5.671   3.545   5.327 -0.6617  1.1460 -1.2752
 7897TIP3   OH223654   2.192   0.460   0.115  0.3082 -0.5089  0.8262
 7897TIP3    H123655   2.259   0.525   0.091  0.9247 -1.4804 -0.1951
 7897TIP3    H223656   2.149   0.439   0.033  1.1951 -2.5415  0.8089
 7898TIP3   OH223657   1.281   2.217   4.733 -0.5291  0.5764  0.2699
 7898TIP3    H123658   1.367   2.260   4.728 -0.1641 -0.2128 -0.4804
 7898TIP3    H223659   1.284   2.150   4.666 -2.0843  1.1248 -0.4015
 7899TIP3   OH223660   5.671   6.707   1.181  0.3908  0.5688 -0.5581
 7899TIP3    H123661   5.688   6.762   1.105  2.0725  1.1563  0.1897
 7899TIP3    H223662   5.700   6.759   1.256  1.2609 -0.9764  0.2466
 7900TIP3   OH223663   2.283   5.378   0.369 -0.0963  0.1338 -0.1326
 7900TIP3    H123664   2.322   5.298   0.405 -0.2918  0.0247 -0.1576
 7900TIP3    H223665   2.230   5.347   0.296 -1.3090  0.1077  0.7275
 7901TIP3   OH223666   5.979   5.299   4.557 -0.0643  0.5100 -0.0557
 7901TIP3    H123667   5.988   5.371   4.620  0.0829  0.6327 -0.2158
 7901TIP3    H223668   5.908   5.326   4.499  0.4963  0.8815 -0.5862
 7902TIP3   OH223669   4.641   6.458   0.335 -0.3145  0.3316 -0.1009
 7902TIP3    H123670   4.633   6.411   0.252 -0.9663  0.8273 -0.3354
 7902TIP3    H223671   4.629   6.550   0.311  0.6089  0.5945  0.3947
 7903TIP3   OH223672   2.605   1.489   1.562  0.2938  0.0701  1.0586
 7903TIP3    H123673   2.511   1.500   1.576 -0.1600 -0.9289 -0.7996
 7903TIP3    H223674   2.637   1.451   1.643 -1.4239 -2.1083  0.8193
 7904TIP3   OH223675   4.121   2.382   0.985  0.2529  0.3729 -0.0582
 7904TIP3    H123676   4.065   2.445   1.031  1.5369  1.8914 -0.5025
 7904TIP3    H223677   4.155   2.430   0.910  2.4240 -0.3561  0.3800
 7905TIP3   OH223678   5.492   3.197   5.624 -0.7717 -0.1041  0.0708
 7905TIP3    H123679   5.577   3.165   5.654 -0.9769 -0.0725  0.6964
 7905TIP3    H223680   5.469   3.138   5.551  0.1720  0.4281 -0.6765
 7906TIP3   OH223681   3.352   4.087   4.430  0.9161  0.3169  0.1330
 7906TIP3    H123682   3.272   4.040   4.457  1.6291 -0.5952  0.7131
 7906TIP3    H223683   3.333   4.179   4.450  0.6983 -0.0981  2.0901
 7907TIP3   OH223684   3.359   6.336   2.016  0.0293 -0.5313 -0.4959
 7907TIP3    H123685   3.437   6.369   2.059 -0.0583  0.3795 -1.0243
 7907TIP3    H223686   3.386   6.250   1.981  0.2131 -1.0958  0.9767
 7908TIP3   OH223687   3.085   2.386   1.335  0.1126  0.6035  0.2742
 7908TIP3    H123688   3.085   2.424   1.423  1.1307  0.6541  0.2648
 7908TIP3    H223689   3.080   2.292   1.350  0.0204  0.6256  0.3841
 7909TIP3   OH223690   1.127   0.181   0.990  0.1548 -0.4894 -0.7939
 7909TIP3    H123691   1.187   0.242   0.948  1.7712 -1.8593 -0.5984
 7909TIP3    H223692   1.182   0.107   1.016 -1.3698 -1.1654  0.7506
 7910TIP3   OH223693   4.912   1.477   2.021  1.0288  0.2030 -0.4178
 7910TIP3    H123694   4.907   1.419   1.945 -0.2151 -1.0049  0.5464
 7910TIP3    H223695   4.854   1.550   1.998  1.5876  0.4422 -1.1062
 7911TIP3   OH223696   3.830   0.981   2.615  0.3071  0.0856  0.1084
 7911TIP3    H123697   3.884   1.054   2.644  0.8687 -0.9316  1.8009
 7911TIP3    H223698   3.796   0.943   2.696 -1.5692 -0.3505 -0.8255
 7912TIP3   OH223699   4.834   6.736   1.319  0.1606 -0.2771  0.1268
 7912TIP3    H123700   4.771   6.709   1.252  0.6336 -1.5113  0.1464
 7912TIP3    H223701   4.896   6.792   1.272  0.1438 -0.6436 -0.3401
 7913TIP3   OH223702   4.193   6.239   3.387  0.4542 -0.0478  0.3846
 7913TIP3    H123703   4.281   6.255   3.422  0.9860  0.8002 -1.2399
 7913TIP3    H223704   4.194   6.147   3.360  0.2230 -0.5500  1.9786
 7914TIP3   OH223705   4.164   6.285   4.078 -0.1129  0.0290  0.0203
 7914TIP3    H123706   4.089   6.344   4.069  0.0955  0.4993  1.1619
 7914TIP3    H223707   4.205   6.311   4.161  0.9708 -0.6096 -0.2953
 7915TIP3   OH223708   5.581   5.687   4.461 -0.3130 -0.1839  0.3174
 7915TIP3    H123709   5.619   5.688   4.373  1.4419  0.8997  1.0228
 7915TIP3    H223710   5.566   5.780   4.481 -1.7254 -0.4863  0.7650
 7916TIP3   OH223711   0.578   1.644   3.967 -0.5653  0.0383  0.5507
 7916TIP3    H123712   0.541   1.637   3.879  0.9341  0.1574 -0.1279
 7916TIP3    H223713   0.613   1.733   3.971 -0.3466 -0.0690  1.1482
 7917TIP3   OH223714   4.192   3.230   3.115  0.2485  0.5589  0.1556
 7917TIP3    H123715   4.138   3.245   3.192  0.1407 -1.8429  0.6087
 7917TIP3    H223716   4.129   3.208   3.046  0.5130 -1.5645  0.5163
 7918TIP3   OH223717   1.049   2.114   3.966 -0.3877 -0.0828  0.1269
 7918TIP3    H123718   1.108   2.116   3.891  0.6186  1.2886  0.9042
 7918TIP3    H223719   0.968   2.153   3.934 -0.4872 -0.8914 -0.6335
 7919TIP3   OH223720   5.543   5.088   5.418  0.0774  0.4017 -0.3807
 7919TIP3    H123721   5.490   5.132   5.351  1.2600  0.4190 -1.3604
 7919TIP3    H223722   5.630   5.082   5.378  1.4883  2.4968  2.0377
 7920TIP3   OH223723   5.960   0.353   5.002 -0.3174  0.4455 -0.2585
 7920TIP3    H123724   5.866   0.339   5.005 -0.2650  0.0182 -0.5413
 7920TIP3    H223725   5.983   0.345   4.909 -0.4496  3.6104 -0.6682
 7921TIP3   OH223726   3.001   2.216   4.537  0.5824  0.1228  0.4759
 7921TIP3    H123727   2.952   2.140   4.507  2.2002 -0.7520 -0.0316
 7921TIP3    H223728   2.949   2.249   4.611 -1.5365  0.1468 -0.9224
 7922TIP3   OH223729   6.603   0.535   4.997 -0.0499 -0.0281 -0.4236
 7922TIP3    H123730   6.633   0.444   5.007 -2.7637 -0.8144  1.7728
 7922TIP3    H223731   6.668   0.587   5.044  0.0635 -1.1887  0.7661
 7923TIP3   OH223732   0.141   2.811   4.470 -0.0102  0.2630  0.3683
 7923TIP3    H123733   0.077   2.831   4.538 -1.6647 -0.1796 -1.0038
 7923TIP3    H223734   0.178   2.727   4.496  0.5101  0.8244  1.5038
 7924TIP3   OH223735   0.967   3.108   5.273  0.0791  0.3646  1.4835
 7924TIP3    H123736   1.053   3.075   5.298  0.8799  1.6725  0.5775
 7924TIP3    H223737   0.932   3.043   5.213  2.5783  2.0100 -2.0856
 7925TIP3   OH223738   2.837   3.443   2.867  0.0785 -0.1244  0.5248
 7925TIP3    H123739   2.758   3.401   2.832  0.5782  0.2835 -1.1887
 7925TIP3    H223740   2.885   3.471   2.789  1.8101 -0.1509  1.5529
 7926TIP3   OH223741   2.039   2.124   4.554 -0.3747 -0.2766  0.0812
 7926TIP3    H123742   2.114   2.145   4.498 -0.2088  0.3845  0.5410
 7926TIP3    H223743   1.978   2.197   4.541 -1.2740 -1.1419 -0.8328
 7927TIP3   OH223744   4.615   0.650   4.934  0.2774  0.4508 -0.0252
 7927TIP3    H123745   4.709   0.637   4.948  0.2898  0.8188  0.2167
 7927TIP3    H223746   4.573   0.592   4.998  0.3396  0.6665  0.2138
 7928TIP3   OH223747   3.308   1.659   1.033  0.4554 -0.2397  0.1589
 7928TIP3    H123748   3.306   1.694   1.122 -0.0104  1.7979 -0.5927
 7928TIP3    H223749   3.283   1.567   1.043 -1.7964  0.4603  1.9322
 7929TIP3   OH223750   1.536   2.278   1.464 -0.4232 -0.1171  0.1126
 7929TIP3    H123751   1.479   2.288   1.540  1.0894  0.3963  1.2307
 7929TIP3    H223752   1.488   2.319   1.392 -2.1911 -1.2340  0.5944
 7930TIP3   OH223753   4.653   2.209   4.639  0.2321 -0.1789  0.0923
 7930TIP3    H123754   4.719   2.145   4.615  0.9248  1.2240 -1.9828
 7930TIP3    H223755   4.576   2.185   4.587 -0.3942 -0.7638  1.2130
 7931TIP3   OH223756   1.270   3.375   4.885 -0.0624  0.2504  0.8732
 7931TIP3    H123757   1.339   3.309   4.889 -0.2240  0.1464  2.6108
 7931TIP3    H223758   1.301   3.446   4.941  0.0633  1.6653 -0.8653
 7932TIP3   OH223759   1.621   2.042   0.530 -0.4930 -0.5938  0.6428
 7932TIP3    H123760   1.529   2.016   0.521 -0.9460  0.5188  1.7328
 7932TIP3    H223761   1.669   1.959   0.531 -1.3939 -1.1783 -0.6289
 7933TIP3   OH223762   2.567   5.635   2.667 -0.0872  0.1703  0.1995
 7933TIP3    H123763   2.648   5.686   2.662 -0.1510  0.1556 -1.8592
 7933TIP3    H223764   2.505   5.694   2.710 -0.0272  1.7431 -1.6832
 7934TIP3   OH223765   5.436   0.596   5.689  0.1801  0.0664 -0.0027
 7934TIP3    H123766   5.404   0.554   5.609 -1.1034 -1.1374  1.0883
 7934TIP3    H223767   5.426   0.690   5.672 -2.2592 -0.2060 -0.4339
 7935TIP3   OH223768   3.505   6.801   3.271 -0.4708 -0.0276 -0.2959
 7935TIP3    H123769   3.553   6.748   3.335 -0.1153 -0.5733 -1.0032
 7935TIP3    H223770   3.568   6.814   3.200 -0.5696  1.2918 -0.1717
 7936TIP3   OH223771   7.138   6.063   3.614  0.0967 -0.3347 -0.2470
 7936TIP3    H123772   7.113   5.998   3.678 -0.5181  0.8722  0.7780
 7936TIP3    H223773   7.192   6.015   3.551 -0.7218 -1.9082  0.2082
 7937TIP3   OH223774   2.709   3.414   2.370  0.0851 -0.4752  0.1917
 7937TIP3    H123775   2.630   3.400   2.422 -0.7242  0.4048 -0.7604
 7937TIP3    H223776   2.748   3.493   2.407 -0.6836  0.3604 -0.7134
 7938TIP3   OH223777   4.961   5.795   0.299  0.0524  0.0598  0.7140
 7938TIP3    H123778   5.005   5.869   0.257  0.4104 -0.0926  0.8090
 7938TIP3    H223779   5.020   5.770   0.370 -0.8491  0.7277  1.7286
 7939TIP3   OH223780   0.944   0.555   3.873 -0.0706 -0.2783  0.0302
 7939TIP3    H123781   0.946   0.616   3.947 -1.5708 -0.4267  0.2217
 7939TIP3    H223782   0.860   0.573   3.830  1.0998  0.3839 -2.1569
 7940TIP3   OH223783   0.062   3.959   5.052  0.1057  0.1937  0.1401
 7940TIP3    H123784   0.028   3.877   5.087 -2.2005  1.2634  0.5759
 7940TIP3    H223785   0.118   3.933   4.979 -1.3005 -1.7218 -0.3161
 7941TIP3   OH223786   6.287   4.021   1.189  0.0593  0.0069  0.1129
 7941TIP3    H123787   6.346   4.005   1.263  1.1231  0.2808 -0.6531
 7941TIP3    H223788   6.224   3.950   1.193 -0.0409  0.1377  1.4133
 7942TIP3   OH223789   1.761   4.873   0.176 -0.4397  0.2986  0.7328
 7942TIP3    H123790   1.849   4.846   0.152 -1.3729 -1.3031 -1.0545
 7942TIP3    H223791   1.755   4.964   0.145  0.5241  0.3944  0.7828
 7943TIP3   OH223792   4.142   0.987   0.312 -0.2317  0.3625 -0.0078
 7943TIP3    H123793   4.153   1.076   0.279 -0.2091  0.3691  0.0170
 7943TIP3    H223794   4.161   0.931   0.236 -0.8477  0.3898 -0.1799
 7944TIP3   OH223795   4.131   4.577   5.224 -0.3505 -0.5065 -0.0703
 7944TIP3    H123796   4.060   4.616   5.172 -0.6460 -1.7540 -0.6401
 7944TIP3    H223797   4.168   4.651   5.273 -2.2326  0.1355  0.4783
 7945TIP3   OH223798   0.268   5.848   3.212 -0.2877 -0.3218 -0.1506
 7945TIP3    H123799   0.355   5.812   3.230 -0.6856  0.1067  3.4162
 7945TIP3    H223800   0.212   5.771   3.200  0.2171 -0.6848 -0.1757
 7946TIP3   OH223801   3.955   0.611   4.510  0.1164 -0.2312 -0.8255
 7946TIP3    H123802   3.985   0.548   4.576 -1.3150  1.2466  1.3679
 7946TIP3    H223803   3.877   0.572   4.473 -0.9232  0.2897  0.7237
 7947TIP3   OH223804   2.222   0.840   4.720 -0.2627 -0.4974 -0.0150
 7947TIP3    H123805   2.241   0.751   4.749  0.0842 -0.2321  0.5887
 7947TIP3    H223806   2.126   0.843   4.712 -0.4588 -0.3543  1.9122
 7948TIP3   OH223807   5.259   3.270   2.889  0.1210  0.0340 -0.1128
 7948TIP3    H123808   5.297   3.203   2.947 -1.2829  1.3443  2.5484
 7948TIP3    H223809   5.317   3.345   2.897 -0.1932  0.2944 -0.2320
 7949TIP3   OH223810   1.232   6.694   3.099  0.1159  0.1286 -0.2252
 7949TIP3    H123811   1.242   6.682   3.194 -0.2444  0.0007 -0.2015
 7949TIP3    H223812   1.240   6.605   3.063 -1.1343 -0.0182 -0.1822
 7950TIP3   OH223813   5.956   1.798   2.195 -0.5685  0.2330 -0.5640
 7950TIP3    H123814   6.049   1.795   2.173  0.1589  2.0738  1.8540
 7950TIP3    H223815   5.918   1.858   2.131 -0.0155 -0.0990 -1.2220
 7951TIP3   OH223816   5.848   5.617   1.574 -0.4010  0.3315  0.3852
 7951TIP3    H123817   5.916   5.569   1.621  0.6886  1.3763 -0.0703
 7951TIP3    H223818   5.788   5.550   1.542 -0.0082 -0.5479  1.4651
 7952TIP3   OH223819   0.942   0.177   1.924 -0.0946 -0.7090 -0.2179
 7952TIP3    H123820   0.887   0.126   1.984  0.8484  1.3404  2.6015
 7952TIP3    H223821   1.028   0.135   1.929 -0.2554 -1.1673 -1.0423
 7953TIP3   OH223822   2.943   2.000   1.981 -0.0974 -0.1185  0.4654
 7953TIP3    H123823   2.847   1.991   1.981 -0.4038  2.3861  0.6394
 7953TIP3    H223824   2.968   1.999   1.889 -0.6222  1.4316  0.2650
 7954TIP3   OH223825   2.715   5.383   3.422  0.3161 -0.2266 -0.2918
 7954TIP3    H123826   2.784   5.317   3.430 -1.6085 -2.5819 -1.7003
 7954TIP3    H223827   2.634   5.334   3.429 -1.2635  2.1982 -0.3298
 7955TIP3   OH223828   1.755   4.385   5.896 -0.3440 -0.1211  0.3114
 7955TIP3    H123829   1.825   4.377   5.960 -0.8061 -0.9814  0.7217
 7955TIP3    H223830   1.800   4.413   5.815  0.7755 -2.4624  0.0476
 7956TIP3   OH223831   1.403   1.530   1.961 -0.4065 -0.2363  0.5573
 7956TIP3    H123832   1.387   1.436   1.969  1.2150 -0.5074  0.8656
 7956TIP3    H223833   1.351   1.569   2.032 -3.2815 -0.5554 -1.1813
 7957TIP3   OH223834   2.033   3.686   5.226 -0.0983  0.0404 -0.2342
 7957TIP3    H123835   2.032   3.727   5.313 -0.5347 -1.4587  0.5039
 7957TIP3    H223836   1.982   3.746   5.171  1.0131  1.5043  0.2802
 7958TIP3   OH223837   3.943   3.247   5.569  0.1204  0.0637  0.2464
 7958TIP3    H123838   3.942   3.296   5.651  1.8215  2.5597 -1.0857
 7958TIP3    H223839   4.013   3.182   5.580  1.5402  1.5355  0.2375
 7959TIP3   OH223840   0.176   4.200   5.140  0.5197 -0.4322 -0.3907
 7959TIP3    H123841   0.137   4.268   5.085 -0.2458 -0.7911 -0.2978
 7959TIP3    H223842   0.123   4.122   5.123 -0.1768 -0.3801  1.3838
 7960TIP3   OH223843   3.446   3.171   2.720 -0.0263  0.1303  0.2646
 7960TIP3    H123844   3.352   3.164   2.701 -0.3297 -0.2086  1.7054
 7960TIP3    H223845   3.488   3.182   2.635 -1.6331  3.5328 -0.2414
 7961TIP3   OH223846   3.593   0.802   2.450 -0.3703 -0.1404 -0.0697
 7961TIP3    H123847   3.635   0.836   2.371 -0.3812 -1.4470 -0.6790
 7961TIP3    H223848   3.517   0.859   2.464  1.6977  2.5007  1.2562
 7962TIP3   OH223849   3.435   2.468   5.062  0.3850 -0.7180 -0.1615
 7962TIP3    H123850   3.351   2.422   5.073 -0.1388 -0.3197 -2.0193
 7962TIP3    H223851   3.422   2.552   5.106 -0.8326  0.0112 -1.7924
 7963TIP3   OH223852   5.613   3.421   5.538  0.0292 -0.0389  0.3558
 7963TIP3    H123853   5.580   3.508   5.563  0.8952  0.1641  0.8218
 7963TIP3    H223854   5.556   3.360   5.585 -1.9045  0.1847 -1.5420
 7964TIP3   OH223855   5.249   4.119   1.359 -0.8415  0.7946 -0.3196
 7964TIP3    H123856   5.241   4.208   1.393  0.9659  0.3129  1.5843
 7964TIP3    H223857   5.205   4.064   1.424  0.6872  0.0555  0.1379
 7965TIP3   OH223858   6.333   1.110   1.858  0.4527 -0.5850  0.4124
 7965TIP3    H123859   6.365   1.164   1.786  0.1431 -1.7980 -0.6573
 7965TIP3    H223860   6.405   1.050   1.877 -0.2437 -1.7265 -0.3975
 7966TIP3   OH223861   3.692   1.670   0.269  0.2665 -0.0347 -0.7652
 7966TIP3    H123862   3.628   1.697   0.203  0.3425 -0.9104 -1.2172
 7966TIP3    H223863   3.659   1.585   0.301  1.1189 -0.4259 -0.9039
 7967TIP3   OH223864   2.565   2.810   2.156 -0.5290  0.0532  0.3142
 7967TIP3    H123865   2.573   2.757   2.235 -1.4844 -0.8469 -0.1708
 7967TIP3    H223866   2.480   2.854   2.166  0.0267  1.1359  0.4782
 7968TIP3   OH223867   3.287   1.697   0.296  0.0552  0.9900 -0.4215
 7968TIP3    H123868   3.280   1.606   0.323  0.6569  0.5491 -1.6943
 7968TIP3    H223869   3.325   1.742   0.372  2.4449 -0.3432 -0.7297
 7969TIP3   OH223870   4.201   5.659   4.825 -0.3131 -0.1495  0.5240
 7969TIP3    H123871   4.258   5.732   4.850  2.0466 -1.8728  0.4608
 7969TIP3    H223872   4.187   5.610   4.906  1.1273 -1.5695 -0.0295
 7970TIP3   OH223873   0.555   4.105   0.692  0.5478 -0.2090 -0.1606
 7970TIP3    H123874   0.513   4.023   0.718 -0.2680  0.2707  0.0558
 7970TIP3    H223875   0.483   4.159   0.659  1.2375  0.0203 -1.3488
 7971TIP3   OH223876   4.503   4.696   3.707 -0.5208  0.1492  0.7936
 7971TIP3    H123877   4.470   4.783   3.682 -2.3246 -0.6936  0.0871
 7971TIP3    H223878   4.509   4.648   3.625  3.0525  0.3530  0.8039
 7972TIP3   OH223879   7.006   6.579   2.790  0.1768 -0.2073 -0.1686
 7972TIP3    H123880   6.961   6.503   2.754 -0.5050  0.3732 -0.5763
 7972TIP3    H223881   6.998   6.569   2.885 -0.8571 -0.1060 -0.2320
 7973TIP3   OH223882   1.217   2.838   5.833 -0.9706 -0.1662  0.1374
 7973TIP3    H123883   1.123   2.853   5.822 -0.7227  1.0898 -0.4120
 7973TIP3    H223884   1.252   2.922   5.865 -0.2233 -1.0015  1.6733
 7974TIP3   OH223885   4.584   2.210   0.044 -0.3710 -0.7899  0.0503
 7974TIP3    H123886   4.581   2.277   0.113  0.6035  0.0958 -0.7261
 7974TIP3    H223887   4.509   2.153   0.062 -0.2374 -0.4727  1.7204
 7975TIP3   OH223888   4.239   6.264   1.239 -0.5757  0.2444 -0.3627
 7975TIP3    H123889   4.235   6.175   1.203  0.8827  0.2400 -0.5639
 7975TIP3    H223890   4.253   6.251   1.333 -1.2596  0.2668 -0.2539
 7976TIP3   OH223891   5.314   6.576   4.780  0.1564 -0.1001 -0.1096
 7976TIP3    H123892   5.314   6.517   4.856  1.0873 -0.7960 -0.6205
 7976TIP3    H223893   5.246   6.641   4.799 -0.3236 -0.8623  0.8461
 7977TIP3   OH223894   1.480   1.656   2.714 -0.0322 -0.1154  0.2192
 7977TIP3    H123895   1.438   1.596   2.774 -0.3902  0.2288  0.3191
 7977TIP3    H223896   1.452   1.627   2.627 -0.0033 -0.2428  0.2525
 7978TIP3   OH223897   6.262   2.943   1.982  0.1079  0.3154  0.1588
 7978TIP3    H123898   6.248   2.996   2.060  1.3341 -1.6113  1.8035
 7978TIP3    H223899   6.352   2.961   1.956 -0.0165  0.2973 -0.3032
 7979TIP3   OH223900   6.005   6.206   4.444  0.9598  0.1178 -0.2485
 7979TIP3    H123901   5.983   6.169   4.359  0.9465  0.9439 -0.6025
 7979TIP3    H223902   6.013   6.129   4.501 -1.5692 -0.3488 -0.3861
 7980TIP3   OH223903   3.803   5.967   4.231 -0.5317 -0.8463 -0.0163
 7980TIP3    H123904   3.707   5.959   4.230 -0.5187 -0.9926 -0.0750
 7980TIP3    H223905   3.825   5.978   4.324 -0.6876  0.1945 -0.0898
 7981TIP3   OH223906   3.687   6.702   3.467 -0.0315 -0.0845 -0.3670
 7981TIP3    H123907   3.777   6.670   3.474  0.2859  1.0256  1.0814
 7981TIP3    H223908   3.633   6.623   3.476  0.7792 -0.6867 -0.6785
 7982TIP3   OH223909   0.773   1.261   2.382 -0.4393 -0.6169  0.4076
 7982TIP3    H123910   0.778   1.241   2.289  0.0019  1.7357 -0.1431
 7982TIP3    H223911   0.714   1.336   2.388 -0.5435 -0.7839  2.0406
 7983TIP3   OH223912   3.207   4.322   3.188 -0.4014 -0.0388 -0.6991
 7983TIP3    H123913   3.254   4.275   3.119 -0.2712  1.1133 -1.4070
 7983TIP3    H223914   3.258   4.401   3.203  0.5353 -1.0390  1.9629
 7984TIP3   OH223915   4.511   0.578   2.612  0.0952 -0.3524 -0.2018
 7984TIP3    H123916   4.482   0.530   2.534 -1.3734  1.9611 -1.1971
 7984TIP3    H223917   4.580   0.635   2.580  0.7950 -0.7105  0.6367
 7985TIP3   OH223918   0.430   3.825   4.482  0.4315  0.1430  0.3471
 7985TIP3    H123919   0.420   3.898   4.543 -0.3929  0.1386  0.2336
 7985TIP3    H223920   0.372   3.757   4.517 -0.0042  0.1209 -0.3957
 7986TIP3   OH223921   1.142   1.447   4.024 -0.2611 -0.1490  0.2858
 7986TIP3    H123922   1.080   1.506   4.067 -1.1851 -0.1024 -1.0474
 7986TIP3    H223923   1.139   1.472   3.931  2.2800  0.3101  0.2541
 7987TIP3   OH223924   2.686   4.002   2.733 -0.5649  0.0980  0.0098
 7987TIP3    H123925   2.697   4.028   2.824  0.9500  1.7268 -0.5778
 7987TIP3    H223926   2.616   4.059   2.700  0.1746  0.8291 -0.3139
 7988TIP3   OH223927   1.006   3.862   4.908  0.1364  0.4479  0.3913
 7988TIP3    H123928   1.090   3.905   4.894  0.5703 -0.5350 -0.1344
 7988TIP3    H223929   0.984   3.879   4.999  1.6647 -0.5622  0.9825
 7989TIP3   OH223930   3.549   6.672   1.149  0.0542 -0.0243 -0.0089
 7989TIP3    H123931   3.482   6.666   1.218  1.1850 -0.3230  1.1017
 7989TIP3    H223932   3.511   6.626   1.075  0.0635 -2.6215  1.4751
 7990TIP3   OH223933   6.861   5.888   3.162 -0.0156 -0.3358  0.0772
 7990TIP3    H123934   6.890   5.962   3.215 -0.0784  0.0698 -0.4459
 7990TIP3    H223935   6.818   5.928   3.086 -2.0660 -0.9170  0.8706
 7991TIP3   OH223936   1.342   0.786   0.190  0.4092 -0.0358 -0.5256
 7991TIP3    H123937   1.334   0.842   0.113  1.7873  0.7507 -0.1447
 7991TIP3    H223938   1.301   0.836   0.260  0.0559 -0.2965 -0.5483
 7992TIP3   OH223939   2.445   4.596   0.471 -0.4052 -0.2766 -0.3840
 7992TIP3    H123940   2.381   4.551   0.416 -0.3915 -0.5582 -0.1750
 7992TIP3    H223941   2.530   4.569   0.435 -0.3944 -0.5288 -0.1803
 7993TIP3   OH223942   0.430   3.655   0.848  0.2459  0.3632  0.0810
 7993TIP3    H123943   0.469   3.617   0.770  0.5773  1.1032 -0.1255
 7993TIP3    H223944   0.404   3.580   0.901 -1.6747 -0.1952 -1.5198
 7994TIP3   OH223945   6.564   2.122   0.890  0.1580  0.3104 -0.3389
 7994TIP3    H123946   6.495   2.137   0.825 -0.3925  2.0022  0.5634
 7994TIP3    H223947   6.523   2.143   0.974  0.6833 -2.3921  0.6843
 7995TIP3   OH223948   5.584   1.111   1.495  0.3216 -0.0070 -1.1203
 7995TIP3    H123949   5.544   1.025   1.506 -0.9401  0.3536 -2.4548
 7995TIP3    H223950   5.624   1.107   1.408 -1.8496  1.4629 -2.2847
 7996TIP3   OH223951   0.797   6.006   3.516  0.2665 -0.6231 -0.2599
 7996TIP3    H123952   0.814   6.100   3.524  1.4663 -0.6572 -1.9850
 7996TIP3    H223953   0.860   5.965   3.576  0.3155 -0.3785 -0.1414
 7997TIP3   OH223954   4.789   5.399   5.645  0.0066 -0.8751 -0.3205
 7997TIP3    H123955   4.786   5.490   5.673 -1.9809 -0.9114 -0.3141
 7997TIP3    H223956   4.879   5.371   5.665  0.7179  1.1087 -0.5286
 7998TIP3   OH223957   5.854   6.191   0.647 -0.4404 -0.2667  0.1158
 7998TIP3    H123958   5.884   6.279   0.667  0.3678 -0.8054  1.4108
 7998TIP3    H223959   5.818   6.197   0.559 -1.5729  1.6297  0.6487
 7999TIP3   OH223960   3.296   3.508   2.326  0.0668  0.1559 -0.0119
 7999TIP3    H123961   3.340   3.528   2.409 -1.1142  0.3641  0.5870
 7999TIP3    H223962   3.360   3.533   2.259  1.1830 -0.3407  0.8265
 8000TIP3   OH223963   0.674   0.908   5.372 -0.3667 -0.3989  0.5599
 8000TIP3    H123964   0.620   0.854   5.314  0.8235 -1.9677  0.8178
 8000TIP3    H223965   0.616   0.977   5.403 -1.4603 -0.4352 -1.2622
 8001TIP3   OH223966   6.350   1.925   1.495 -0.1277 -0.6949  0.2236
 8001TIP3    H123967   6.299   1.990   1.446  0.6294 -0.3255 -0.0849
 8001TIP3    H223968   6.289   1.852   1.507 -0.3985 -0.7248 -1.1243
 8002TIP3   OH223969   4.919   2.857   3.010 -0.2131 -0.2797  0.0603
 8002TIP3    H123970   4.919   2.790   2.942 -0.2698  1.2319 -1.4738
 8002TIP3    H223971   4.839   2.840   3.061 -0.5541 -0.9804 -0.6924
 8003TIP3   OH223972   0.075   1.818   2.236  0.4300 -0.0708 -0.4219
 8003TIP3    H123973   0.076   1.762   2.159  1.7818  0.6368 -0.9475
 8003TIP3    H223974   0.040   1.762   2.306 -0.8483 -0.7055 -1.5344
 8004TIP3   OH223975   2.217   1.002   2.608 -0.2900  0.1231 -0.3554
 8004TIP3    H123976   2.181   0.964   2.528 -0.4598  1.1044 -0.7514
 8004TIP3    H223977   2.294   0.949   2.627  0.0038  0.1560 -1.4193
 8005TIP3   OH223978   5.283   4.768   0.138  0.6037 -0.1765  0.5876
 8005TIP3    H123979   5.283   4.773   0.042  1.2120 -1.5976  0.4960
 8005TIP3    H223980   5.201   4.723   0.159  0.9588 -0.7801  0.6770
 8006TIP3   OH223981   5.863   5.845   0.673  0.1566  0.7035  0.1496
 8006TIP3    H123982   5.864   5.854   0.768  0.8167  0.1526  0.2028
 8006TIP3    H223983   5.905   5.925   0.640  0.4199  0.6432  0.3422
 8007TIP3   OH223984   6.955   0.314   0.437 -0.2683 -0.7334 -0.9528
 8007TIP3    H123985   6.920   0.240   0.388 -0.2950 -1.6977  0.4864
 8007TIP3    H223986   7.049   0.300   0.439 -0.4606 -2.1622  1.4824
 8008TIP3   OH223987   6.591   1.082   2.869 -0.4018 -0.4931 -0.1508
 8008TIP3    H123988   6.583   1.125   2.955  1.0368  0.2942 -0.3771
 8008TIP3    H223989   6.614   1.153   2.809  1.3107 -1.4320 -0.6747
 8009TIP3   OH223990   4.302   2.284   3.583 -0.8404  0.0934  0.2149
 8009TIP3    H123991   4.291   2.190   3.573 -3.1257  0.4420 -1.4733
 8009TIP3    H223992   4.362   2.309   3.513 -0.2891 -0.0759  0.6198
 8010TIP3   OH223993   3.346   5.709   1.209  0.6770  0.0655  0.3799
 8010TIP3    H123994   3.313   5.796   1.234  3.1484  0.8688  1.1519
 8010TIP3    H223995   3.292   5.684   1.134 -0.5045  2.0022  0.5000
 8011TIP3   OH223996   5.469   1.091   0.261 -0.0604 -0.3712  0.1752
 8011TIP3    H123997   5.560   1.071   0.286  0.6661  0.6358 -1.4533
 8011TIP3    H223998   5.429   1.006   0.246  0.8419 -0.8095  0.1945
 8012TIP3   OH223999   3.046   3.995   2.521  0.0152  0.0943 -0.1193
 8012TIP3    H124000   2.975   3.939   2.490  0.4414 -0.5132 -0.0128
 8012TIP3    H224001   3.069   4.050   2.445 -0.5954  0.3293 -0.1366
 8013TIP3   OH224002   3.392   2.681   2.752  0.0206 -0.1319  0.2519
 8013TIP3    H124003   3.316   2.739   2.755 -0.4481 -0.7659  1.1756
 8013TIP3    H224004   3.357   2.596   2.727  0.5033 -0.3141  0.1714
 8014TIP3   OH224005   3.975   1.675   3.161 -0.1814  0.5058  0.0593
 8014TIP3    H124006   3.993   1.584   3.186 -0.7612  0.6641  1.1189
 8014TIP3    H224007   3.928   1.668   3.078  1.5477 -0.0581 -0.9313
 8015TIP3   OH224008   5.298   0.438   4.035  0.5969  0.1151 -0.0884
 8015TIP3    H124009   5.385   0.468   4.006  0.8554 -1.3879 -1.0050
 8015TIP3    H224010   5.237   0.482   3.976  1.0044 -1.4575 -1.7999
 8016TIP3   OH224011   1.384   6.782   1.877  0.1769 -0.1712  0.1475
 8016TIP3    H124012   1.349   6.700   1.912  0.2475 -0.4853 -0.5147
 8016TIP3    H224013   1.316   6.815   1.819  0.4401 -0.1255 -0.1398
 8017TIP3   OH224014   2.301   0.568   5.103  0.6718 -0.2618 -0.4730
 8017TIP3    H124015   2.351   0.633   5.151 -0.4255 -0.5826  1.2292
 8017TIP3    H224016   2.288   0.496   5.166 -0.7596 -0.7515 -1.2612
 8018TIP3   OH224017   0.248   3.243   5.386  0.1517  0.1043  0.1881
 8018TIP3    H124018   0.178   3.200   5.437  0.0535 -0.7180 -0.6139
 8018TIP3    H224019   0.314   3.265   5.451  0.3783 -1.6221  0.6028
 8019TIP3   OH224020   1.225   6.000   3.766 -0.3267  0.0572  0.2025
 8019TIP3    H124021   1.307   5.953   3.777 -0.3813  0.1467  1.0337
 8019TIP3    H224022   1.230   6.073   3.827 -1.1345 -0.0990  0.4717
 8020TIP3   OH224023   0.055   0.781   0.734 -0.3204 -0.8929  0.1238
 8020TIP3    H124024   0.148   0.773   0.755 -0.2541 -2.5740 -0.6679
 8020TIP3    H224025   0.020   0.835   0.804  1.2415 -0.2720  0.4669
 8021TIP3   OH224026   6.470   0.109   5.299 -0.5273  0.5770 -0.0143
 8021TIP3    H124027   6.553   0.065   5.316 -1.7622 -1.7590  0.4981
 8021TIP3    H224028   6.412   0.078   5.369 -2.2137  0.9717 -1.1769
 8022TIP3   OH224029   1.226   6.241   3.529  0.6044 -0.1619  0.4134
 8022TIP3    H124030   1.150   6.251   3.587  0.0792 -2.1218  0.1466
 8022TIP3    H224031   1.256   6.330   3.512 -1.4341  0.6346  0.7866
 8023TIP3   OH224032   0.122   0.514   1.164  0.2750  0.1655 -0.4244
 8023TIP3    H124033   0.058   0.456   1.121  0.8156  0.4412 -1.6614
 8023TIP3    H224034   0.076   0.598   1.170 -0.0161 -0.0266  0.0992
 8024TIP3   OH224035   5.430   0.282   2.841  0.7387 -0.2021  0.4252
 8024TIP3    H124036   5.485   0.353   2.807  3.0601 -1.0609  2.0505
 8024TIP3    H224037   5.365   0.266   2.773  1.1087  2.4178 -0.6421
 8025TIP3   OH224038   1.513   1.818   2.069  0.4251  0.6213  0.1221
 8025TIP3    H124039   1.447   1.749   2.059 -1.0464  1.9634  0.3396
 8025TIP3    H224040   1.518   1.861   1.984  1.7849 -0.0767 -0.1945
 8026TIP3   OH224041   4.948   4.570   1.341 -0.0701 -0.0206  0.0481
 8026TIP3    H124042   4.932   4.632   1.413  0.6180 -0.0860  0.2609
 8026TIP3    H224043   5.005   4.618   1.281 -0.1373 -0.1916 -0.1528
 8027TIP3   OH224044   4.272   3.803   1.730  0.6169  0.3522 -0.2775
 8027TIP3    H124045   4.244   3.825   1.818  0.9737  0.6212 -0.2281
 8027TIP3    H224046   4.351   3.750   1.742  0.8764  0.6988 -0.4415
 8028TIP3   OH224047   4.043   0.725   5.397  0.0486  0.0955 -0.3819
 8028TIP3    H124048   3.978   0.777   5.350 -0.9108 -0.0353  0.7405
 8028TIP3    H224049   4.118   0.720   5.338 -0.6926  0.8580 -1.4163
 8029TIP3   OH224050   4.436   0.104   3.429 -0.4899 -0.3002  0.0934
 8029TIP3    H124051   4.454   0.184   3.479 -1.6565  1.3259 -1.9560
 8029TIP3    H224052   4.439   0.131   3.338 -1.0990 -2.5880 -0.6709
 8030TIP3   OH224053   5.860   2.703   3.429 -0.3471  0.3293  0.0243
 8030TIP3    H124054   5.922   2.721   3.358  0.8043 -0.2738  0.8569
 8030TIP3    H224055   5.834   2.790   3.460  0.2983  0.5857 -0.1395
 8031TIP3   OH224056   4.135   0.188   2.901 -0.2410 -0.0830  0.2384
 8031TIP3    H124057   4.184   0.271   2.900  1.1180 -0.7831 -2.7772
 8031TIP3    H224058   4.110   0.174   2.810 -3.7750 -1.2058  1.2222
 8032TIP3   OH224059   3.372   4.025   0.477  0.0370 -0.0231 -0.4631
 8032TIP3    H124060   3.314   4.089   0.436  0.1525  1.1524  1.1257
 8032TIP3    H224061   3.446   4.018   0.417 -0.1973  1.0072 -0.8969
 8033TIP3   OH224062   6.872   2.661   3.563  0.3634  0.1818 -0.2720
 8033TIP3    H124063   6.811   2.718   3.517  0.1423 -0.0316 -0.2462
 8033TIP3    H224064   6.933   2.632   3.495 -0.0625 -0.2685 -0.4726
 8034TIP3   OH224065   2.308   3.728   1.499  0.6230 -0.2276  0.3153
 8034TIP3    H124066   2.295   3.638   1.470  1.6981 -0.9432  1.9277
 8034TIP3    H224067   2.387   3.757   1.455 -1.3392  1.0843 -2.6355
 8035TIP3   OH224068   2.093   4.943   0.621 -0.4056  0.1550  0.4423
 8035TIP3    H124069   2.031   4.898   0.564 -1.1830  1.5589  0.1294
 8035TIP3    H224070   2.170   4.887   0.622 -0.8234 -0.4881 -1.0367
 8036TIP3   OH224071   6.513   2.525   1.427  0.2937 -0.0577 -0.8835
 8036TIP3    H124072   6.434   2.472   1.440 -0.7432  1.7352  0.7184
 8036TIP3    H224073   6.585   2.469   1.456 -0.6847 -0.8705  0.0332
 8037TIP3   OH224074   6.483   0.413   2.622  0.0947  0.1706  0.3519
 8037TIP3    H124075   6.491   0.438   2.714  1.0939  1.0365  0.0383
 8037TIP3    H224076   6.388   0.408   2.608 -0.1977  3.1050  0.6405
 8038TIP3   OH224077   4.021   6.451   2.137 -0.0723 -0.4376 -0.3252
 8038TIP3    H124078   3.997   6.450   2.229  1.3562  1.2406  0.1141
 8038TIP3    H224079   4.103   6.401   2.133 -0.6504 -1.3781 -0.8841
 8039TIP3   OH224080   0.103   2.652   4.198 -0.3689  0.2888 -0.5840
 8039TIP3    H124081   0.061   2.600   4.266  1.9773  0.4357  1.0800
 8039TIP3    H224082   0.034   2.712   4.168 -1.2919  0.7234  2.1780
 8040TIP3   OH224083   4.338   2.447   2.693 -0.1864 -0.4474  0.3667
 8040TIP3    H124084   4.255   2.474   2.653  0.9154  0.6532 -1.3534
 8040TIP3    H224085   4.372   2.379   2.634  0.8433  0.2237  0.1602
 8041TIP3   OH224086   3.651   3.563   1.306  0.5723  0.3983  0.3766
 8041TIP3    H124087   3.714   3.571   1.377  0.9607  0.1391  0.0638
 8041TIP3    H224088   3.702   3.578   1.226  0.4180 -0.6729  0.0636
 8042TIP3   OH224089   5.002   1.364   5.436 -0.2032  0.4587 -0.1706
 8042TIP3    H124090   4.980   1.431   5.372  0.3332 -0.0076 -0.8551
 8042TIP3    H224091   4.920   1.345   5.481 -0.3970  1.4409 -0.0859
 8043TIP3   OH224092   4.270   5.957   3.924 -0.1115 -0.4761 -0.1351
 8043TIP3    H124093   4.297   5.866   3.914 -0.0527 -0.4610 -0.1135
 8043TIP3    H224094   4.239   5.962   4.015  1.3184 -0.1059  0.3565
 8044TIP3   OH224095   3.203   0.371   5.617 -0.4386  0.3461 -0.4053
 8044TIP3    H124096   3.255   0.295   5.590 -0.8560  0.7181 -2.4963
 8044TIP3    H224097   3.260   0.446   5.601 -0.5080  0.5611  0.3347
 8045TIP3   OH224098   5.212   1.995   3.586 -0.3201  0.6726 -0.4182
 8045TIP3    H124099   5.126   2.010   3.546 -0.1515  1.6610 -0.4257
 8045TIP3    H224100   5.192   1.979   3.679 -0.4483  1.8229 -0.2391
 8046TIP3   OH224101   0.916   5.379   3.274 -0.4171 -0.0273  0.8036
 8046TIP3    H124102   0.950   5.444   3.213  0.1764  0.3627  1.5457
 8046TIP3    H224103   0.842   5.423   3.316 -0.3087  0.0008  0.9649
 8047TIP3   OH224104   4.556   0.148   0.337 -0.3963 -0.0979 -0.3181
 8047TIP3    H124105   4.606   0.074   0.303  0.7032  0.9448 -1.0762
 8047TIP3    H224106   4.597   0.168   0.421 -0.7742 -0.4111 -0.0540
 8048TIP3   OH224107   7.068   4.352   3.793 -0.2899 -0.1082  0.0021
 8048TIP3    H124108   7.103   4.424   3.845 -0.5754  0.3914 -0.4846
 8048TIP3    H224109   7.002   4.392   3.738  0.7181 -0.4208 -1.5068
 8049TIP3   OH224110   2.084   4.936   1.032  1.0800 -0.0109  0.2376
 8049TIP3    H124111   2.085   4.848   0.995 -0.5723  0.6404 -1.5430
 8049TIP3    H224112   2.019   4.983   0.980 -1.1639  1.1387  3.6741
 8050TIP3   OH224113   1.828   6.416   5.889  0.4072  0.1750  0.1871
 8050TIP3    H124114   1.863   6.347   5.946  1.1265 -0.6506 -1.1943
 8050TIP3    H224115   1.901   6.438   5.831 -0.4325  0.6567 -0.7112
 8051TIP3   OH224116   2.646   0.485   4.092  0.3250  0.2253  0.3657
 8051TIP3    H124117   2.550   0.484   4.087  0.3997  0.0898 -1.7130
 8051TIP3    H224118   2.665   0.489   4.186 -1.7080 -0.3709  0.8482
 8052TIP3   OH224119   4.106   1.572   2.880 -0.1897  0.5080 -0.1174
 8052TIP3    H124120   4.107   1.478   2.900  0.2609  0.7459  1.0591
 8052TIP3    H224121   4.014   1.597   2.884 -0.2618  0.2125  0.0395
 8053TIP3   OH224122   5.315   5.374   1.202  0.5059 -0.2539 -0.1355
 8053TIP3    H124123   5.383   5.402   1.141  1.1564 -2.5220 -0.5797
 8053TIP3    H224124   5.304   5.280   1.184 -1.0030 -0.4791  1.5993
 8054TIP3   OH224125   5.502   3.421   5.272  0.7653 -0.2676 -0.2621
 8054TIP3    H124126   5.503   3.341   5.220 -1.8204 -1.7761  1.7649
 8054TIP3    H224127   5.537   3.396   5.357  0.3161  0.8436  0.2820
 8055TIP3   OH224128   3.899   1.282   4.708  0.2044 -0.2771 -0.3217
 8055TIP3    H124129   3.943   1.198   4.695 -0.6037 -1.0145  1.4199
 8055TIP3    H224130   3.892   1.320   4.620  0.8304 -1.8983 -1.0964
 8056TIP3   OH224131   2.804   5.120   5.029 -0.0113 -0.1076  0.4295
 8056TIP3    H124132   2.774   5.168   4.952 -0.0810 -0.7866  0.0287
 8056TIP3    H224133   2.899   5.115   5.019 -0.1558 -1.6853 -0.5191
 8057TIP3   OH224134   2.882   0.615   5.886 -0.4302 -0.2877  0.2905
 8057TIP3    H124135   2.899   0.630   5.793  1.6719  0.4663  0.7383
 8057TIP3    H224136   2.864   0.522   5.893 -0.5614 -0.3634 -0.8674
 8058TIP3   OH224137   0.717   3.001   0.145 -0.0281  0.0234  0.0515
 8058TIP3    H124138   0.667   3.069   0.101  0.1970  0.1109 -0.0712
 8058TIP3    H224139   0.804   3.006   0.105  0.1020 -0.0689  0.3248
 8059TIP3   OH224140   6.568   6.421   2.843  0.0711 -0.4882  0.1269
 8059TIP3    H124141   6.511   6.474   2.900 -0.9598 -2.3206  0.8671
 8059TIP3    H224142   6.516   6.344   2.822  1.2586 -0.8861 -1.5554
 8060TIP3   OH224143   2.788   5.302   5.239 -0.4467 -0.3486 -0.0035
 8060TIP3    H124144   2.777   5.241   5.167 -2.0340  1.5351 -1.5036
 8060TIP3    H224145   2.872   5.345   5.223  0.6180 -1.9660  0.9958
 8061TIP3   OH224146   6.900   3.510   2.805  0.6898  0.5917 -0.7746
 8061TIP3    H124147   6.806   3.529   2.802  0.3956 -0.6612 -0.0490
 8061TIP3    H224148   6.927   3.538   2.893  0.8893  0.4664 -0.7949
 8062TIP3   OH224149   5.579   2.434   2.999  0.0397 -0.0075 -0.2629
 8062TIP3    H124150   5.613   2.519   3.027  1.3754 -0.7036  0.2888
 8062TIP3    H224151   5.518   2.408   3.068  0.1315  0.1870 -0.1098
 8063TIP3   OH224152   1.635   2.416   1.171 -0.1386  0.0617  1.2073
 8063TIP3    H124153   1.550   2.387   1.203 -0.0425 -1.0819  0.4907
 8063TIP3    H224154   1.690   2.337   1.173  0.6949  0.6142  0.9684
 8064TIP3   OH224155   2.116   3.886   1.579 -0.1801  0.7085  0.3463
 8064TIP3    H124156   2.033   3.850   1.547 -0.3300  0.0527  1.4173
 8064TIP3    H224157   2.182   3.821   1.553  0.0135  1.2185 -0.4849
 8065TIP3   OH224158   7.119   6.022   1.002  0.2959 -0.5673 -0.7045
 8065TIP3    H124159   7.053   6.089   1.023  0.5202 -0.0144 -1.6736
 8065TIP3    H224160   7.192   6.072   0.966  0.8373 -1.2708 -0.5829
 8066TIP3   OH224161   2.740   1.989   0.233 -0.1645  0.4396  0.3576
 8066TIP3    H124162   2.754   2.030   0.319  1.1477 -0.4592  0.5951
 8066TIP3    H224163   2.785   1.905   0.239  0.2885  0.5310 -1.3413
 8067TIP3   OH224164   1.429   0.562   0.043  0.0674  0.2302  0.4421
 8067TIP3    H124165   1.395   0.624   0.107  2.5640  0.8586  1.3148
 8067TIP3    H224166   1.450   0.484   0.095  1.4618  0.4933  0.3329
 8068TIP3   OH224167   2.815   3.120   4.888 -0.0039 -0.1838 -1.0373
 8068TIP3    H124168   2.751   3.178   4.846  0.6065 -0.3587 -2.2708
 8068TIP3    H224169   2.770   3.085   4.965 -0.4352  1.8058 -0.3377
 8069TIP3   OH224170   2.080   2.446   2.014 -0.1286  0.4319  0.7128
 8069TIP3    H124171   2.052   2.519   2.070 -0.9279  1.2405 -0.6747
 8069TIP3    H224172   2.069   2.479   1.925 -1.4474 -1.7125  0.0056
 8070TIP3   OH224173   6.440   0.949   3.514  0.6791  0.6706  0.6059
 8070TIP3    H124174   6.456   1.012   3.444  1.2666 -0.2803 -0.1387
 8070TIP3    H224175   6.526   0.911   3.533  0.8079  1.8549  2.8185
 8071TIP3   OH224176   1.091   1.422   4.926  0.3210 -0.0801 -0.2070
 8071TIP3    H124177   1.023   1.360   4.952  0.6853 -0.0771  0.7652
 8071TIP3    H224178   1.049   1.508   4.932 -0.1107 -0.1897 -1.3234
 8072TIP3   OH224179   3.837   2.063   4.629  0.6838  0.0686 -0.2381
 8072TIP3    H124180   3.857   2.091   4.719  0.1257 -0.6934  0.1387
 8072TIP3    H224181   3.778   1.988   4.640  0.6763 -0.0878 -1.2448
 8073TIP3   OH224182   5.498   3.232   0.746  0.0718 -0.5793 -0.0859
 8073TIP3    H124183   5.588   3.255   0.771  0.1476 -0.6212 -0.3193
 8073TIP3    H224184   5.466   3.180   0.820 -0.1294  0.3308  0.4835
 8074TIP3   OH224185  -0.007   1.152   2.869  0.0287  0.0643 -0.0942
 8074TIP3    H124186  -0.012   1.097   2.947 -1.0274 -0.6412 -0.6290
 8074TIP3    H224187   0.066   1.117   2.818 -0.0033 -0.1979  0.0417
 8075TIP3   OH224188   6.804   1.438   3.985 -0.2524  0.4732 -0.1545
 8075TIP3    H124189   6.899   1.434   3.978 -0.2435 -0.4253  0.4015
 8075TIP3    H224190   6.785   1.410   4.075 -1.0701  0.0908 -0.4346
 8076TIP3   OH224191   2.942   3.713   2.908 -0.2454  0.0429  0.4707
 8076TIP3    H124192   2.853   3.695   2.936 -0.6650 -0.8229 -1.2616
 8076TIP3    H224193   2.961   3.646   2.842  0.8950  1.4485 -0.7322
 8077TIP3   OH224194   2.203   3.310   0.559  0.1188 -0.5062  0.4749
 8077TIP3    H124195   2.116   3.340   0.584 -0.3213 -1.6066  0.3323
 8077TIP3    H224196   2.263   3.375   0.596 -0.7750  0.4981  0.2033
 8078TIP3   OH224197   2.736   1.792   0.731  0.1469 -0.0712  0.3681
 8078TIP3    H124198   2.760   1.883   0.750 -0.0732 -0.0036  0.3309
 8078TIP3    H224199   2.640   1.794   0.721  0.1565 -0.2789  0.2187
 8079TIP3   OH224200   3.292   4.248   0.295  0.1910 -0.1883  0.1797
 8079TIP3    H124201   3.242   4.283   0.221 -1.8112  0.3525  1.6998
 8079TIP3    H224202   3.377   4.291   0.289 -0.5580  1.2262 -0.7665
 8080TIP3   OH224203   0.643   2.988   2.582  0.7255  0.6625 -0.3053
 8080TIP3    H124204   0.629   3.053   2.513  2.3346 -0.7788 -2.1213
 8080TIP3    H224205   0.623   2.905   2.540  2.1965 -0.3078  0.8230
 8081TIP3   OH224206   1.062   5.368   5.703 -0.1680  0.0221  0.7057
 8081TIP3    H124207   1.125   5.355   5.632 -0.8960 -0.6020  0.1693
 8081TIP3    H224208   1.037   5.280   5.729 -1.5601  0.2655  0.2527
 8082TIP3   OH224209   0.589   1.107   0.529 -0.2348  0.0464 -0.3733
 8082TIP3    H124210   0.526   1.083   0.462 -0.0564 -1.1810 -0.1178
 8082TIP3    H224211   0.566   1.054   0.605 -0.6240  1.6184  0.6737
 8083TIP3   OH224212   3.098   0.473   4.249 -0.3539  0.4307  0.1377
 8083TIP3    H124213   3.058   0.396   4.209  3.6974 -1.8945  0.0058
 8083TIP3    H224214   3.066   0.472   4.340 -0.7953 -1.1473 -0.0121
 8084TIP3   OH224215   0.544   3.106   1.430  0.3960 -0.0738  0.5639
 8084TIP3    H124216   0.485   3.138   1.498 -1.2638  1.7820 -1.5962
 8084TIP3    H224217   0.507   3.022   1.402 -0.0190  0.0860  0.6405
 8085TIP3   OH224218   5.403   1.562   0.120  0.2132 -0.5242 -0.0106
 8085TIP3    H124219   5.498   1.560   0.107  0.0862  0.9569 -1.7142
 8085TIP3    H224220   5.373   1.477   0.090  0.9290 -0.5960 -0.5655
 8086TIP3   OH224221   1.768   3.423   5.060 -0.4787 -0.3620 -0.1532
 8086TIP3    H124222   1.710   3.388   5.128 -0.3199 -2.2714 -0.9294
 8086TIP3    H224223   1.853   3.431   5.103 -0.7318 -0.0126  0.2952
 8087TIP3   OH224224   3.444   4.005   2.273 -0.2261 -0.0103 -0.4821
 8087TIP3    H124225   3.467   4.021   2.181 -0.3309  2.1028 -0.1896
 8087TIP3    H224226   3.527   4.011   2.320  0.0175 -2.2301 -0.5007
 8088TIP3   OH224227   4.979   1.552   5.246  0.0023 -0.1660  0.0876
 8088TIP3    H124228   4.893   1.569   5.208  0.2363  0.3420 -0.2166
 8088TIP3    H224229   5.038   1.548   5.171  0.0970 -1.4933  0.2058
 8089TIP3   OH224230   1.496   4.576   0.172 -0.1269  0.0110 -0.1521
 8089TIP3    H124231   1.564   4.536   0.227 -0.8341 -0.8913  0.0882
 8089TIP3    H224232   1.543   4.609   0.096  0.3600 -2.5560 -1.0791
 8090TIP3   OH224233   1.063   1.132   0.118  0.3140 -0.0992 -0.4367
 8090TIP3    H124234   1.041   1.196   0.185  1.1526 -0.2360 -0.0198
 8090TIP3    H224235   1.001   1.149   0.046 -0.7030 -0.0595  0.4285
 8091TIP3   OH224236   2.026   5.677   3.440 -0.0008  0.3971  0.8250
 8091TIP3    H124237   1.977   5.682   3.358  1.8558 -0.9337 -0.4714
 8091TIP3    H224238   1.984   5.605   3.489 -0.8051  0.8654  0.8352
 8092TIP3   OH224239   3.114   3.795   3.297  0.5684 -0.5439 -0.0131
 8092TIP3    H124240   3.040   3.784   3.357  0.9852 -1.0940  0.4119
 8092TIP3    H224241   3.077   3.841   3.222 -0.3286 -1.2338 -0.0221
 8093TIP3   OH224242   2.860   3.750   5.600 -0.2961 -0.4071 -0.1613
 8093TIP3    H124243   2.942   3.800   5.601 -0.1984 -0.5517 -0.7475
 8093TIP3    H224244   2.887   3.660   5.618 -0.5144 -0.2114  1.2841
 8094TIP3   OH224245   5.200   0.142   3.566  0.1310  0.4499 -0.5777
 8094TIP3    H124246   5.121   0.088   3.564  1.0720 -1.0342  0.3845
 8094TIP3    H224247   5.261   0.098   3.507  1.6530 -0.8388  1.8041
 8095TIP3   OH224248   3.264   5.968   1.907 -0.0059 -0.2614 -0.3621
 8095TIP3    H124249   3.169   5.957   1.896  0.0535 -1.5904  0.3118
 8095TIP3    H224250   3.301   5.930   1.827 -0.0554  1.2494 -1.1421
 8096TIP3   OH224251   0.640   6.373   5.461 -0.1959 -0.1510  0.7502
 8096TIP3    H124252   0.605   6.332   5.540 -0.3464 -0.2273  0.6434
 8096TIP3    H224253   0.580   6.444   5.442  0.7863  0.9843  1.7043
 8097TIP3   OH224254   0.223   4.449   2.775  0.2491  0.0863  0.3044
 8097TIP3    H124255   0.245   4.447   2.868 -1.0469 -0.0930  0.6216
 8097TIP3    H224256   0.305   4.472   2.732  0.4653  2.0963  1.6460
 8098TIP3   OH224257   4.383   5.460   2.261  0.5432  0.3645  0.3823
 8098TIP3    H124258   4.445   5.521   2.302  0.5537  0.5030  0.1635
 8098TIP3    H224259   4.349   5.508   2.185  0.1162  0.3130  0.5420
 8099TIP3   OH224260   5.986   4.981   5.586  0.0316  0.1117 -0.2195
 8099TIP3    H124261   5.955   5.066   5.553  0.4297  0.8141  1.1186
 8099TIP3    H224262   5.928   4.917   5.547 -0.6947  1.0693 -0.7455
 8100TIP3   OH224263   1.400   0.333   5.183 -0.0382  0.5656  0.3889
 8100TIP3    H124264   1.458   0.269   5.141  0.3079  0.0906  1.5611
 8100TIP3    H224265   1.312   0.296   5.172  0.0525  0.4100  0.1627
 8101TIP3   OH224266   2.991   0.953   1.520 -0.0341 -0.4701 -0.7582
 8101TIP3    H124267   2.916   1.009   1.496  0.4956  0.3902 -0.4365
 8101TIP3    H224268   3.013   0.979   1.609  1.1829 -0.1158 -1.1445
 8102TIP3   OH224269   6.365   0.834   4.730 -0.1541  0.1901 -0.0773
 8102TIP3    H124270   6.368   0.795   4.642  0.6722  0.9593 -0.4089
 8102TIP3    H224271   6.281   0.881   4.732  0.5862  1.6212 -1.1189
 8103TIP3   OH224272   6.134   6.007   2.990 -0.5780  0.0394  0.5450
 8103TIP3    H124273   6.042   5.990   2.972 -1.0281  0.5504  2.2140
 8103TIP3    H224274   6.178   5.992   2.906 -1.7628 -2.9220  0.3512
 8104TIP3   OH224275   0.465   4.746   5.199  0.1120  0.2230 -0.2324
 8104TIP3    H124276   0.513   4.778   5.122 -0.8643  1.4009 -0.3859
 8104TIP3    H224277   0.399   4.687   5.163  1.3127 -1.2966 -0.0323
 8105TIP3   OH224278   5.327   0.454   5.459 -0.0882  0.1695 -0.0024
 8105TIP3    H124279   5.258   0.391   5.440 -1.1577  1.2150  0.3092
 8105TIP3    H224280   5.407   0.411   5.430 -0.9700 -0.6896 -1.2692
 8106TIP3   OH224281   3.824   1.475   1.870 -0.3155 -0.1039  0.5663
 8106TIP3    H124282   3.810   1.568   1.886  1.5762 -0.0312  2.2284
 8106TIP3    H224283   3.911   1.471   1.831 -0.6026 -1.1452  0.0109
 8107TIP3   OH224284   1.445   4.925   5.303 -0.2765  0.4091  0.2805
 8107TIP3    H124285   1.484   4.948   5.219 -0.5176  1.2032  0.3784
 8107TIP3    H224286   1.353   4.908   5.283  0.4253 -3.7382 -0.3660
 8108TIP3   OH224287   5.941   2.503   5.180 -0.0368  0.3079  0.0127
 8108TIP3    H124288   5.964   2.543   5.264 -0.8987  0.7779  0.0381
 8108TIP3    H224289   5.944   2.576   5.118  0.3911  0.0025 -0.3260
 8109TIP3   OH224290   3.815   0.090   2.121 -0.3976  0.0221  0.7771
 8109TIP3    H124291   3.814   0.061   2.030  1.2495 -1.1795  1.0996
 8109TIP3    H224292   3.749   0.159   2.125  0.9516  1.6193 -1.8253
 8110TIP3   OH224293   4.667   5.232   2.827 -0.0790  0.5053 -0.4516
 8110TIP3    H124294   4.717   5.177   2.888 -1.7917 -1.1427 -0.4677
 8110TIP3    H224295   4.624   5.170   2.769  0.5500  2.0023 -2.6335
 8111TIP3   OH224296   4.289   3.043   0.501 -0.5736 -0.1852  0.2997
 8111TIP3    H124297   4.336   3.106   0.555 -1.3068  0.5760  0.0587
 8111TIP3    H224298   4.339   2.961   0.512  1.0966  0.6928 -0.3158
 8112TIP3   OH224299   3.105   6.144   4.759 -0.0464 -0.2843 -0.4535
 8112TIP3    H124300   3.038   6.195   4.713  1.4090  1.5453 -0.6168
 8112TIP3    H224301   3.125   6.072   4.699 -0.7518  0.0288 -1.0821
 8113TIP3   OH224302   0.943   0.480   2.449  0.0870  0.1140  0.4236
 8113TIP3    H124303   0.883   0.415   2.413  0.1937  0.9998 -1.5092
 8113TIP3    H224304   0.970   0.445   2.533 -3.7418  0.0241  1.7847
 8114TIP3   OH224305   4.961   5.808   3.582 -0.7340 -0.0778 -0.8361
 8114TIP3    H124306   4.887   5.803   3.521 -0.7612  0.1820 -0.8251
 8114TIP3    H224307   5.038   5.789   3.528 -1.0515 -4.2247 -0.2081
 8115TIP3   OH224308   4.993   1.362   3.752  0.3787  0.4996 -0.5024
 8115TIP3    H124309   4.989   1.410   3.670  1.4482  0.0334 -0.8375
 8115TIP3    H224310   5.042   1.419   3.811 -1.9230  1.6421  0.4081
 8116TIP3   OH224311   0.265   5.357   0.194 -0.2154  0.4626 -0.5458
 8116TIP3    H124312   0.232   5.404   0.270 -4.7880 -1.8283 -0.7521
 8116TIP3    H224313   0.312   5.423   0.143 -1.9358  3.4859  1.4870
 8117TIP3   OH224314   4.272   0.727   2.600 -0.0814 -0.0355  0.0501
 8117TIP3    H124315   4.178   0.738   2.616 -0.7179 -1.9914 -1.7699
 8117TIP3    H224316   4.305   0.680   2.676 -1.3117 -2.1734 -0.6601
 8118TIP3   OH224317   4.018   4.559   1.845  0.0892 -0.0978  0.1575
 8118TIP3    H124318   4.090   4.513   1.801  0.1004 -0.0648  0.1410
 8118TIP3    H224319   4.056   4.591   1.927 -0.1393 -0.8517  0.5690
 8119TIP3   OH224320   1.095   2.325   1.414  0.8390  0.0831  0.5723
 8119TIP3    H124321   1.085   2.231   1.431  1.8321 -0.4171 -1.4276
 8119TIP3    H224322   1.012   2.351   1.375  1.4792 -0.5822 -1.3205
 8120TIP3   OH224323   6.897   4.396   4.982  0.4762 -0.8391 -0.0375
 8120TIP3    H124324   6.872   4.394   5.074 -0.6794 -1.4998 -0.3536
 8120TIP3    H224325   6.983   4.438   4.982  0.8268 -1.5000  1.4069
 8121TIP3   OH224326   2.752   1.939   3.849 -0.0881 -0.0257  0.0541
 8121TIP3    H124327   2.832   1.905   3.890  0.3809  0.5051 -0.3888
 8121TIP3    H224328   2.759   2.034   3.858 -0.7888  0.0141  0.2173
 8122TIP3   OH224329   2.785   3.670   2.419  0.8185 -0.2038 -0.0488
 8122TIP3    H124330   2.880   3.661   2.423  0.9542  0.6575 -1.0309
 8122TIP3    H224331   2.769   3.763   2.432  0.0810 -0.3789  0.3494
 8123TIP3   OH224332   4.475   5.664   3.604 -0.0042  0.6880 -0.1999
 8123TIP3    H124333   4.412   5.706   3.545  1.2880  1.1089 -1.3419
 8123TIP3    H224334   4.496   5.731   3.669  0.9701  1.3773 -1.1797
 8124TIP3   OH224335   2.762   5.212   5.621  0.2844  0.1601 -0.1620
 8124TIP3    H124336   2.835   5.226   5.561  1.0297  1.3476  0.9699
 8124TIP3    H224337   2.781   5.127   5.662  3.3605  2.1495  3.1076
 8125TIP3   OH224338   6.567   5.585   4.301  0.1331 -0.2756 -0.0783
 8125TIP3    H124339   6.652   5.625   4.321  0.5409 -1.6679  1.1527
 8125TIP3    H224340   6.589   5.501   4.261 -0.7028  0.2148 -1.6551
 8126TIP3   OH224341   0.447   5.937   2.207 -0.2448 -0.2418  0.2838
 8126TIP3    H124342   0.408   5.943   2.120  1.4677  1.6501 -0.4198
 8126TIP3    H224343   0.373   5.952   2.267 -1.2723 -0.6339 -0.8280
 8127TIP3   OH224344   6.545   0.881   2.348 -0.7456  0.5537  0.1615
 8127TIP3    H124345   6.595   0.896   2.428  0.9041 -1.3803 -0.4283
 8127TIP3    H224346   6.557   0.960   2.296 -1.3664  1.5936  1.5367
 8128TIP3   OH224347   0.475   4.025   2.391  0.0978  0.2237 -0.5173
 8128TIP3    H124348   0.454   4.103   2.339 -1.1658  0.8278  0.8214
 8128TIP3    H224349   0.505   3.961   2.327 -0.4315  1.2649 -1.8603
 8129TIP3   OH224350   0.099   5.650   3.994 -0.0905  0.5401 -0.2302
 8129TIP3    H124351   0.175   5.700   4.023 -1.1208  2.9981 -1.5063
 8129TIP3    H224352   0.123   5.616   3.908 -0.1123  0.5368 -0.2351
 8130TIP3   OH224353   5.228   0.488   0.459 -0.8701  0.9869 -0.5560
 8130TIP3    H124354   5.288   0.469   0.531 -2.0558 -0.8559  0.0440
 8130TIP3    H224355   5.190   0.573   0.480 -0.4713  0.9189  0.4830
 8131TIP3   OH224356   5.909   3.471   1.699  0.1155 -0.0690  0.4468
 8131TIP3    H124357   5.865   3.486   1.782 -0.9234  1.6016 -0.3269
 8131TIP3    H224358   5.842   3.430   1.643 -0.0971  1.2616 -0.3312
 8132TIP3   OH224359   4.869   5.467   4.100 -0.1318  0.8493 -0.8655
 8132TIP3    H124360   4.857   5.423   4.016  0.1603 -0.3600 -0.2999
 8132TIP3    H224361   4.801   5.534   4.103 -1.5331 -0.5219 -1.1434
 8133TIP3   OH224362   0.317   2.365   2.217 -0.0111 -0.2365  0.0455
 8133TIP3    H124363   0.225   2.353   2.240 -0.6818 -0.5371 -2.4736
 8133TIP3    H224364   0.355   2.277   2.223 -0.0368 -0.2142  0.5176
 8134TIP3   OH224365   4.200   1.954   3.320 -0.3043 -0.1767  0.4844
 8134TIP3    H124366   4.107   1.961   3.343 -0.3431 -1.0190  0.6244
 8134TIP3    H224367   4.218   2.034   3.271 -2.1217 -1.5947 -2.9236
 8135TIP3   OH224368   0.168   1.775   4.637  0.3838 -0.2705  0.4019
 8135TIP3    H124369   0.081   1.813   4.651 -0.3067 -0.6138 -2.4005
 8135TIP3    H224370   0.190   1.798   4.547  2.8937 -0.8741  0.7798
 8136TIP3   OH224371   5.073   3.924   3.557  0.0559 -0.5531  1.0178
 8136TIP3    H124372   5.080   3.867   3.480  0.5251 -0.2792  0.8528
 8136TIP3    H224373   5.026   3.872   3.622  1.3669 -1.5061  1.2366
 8137TIP3   OH224374   4.787   2.794   5.844 -0.1302  0.1798 -0.0512
 8137TIP3    H124375   4.780   2.713   5.894 -1.1381 -0.4795 -1.2075
 8137TIP3    H224376   4.870   2.786   5.796  0.6656  0.6632  1.1871
 8138TIP3   OH224377   2.884   0.968   2.089  0.1395 -0.1758 -0.4015
 8138TIP3    H124378   2.878   0.905   2.160  1.2151 -0.1567 -0.2736
 8138TIP3    H224379   2.809   1.027   2.102 -0.0340 -0.5511  0.3356
 8139TIP3   OH224380   2.852   2.507   2.633  0.2685  0.0426  0.1762
 8139TIP3    H124381   2.811   2.591   2.656  2.5557  1.7811 -1.6097
 8139TIP3    H224382   2.920   2.495   2.700  1.1900  0.6506 -0.6164
 8140TIP3   OH224383   3.612   0.294   2.096  0.1484  0.1250  0.5565
 8140TIP3    H124384   3.667   0.346   2.038 -0.8547  0.8755  0.2372
 8140TIP3    H224385   3.535   0.349   2.111 -1.2371 -1.4913 -0.2628
 8141TIP3   OH224386   2.824   6.814   2.203 -0.0206 -0.2357 -0.1815
 8141TIP3    H124387   2.739   6.771   2.209  0.2043 -0.6856 -0.1546
 8141TIP3    H224388   2.879   6.768   2.267 -0.4980  1.8994  1.8805
 8142TIP3   OH224389   2.843   1.754   0.071  0.1652  0.1926  0.0751
 8142TIP3    H124390   2.935   1.781   0.078  0.5711 -0.2861 -2.4718
 8142TIP3    H224391   2.841   1.666   0.109  0.3301  0.9101  1.8311
 8143TIP3   OH224392   6.378   5.336   1.717 -0.5441 -0.0601 -0.4673
 8143TIP3    H124393   6.349   5.418   1.757  0.4553  1.0801 -1.9773
 8143TIP3    H224394   6.453   5.360   1.662  0.2767 -2.1226 -0.3657
 8144TIP3   OH224395   3.593   4.733   0.389 -0.1814 -0.3114 -0.6232
 8144TIP3    H124396   3.653   4.754   0.317 -0.8170 -1.2004 -1.4382
 8144TIP3    H224397   3.512   4.778   0.367 -0.6683 -1.3216 -0.9467
 8145TIP3   OH224398   2.966   5.257   5.447  0.0996  0.6459 -0.3613
 8145TIP3    H124399   3.032   5.190   5.462  0.4064  0.9771 -0.2055
 8145TIP3    H224400   2.917   5.226   5.371 -2.0784 -1.5083  1.7465
 8146TIP3   OH224401   6.305   0.229   0.822  0.4439  0.2708  0.5816
 8146TIP3    H124402   6.396   0.240   0.795 -0.0009 -1.4938 -2.0776
 8146TIP3    H224403   6.255   0.232   0.740 -1.7699  0.1247  1.8411
 8147TIP3   OH224404   0.459   4.315   3.781  0.0968  0.1487 -0.0392
 8147TIP3    H124405   0.400   4.387   3.757 -0.0417  0.1657  0.3463
 8147TIP3    H224406   0.439   4.246   3.718  1.4823  1.0616 -1.5807
 8148TIP3   OH224407   2.056   3.540   4.133 -0.1990 -0.2526 -0.1157
 8148TIP3    H124408   1.978   3.581   4.096 -0.7733 -0.1417  1.1645
 8148TIP3    H224409   2.129   3.592   4.099 -0.7793  0.5587 -0.1542
 8149TIP3   OH224410   6.223   0.361   1.612  0.0339 -0.3224  0.2312
 8149TIP3    H124411   6.138   0.405   1.620  0.3766  0.3567  0.2139
 8149TIP3    H224412   6.202   0.274   1.580 -0.7548 -0.5379  1.2658
 8150TIP3   OH224413   2.836   2.403   2.021 -0.2250  0.7233 -0.2062
 8150TIP3    H124414   2.778   2.376   2.093 -2.6665  1.2086 -1.8525
 8150TIP3    H224415   2.923   2.375   2.049 -1.1048  0.4928  2.7152
 8151TIP3   OH224416   1.117   3.918   5.566 -0.2339  0.8103  0.2196
 8151TIP3    H124417   1.120   3.963   5.482 -0.2426  0.0690 -0.1855
 8151TIP3    H224418   1.201   3.874   5.574  0.4566  2.2248  1.3891
 8152TIP3   OH224419   4.276   4.661   4.969 -0.5602  0.1885 -0.4283
 8152TIP3    H124420   4.240   4.732   4.916  0.3885  0.9394 -0.1037
 8152TIP3    H224421   4.207   4.640   5.032 -0.2878  1.9484  0.5186
 8153TIP3   OH224422   7.191   1.616   1.647 -0.7527  0.0553  0.2533
 8153TIP3    H124423   7.110   1.569   1.625 -0.4621 -0.7356  0.8234
 8153TIP3    H224424   7.169   1.665   1.727 -0.4273 -0.8804  0.9407
 8154TIP3   OH224425   6.521   3.358   2.088 -0.1131  0.5323  0.3395
 8154TIP3    H124426   6.487   3.325   2.005  1.6099 -0.0894 -0.1460
 8154TIP3    H224427   6.559   3.281   2.130  2.4198  1.5063 -0.0247
 8155TIP3   OH224428   2.642   0.841   1.569 -0.0594 -0.0791  0.4509
 8155TIP3    H124429   2.695   0.767   1.599 -1.9380 -2.1802 -0.9467
 8155TIP3    H224430   2.662   0.848   1.475  0.7461  1.8322  0.7367
 8156TIP3   OH224431   1.631   5.627   0.237 -0.6062  0.4968 -0.0861
 8156TIP3    H124432   1.722   5.641   0.264 -1.1003  1.3197  1.2689
 8156TIP3    H224433   1.598   5.715   0.218 -1.2131  0.2440 -0.2354
 8157TIP3   OH224434   6.191   6.632   0.406 -0.6797 -0.0610 -0.2195
 8157TIP3    H124435   6.188   6.559   0.469  1.0367 -1.0104 -1.1512
 8157TIP3    H224436   6.281   6.663   0.410 -1.1978  1.5712 -0.3925
 8158TIP3   OH224437   6.449   5.872   0.153  0.0313 -0.7799  0.1282
 8158TIP3    H124438   6.476   5.938   0.090 -0.8840 -1.5309 -1.0975
 8158TIP3    H224439   6.484   5.903   0.236  1.8537 -0.0971 -0.8319
 8159TIP3   OH224440   0.057   1.019   1.089  0.4076  0.0655  0.3921
 8159TIP3    H124441   0.069   1.036   0.996 -1.4846 -2.6037 -0.4710
 8159TIP3    H224442  -0.007   1.084   1.117 -0.8218 -0.5811 -0.8089
 8160TIP3   OH224443   6.276   1.650   0.343 -0.1692 -0.1797 -0.4242
 8160TIP3    H124444   6.302   1.736   0.376  1.1353 -1.0255  0.9027
 8160TIP3    H224445   6.343   1.627   0.279 -1.1430  0.2481 -1.6279
 8161TIP3   OH224446   1.146   0.969   3.684  0.1281 -0.1092  0.8504
 8161TIP3    H124447   1.074   0.907   3.699 -0.4261  0.0653 -0.8516
 8161TIP3    H224448   1.155   1.015   3.767 -0.0646 -1.8125  1.8818
 8162TIP3   OH224449   3.109   1.649   4.783 -0.1614 -0.2729 -0.0738
 8162TIP3    H124450   3.151   1.671   4.866  0.3855  1.3424 -0.7328
 8162TIP3    H224451   3.116   1.729   4.731 -1.5682 -0.8701 -1.2452
 8163TIP3   OH224452   3.973   0.071   3.287 -0.4184  0.3325 -0.8408
 8163TIP3    H124453   3.982   0.153   3.336 -0.6961 -0.7411  1.0628
 8163TIP3    H224454   3.957   0.100   3.197  0.8319  2.3670 -0.4910
 8164TIP3   OH224455   6.956   3.896   4.531 -0.4915 -0.2157  0.5491
 8164TIP3    H124456   7.022   3.920   4.596 -0.3785 -0.3131  0.4712
 8164TIP3    H224457   6.905   3.976   4.519 -0.0489  0.0271  0.2126
 8165TIP3   OH224458   1.317   6.470   5.123 -0.5387 -0.1308  0.1802
 8165TIP3    H124459   1.396   6.471   5.176  0.4474 -0.5276 -1.2223
 8165TIP3    H224460   1.330   6.398   5.061 -0.5997  1.6524 -2.0626
 8166TIP3   OH224461   3.755   5.939   0.401  0.2664  0.2178  0.2528
 8166TIP3    H124462   3.687   5.876   0.426 -0.6920  0.3175 -1.9265
 8166TIP3    H224463   3.708   6.011   0.360  1.5879  0.9619 -0.0263
 8167TIP3   OH224464   3.217   1.273   4.875  0.4553 -0.2074 -0.1174
 8167TIP3    H124465   3.252   1.315   4.953 -0.8637  1.0568 -0.1515
 8167TIP3    H224466   3.263   1.190   4.869  0.7254 -0.2400  1.8859
 8168TIP3   OH224467   3.070   0.484   2.146  0.0430 -0.1479  0.2979
 8168TIP3    H124468   2.988   0.458   2.106  0.7209 -0.0880 -1.1825
 8168TIP3    H224469   3.049   0.497   2.239 -2.1915  2.2640 -0.4271
 8169TIP3   OH224470   1.344   2.528   2.482  0.0715 -0.0469 -0.3291
 8169TIP3    H124471   1.302   2.471   2.545  0.7162 -1.6700 -1.3164
 8169TIP3    H224472   1.401   2.471   2.431  1.0687  1.5450 -1.0948
 8170TIP3   OH224473   3.859   3.305   0.372 -0.1310  0.0508  0.1250
 8170TIP3    H124474   3.863   3.210   0.373 -0.4852  0.0382  0.7288
 8170TIP3    H224475   3.925   3.333   0.435  0.5116  0.2362 -0.6100
 8171TIP3   OH224476   4.475   5.222   2.066  0.0233 -0.4193  0.2019
 8171TIP3    H124477   4.489   5.305   2.110 -0.6645 -0.1689 -0.0387
 8171TIP3    H224478   4.381   5.208   2.070  0.2360 -1.7514  1.2359
 8172TIP3   OH224479   4.688   2.645   4.293 -0.2092  0.3433  0.0404
 8172TIP3    H124480   4.600   2.629   4.258 -1.3285 -0.6771  3.0576
 8172TIP3    H224481   4.686   2.735   4.323 -0.1766  0.3517  0.0176
 8173TIP3   OH224482   1.716   2.764   1.781 -0.3649 -0.3212  0.3994
 8173TIP3    H124483   1.621   2.765   1.783 -0.4527  1.9428 -1.1769
 8173TIP3    H224484   1.738   2.750   1.689  0.8864 -1.8483  0.8809
 8174TIP3   OH224485   1.156   4.812   0.593  0.0383  0.6400 -0.5717
 8174TIP3    H124486   1.245   4.821   0.628 -0.0607 -1.2219  0.2888
 8174TIP3    H224487   1.103   4.871   0.648  0.2794 -0.4969  0.9397
 8175TIP3   OH224488   4.158   1.920   3.024  0.3475 -0.1781  0.1376
 8175TIP3    H124489   4.134   1.864   3.098  1.6419 -0.6959  0.1948
 8175TIP3    H224490   4.236   1.967   3.054  0.2001  0.4766 -0.4882
 8176TIP3   OH224491   1.964   4.676   3.452  0.5888 -0.8914 -0.1502
 8176TIP3    H124492   1.981   4.628   3.533  0.1245  0.4017  0.7609
 8176TIP3    H224493   2.002   4.762   3.467  0.5141 -0.6310 -1.3319
 8177TIP3   OH224494   5.590   0.026   4.226  0.0194  0.0406  0.2831
 8177TIP3    H124495   5.531   0.086   4.272  0.3499  0.4559  0.1759
 8177TIP3    H224496   5.590   0.058   4.136 -1.2848 -1.2704 -0.2329
 8178TIP3   OH224497   2.148   1.243   2.970 -0.2657 -0.3563  0.5155
 8178TIP3    H124498   2.209   1.317   2.976  0.3670 -0.7088 -1.2088
 8178TIP3    H224499   2.116   1.233   3.060  0.3460  1.3970  0.9866
 8179TIP3   OH224500   2.187   3.052   3.082  0.4579 -0.1273  0.2706
 8179TIP3    H124501   2.216   2.969   3.120  0.1945 -1.1507 -1.6292
 8179TIP3    H224502   2.141   3.027   3.002  0.6693  1.8828 -0.5455
 8180TIP3   OH224503   4.570   4.817   0.762  0.1513 -0.1531  0.0260
 8180TIP3    H124504   4.595   4.726   0.775 -0.9378 -0.5486 -0.4508
 8180TIP3    H224505   4.530   4.818   0.675  3.6185  1.5655 -1.7187
 8181TIP3   OH224506   4.023   4.894   5.083 -0.1694  0.4174  0.2489
 8181TIP3    H124507   4.079   4.941   5.022  2.1246 -1.1758  1.0121
 8181TIP3    H224508   4.023   4.804   5.053  0.2929 -0.2279  2.0718
 8182TIP3   OH224509   2.917   1.133   5.114  0.0984 -0.4819 -0.3128
 8182TIP3    H124510   2.838   1.129   5.060 -1.0381  0.5686  1.1595
 8182TIP3    H224511   2.943   1.225   5.110 -1.0988  0.0634  2.2783
 8183TIP3   OH224512   0.700   5.246   0.856  0.2407  0.5115  0.7656
 8183TIP3    H124513   0.762   5.231   0.785 -0.7352  0.4127 -0.0894
 8183TIP3    H224514   0.617   5.208   0.825 -0.5843  1.7643  1.3301
 8184TIP3   OH224515   3.565   1.618   0.884 -0.7334 -0.0079  0.5084
 8184TIP3    H124516   3.592   1.526   0.886 -0.4147  0.0914  0.8757
 8184TIP3    H224517   3.477   1.618   0.923 -0.5505 -0.0966  0.9228
 8185TIP3   OH224518   6.599   5.303   3.898  0.5588  0.6830 -0.0742
 8185TIP3    H124519   6.611   5.210   3.914  1.7841  0.9243  0.4954
 8185TIP3    H224520   6.531   5.307   3.830  0.9381 -0.6391 -0.5610
 8186TIP3   OH224521   6.257   6.418   0.556 -0.2677  1.1286 -0.0834
 8186TIP3    H124522   6.294   6.331   0.567 -2.2771  0.4002  1.6085
 8186TIP3    H224523   6.241   6.448   0.645 -1.4292  2.4125 -0.6913
 8187TIP3   OH224524   2.534   5.762   3.986  0.0562  0.3893 -0.6667
 8187TIP3    H124525   2.509   5.833   3.927 -2.0195  0.1381 -0.1514
 8187TIP3    H224526   2.504   5.791   4.073 -0.4611 -0.9235 -0.3854
 8188TIP3   OH224527   2.754   1.935   5.051  0.5362 -0.3828 -0.3386
 8188TIP3    H124528   2.716   2.023   5.048  0.0884 -0.4534  1.6958
 8188TIP3    H224529   2.759   1.908   4.960  1.3622  2.0346 -1.0768
 8189TIP3   OH224530   4.639   4.761   5.422 -0.5129  0.0641 -0.0722
 8189TIP3    H124531   4.717   4.712   5.446 -0.0813  0.6930 -0.1761
 8189TIP3    H224532   4.630   4.827   5.491 -2.1030 -1.2489  1.0556
 8190TIP3   OH224533   6.425   3.849   5.586 -0.0161 -0.1939 -0.1649
 8190TIP3    H124534   6.472   3.930   5.566 -1.2471  0.3303 -1.1179
 8190TIP3    H224535   6.394   3.818   5.500  1.2599 -2.2301  0.0402
 8191TIP3   OH224536   0.169   3.448   1.141  0.4111  0.5190  0.1005
 8191TIP3    H124537   0.259   3.479   1.132  0.4966 -0.0574 -1.3182
 8191TIP3    H224538   0.177   3.354   1.155  0.0517  0.6188  1.0123
 8192TIP3   OH224539   6.068   3.142   2.812 -0.2857 -0.1105 -0.2740
 8192TIP3    H124540   6.002   3.108   2.751  0.5521  0.7131 -1.6922
 8192TIP3    H224541   6.030   3.223   2.845 -0.6338 -0.4277  0.1168
 8193TIP3   OH224542   6.355   1.750   3.517 -0.2800 -0.3138  0.2903
 8193TIP3    H124543   6.430   1.707   3.477 -0.2094 -0.4088  0.5217
 8193TIP3    H224544   6.348   1.833   3.470  2.5149  1.6075  2.8530
 8194TIP3   OH224545   6.200   3.388   0.861  0.3564  0.0953 -0.5189
 8194TIP3    H124546   6.181   3.340   0.942 -0.1954 -0.6234 -1.0535
 8194TIP3    H224547   6.274   3.341   0.823 -1.4295 -1.6792 -2.0555
 8195TIP3   OH224548   4.753   5.956   1.404 -0.1212 -0.3188  0.3596
 8195TIP3    H124549   4.672   6.007   1.402  0.2251  0.2097 -0.6201
 8195TIP3    H224550   4.821   6.018   1.430 -0.0240 -0.7707  1.2219
 8196TIP3   OH224551   1.726   3.408   5.747 -0.5230  0.0899 -0.3528
 8196TIP3    H124552   1.785   3.370   5.813 -0.5240 -0.2616 -0.5484
 8196TIP3    H224553   1.716   3.338   5.683 -1.9087 -0.1979  0.1542
 8197TIP3   OH224554   4.725   1.665   2.867  0.1725  0.7528  0.3549
 8197TIP3    H124555   4.676   1.591   2.832 -0.1752  0.9457  0.4356
 8197TIP3    H224556   4.740   1.721   2.791 -1.3826  1.6265  0.6596
 8198TIP3   OH224557   3.639   3.060   0.043 -0.0353 -0.5092 -0.2784
 8198TIP3    H124558   3.564   3.111   0.072  0.5522 -0.2754  0.8930
 8198TIP3    H224559   3.700   3.063   0.117  2.4829  1.9423 -2.2060
 8199TIP3   OH224560   5.808   1.544   1.526 -0.0543 -0.6203  0.6978
 8199TIP3    H124561   5.762   1.581   1.602  0.4394  0.1435  0.6374
 8199TIP3    H224562   5.819   1.618   1.467 -1.3934 -1.4182 -0.6186
 8200TIP3   OH224563   1.235   5.222   5.282 -0.0790  0.2853 -0.0386
 8200TIP3    H124564   1.293   5.244   5.209 -0.4855 -0.2562 -0.5269
 8200TIP3    H224565   1.201   5.135   5.261  0.9297 -0.5326  1.5083
 8201TIP3   OH224566   1.742   2.123   0.265 -0.1933  0.4094  0.2894
 8201TIP3    H124567   1.768   2.034   0.239 -1.5151  0.0244  0.2121
 8201TIP3    H224568   1.736   2.118   0.361  0.3427  0.5929  0.3339
 8202TIP3   OH224569   0.591   2.754   4.679 -0.0877 -0.1772  0.0686
 8202TIP3    H124570   0.544   2.816   4.624 -0.4110 -0.7165 -0.2795
 8202TIP3    H224571   0.627   2.690   4.617 -0.2983 -0.6866  0.4670
 8203TIP3   OH224572   3.513   4.475   5.029  0.0064 -0.4313 -0.0510
 8203TIP3    H124573   3.595   4.509   4.991  0.1386  0.5720  1.0906
 8203TIP3    H224574   3.484   4.409   4.965  0.4618  0.8405 -1.6492
 8204TIP3   OH224575   6.972   2.989   2.193  0.3067 -0.2538  0.5750
 8204TIP3    H124576   7.002   2.922   2.133  2.0209 -1.1035  2.2512
 8204TIP3    H224577   6.994   3.072   2.151 -0.0227 -0.7710 -0.6382
 8205TIP3   OH224578   6.003   5.968   4.586  0.4534 -0.3949  0.2212
 8205TIP3    H124579   6.098   5.961   4.598  0.9409  2.3280 -1.2192
 8205TIP3    H224580   5.977   5.881   4.554  2.4614 -1.1822  0.5464
 8206TIP3   OH224581   3.523   5.851   4.608 -0.2340  0.0275  0.1478
 8206TIP3    H124582   3.560   5.767   4.635  0.2004  0.7420  1.9606
 8206TIP3    H224583   3.471   5.880   4.683  0.0820  1.6255 -0.1967
 8207TIP3   OH224584   7.158   2.978   3.297  0.1932 -0.4236  0.3036
 8207TIP3    H124585   7.081   3.011   3.251  0.2571  0.2985  0.7088
 8207TIP3    H224586   7.166   2.887   3.267 -0.4016 -0.2953 -0.2738
 8208TIP3   OH224587   1.694   2.308   4.283 -0.0143 -0.2494 -0.0019
 8208TIP3    H124588   1.622   2.247   4.298  0.7982 -1.4963 -0.9244
 8208TIP3    H224589   1.652   2.384   4.242 -0.8820 -0.6967  0.0198
 8209TIP3   OH224590   0.022   3.246   0.098  0.0833 -0.2378 -0.0699
 8209TIP3    H124591   0.049   3.313   0.035  0.2254  1.9285  2.1570
 8209TIP3    H224592   0.086   3.176   0.087 -0.0022 -0.0462 -2.4070
 8210TIP3   OH224593   0.234   4.535   1.038 -0.3128 -0.2517 -0.0954
 8210TIP3    H124594   0.157   4.506   0.989 -0.8355  0.4622  0.2809
 8210TIP3    H224595   0.285   4.586   0.974  1.0437 -2.5736 -1.0113
 8211TIP3   OH224596   5.482   3.679   0.810 -0.0260 -0.7958  0.0558
 8211TIP3    H124597   5.437   3.726   0.740  1.0556 -0.2224 -0.2760
 8211TIP3    H224598   5.564   3.648   0.771  0.3186 -1.0003  0.8970
 8212TIP3   OH224599   3.429   2.910   3.058  0.4550 -0.2157  0.1783
 8212TIP3    H124600   3.414   2.840   3.122 -1.1817  0.6307  0.7854
 8212TIP3    H224601   3.367   2.893   2.987 -0.2412  0.7868  0.5121
 8213TIP3   OH224602   1.668   0.043   4.639  0.0013 -0.1985 -0.2631
 8213TIP3    H124603   1.620   0.096   4.575 -0.8187 -0.6821 -0.0724
 8213TIP3    H224604   1.670   0.097   4.718 -1.2044 -0.6007  0.0614
 8214TIP3   OH224605   2.379   0.227   5.080  0.3191  0.2073 -0.7660
 8214TIP3    H124606   2.398   0.167   5.009 -1.0104 -0.1833 -0.8191
 8214TIP3    H224607   2.383   0.314   5.040  0.7806  0.0628 -1.0346
 8215TIP3   OH224608   2.092   6.102   3.630  0.2864  0.1787 -0.2643
 8215TIP3    H124609   2.049   6.186   3.616  1.1397  0.6947  0.1424
 8215TIP3    H224610   2.028   6.037   3.602 -0.0825  0.9883 -1.3488
 8216TIP3   OH224611   1.264   1.436   0.607  0.4976 -0.0209 -0.0799
 8216TIP3    H124612   1.238   1.401   0.692  0.9016  0.0696  0.0862
 8216TIP3    H224613   1.309   1.518   0.628  3.2893 -1.4002 -0.0773
 8217TIP3   OH224614   5.028   1.958   3.356  0.2161  0.0257  0.1785
 8217TIP3    H124615   4.962   2.018   3.322 -0.2267 -0.6587 -0.2038
 8217TIP3    H224616   4.983   1.874   3.362  0.1465  0.1886  2.8980
 8218TIP3   OH224617   5.049   6.657   3.615  0.0967  0.0249 -0.0188
 8218TIP3    H124618   4.975   6.643   3.674  0.1357 -1.9370 -0.3656
 8218TIP3    H224619   5.124   6.669   3.674 -0.2219  0.2988  0.3341
 8219TIP3   OH224620   6.983   1.667   2.104 -0.0631 -0.1122  0.3079
 8219TIP3    H124621   7.012   1.633   2.188 -1.8987  2.0105  1.9333
 8219TIP3    H224622   6.917   1.605   2.074 -0.6471 -0.0213  1.3445
 8220TIP3   OH224623   1.625   5.644   2.502 -0.0440 -0.4902 -0.3673
 8220TIP3    H124624   1.539   5.674   2.475 -0.2097 -1.3679 -0.8456
 8220TIP3    H224625   1.632   5.670   2.594 -1.6198 -2.1267  0.2746
 8221TIP3   OH224626   3.118   5.897   0.777  0.6231  0.0406 -0.4495
 8221TIP3    H124627   3.036   5.930   0.815  1.1300  0.9931 -0.1588
 8221TIP3    H224628   3.186   5.927   0.838  1.4534  1.5661 -2.0300
 8222TIP3   OH224629   4.346   0.642   1.821 -0.2103  0.5012 -0.3487
 8222TIP3    H124630   4.355   0.548   1.833 -3.6421  0.0711 -0.0137
 8222TIP3    H224631   4.330   0.676   1.910  2.4181  1.7218 -0.2374
 8223TIP3   OH224632   2.789   1.213   2.250 -0.0973 -0.1931 -0.3314
 8223TIP3    H124633   2.850   1.147   2.281  0.6345 -0.1488 -1.5870
 8223TIP3    H224634   2.804   1.289   2.306  2.1690  0.3582 -1.5610
 8224TIP3   OH224635   6.179   0.963   5.516  0.6608  0.1892  0.7324
 8224TIP3    H124636   6.192   1.028   5.585 -1.7999  0.5203  0.9732
 8224TIP3    H224637   6.141   0.887   5.561 -0.0139  0.0201 -0.0926
 8225TIP3   OH224638   3.018   5.019   2.193  0.3764 -0.2361 -0.7945
 8225TIP3    H124639   3.014   4.928   2.221  0.5361  0.2411  0.8753
 8225TIP3    H224640   3.103   5.027   2.149  1.0668 -0.5510  0.4251
 8226TIP3   OH224641   5.585   0.029   4.578  0.1958 -0.1706 -0.1156
 8226TIP3    H124642   5.573   0.122   4.596  0.2980 -0.2560  0.4214
 8226TIP3    H224643   5.675   0.011   4.608 -0.2372 -0.7015  0.9455
 8227TIP3   OH224644   4.195   6.326   4.557  0.1395  0.0338  0.4489
 8227TIP3    H124645   4.246   6.382   4.616 -0.7526  1.3556  0.0252
 8227TIP3    H224646   4.115   6.307   4.605  0.3209 -0.6569  0.4778
 8228TIP3   OH224647   0.329   5.760   4.693 -0.1377 -0.2083  0.4349
 8228TIP3    H124648   0.347   5.854   4.692  0.1287 -0.2657 -0.2002
 8228TIP3    H224649   0.297   5.740   4.606 -0.5124 -0.6532  0.6696
 8229TIP3   OH224650   3.564   0.569   3.019  0.3129 -0.8506  0.0101
 8229TIP3    H124651   3.524   0.520   2.948  0.2906 -2.7182  1.2279
 8229TIP3    H224652   3.560   0.509   3.094  0.3128  1.0260  1.5904
 8230TIP3   OH224653   7.052   6.505   5.706 -0.0464 -0.1558 -0.8320
 8230TIP3    H124654   6.985   6.548   5.653  0.7549  0.9127 -0.9904
 8230TIP3    H224655   7.019   6.509   5.796 -0.2743  0.2027 -0.9337
 8231TIP3   OH224656   3.197   3.378   1.968  1.6010 -0.0955  0.5379
 8231TIP3    H124657   3.112   3.356   2.006  1.4675  0.1853  0.4072
 8231TIP3    H224658   3.187   3.360   1.874 -0.0496  4.6584 -0.5027
 8232TIP3   OH224659   1.729   5.724   3.525  0.0856  0.3369  0.1687
 8232TIP3    H124660   1.698   5.692   3.439  2.2851 -1.5149 -0.0160
 8232TIP3    H224661   1.685   5.667   3.588 -0.9227  1.1971  0.2853
 8233TIP3   OH224662   4.045   1.396   2.492  0.3223 -0.1532  0.4155
 8233TIP3    H124663   4.071   1.334   2.560 -1.3719 -0.2084  1.0516
 8233TIP3    H224664   4.017   1.474   2.539  1.6588  0.8411 -0.3543
 8234TIP3   OH224665   3.770   5.295   2.758  0.5408 -0.1515 -0.1901
 8234TIP3    H124666   3.733   5.243   2.686 -1.9667  0.3024  0.6915
 8234TIP3    H224667   3.733   5.256   2.837  2.8026 -0.2816  0.8900
 8235TIP3   OH224668   7.128   2.343   4.209 -0.2342 -0.0663  0.0928
 8235TIP3    H124669   7.163   2.262   4.247  0.7988 -0.2259 -1.1495
 8235TIP3    H224670   7.136   2.408   4.279  0.5965 -0.6123  0.5217
 8236TIP3   OH224671   2.006   3.706   0.178  0.3822  0.4697 -0.6973
 8236TIP3    H124672   1.921   3.748   0.169 -0.4820 -0.5935  1.6562
 8236TIP3    H224673   2.002   3.630   0.121 -0.9989 -0.5834  0.7194
 8237TIP3   OH224674   6.339   1.937   2.893  0.4279  0.4900 -0.0619
 8237TIP3    H124675   6.287   1.920   2.815 -0.7419  2.0408  0.3074
 8237TIP3    H224676   6.282   1.912   2.966  1.1543 -0.0973  0.3116
 8238TIP3   OH224677   3.128   2.486   1.603 -0.1007 -0.1807 -0.3322
 8238TIP3    H124678   3.052   2.455   1.651 -0.2984  0.7698 -0.0040
 8238TIP3    H224679   3.203   2.457   1.654 -0.2546 -0.7122 -0.4054
 8239TIP3   OH224680   6.115   2.862   1.430  0.5154 -0.1752 -0.0346
 8239TIP3    H124681   6.036   2.841   1.478 -0.5875  0.6281 -1.4333
 8239TIP3    H224682   6.185   2.817   1.478 -0.9881 -2.3296  0.2725
 8240TIP3   OH224683   4.321   6.272   1.521 -0.1573 -0.0930 -0.3398
 8240TIP3    H124684   4.259   6.214   1.564  0.1870 -0.0985  0.1465
 8240TIP3    H224685   4.378   6.304   1.591  1.1223 -0.9939 -0.9487
 8241TIP3   OH224686   0.300   2.121   0.088 -0.2296  0.1520 -0.0676
 8241TIP3    H124687   0.340   2.206   0.107 -0.5417  0.0515  1.1328
 8241TIP3    H224688   0.206   2.134   0.104 -0.3811 -0.2104 -0.6369
 8242TIP3   OH224689   0.700   0.362   3.879 -0.0630  0.3227 -0.1084
 8242TIP3    H124690   0.648   0.442   3.883 -1.1111 -0.2516 -1.4244
 8242TIP3    H224691   0.701   0.330   3.970  1.4367  2.4099  0.6985
 8243TIP3   OH224692   2.034   0.417   5.581  0.3356 -0.3625 -0.2059
 8243TIP3    H124693   2.126   0.411   5.555  0.0161 -0.6045 -1.3585
 8243TIP3    H224694   2.001   0.327   5.573 -0.0720 -0.2260 -0.0819
 8244TIP3   OH224695   3.571   1.779   3.035 -0.1949 -0.0946  0.3596
 8244TIP3    H124696   3.603   1.793   3.124 -1.2631  1.2036  0.5669
 8244TIP3    H224697   3.646   1.740   2.988  0.6325 -0.0467  1.6053
 8245TIP3   OH224698   6.752   2.384   0.394  0.6933 -0.4747  0.1372
 8245TIP3    H124699   6.840   2.371   0.359  1.3577 -1.1403  1.9506
 8245TIP3    H224700   6.709   2.440   0.330  2.4502 -0.0837 -0.7620
 8246TIP3   OH224701   4.356   5.101   0.575 -0.5492 -0.2870  0.5078
 8246TIP3    H124702   4.422   5.045   0.534 -2.0241 -1.0973 -0.8513
 8246TIP3    H224703   4.279   5.046   0.583 -1.5873  1.1258  0.5381
 8247TIP3   OH224704   3.675   4.154   5.103 -0.5029  1.0379  0.2543
 8247TIP3    H124705   3.700   4.071   5.062 -1.5485 -0.0698  1.7419
 8247TIP3    H224706   3.582   4.145   5.122 -0.5887  2.4623  0.6767
 8248TIP3   OH224707   1.002   6.748   1.052 -0.2261 -0.3382  0.1283
 8248TIP3    H124708   1.053   6.780   0.978 -1.0400 -2.2786 -1.3420
 8248TIP3    H224709   0.912   6.770   1.031 -0.3948 -0.2604  0.9010
 8249TIP3   OH224710   3.445   6.435   2.881  0.5135 -0.3152 -0.2481
 8249TIP3    H124711   3.487   6.440   2.795  3.4216  1.7161  1.1357
 8249TIP3    H224712   3.389   6.513   2.885  1.4598  0.3584  0.1716
 8250TIP3   OH224713   0.759   3.762   4.438 -0.4807  0.1910  0.1246
 8250TIP3    H124714   0.778   3.814   4.516  0.0446  2.8903 -1.6699
 8250TIP3    H224715   0.690   3.811   4.393 -0.4296 -1.0446 -1.3656
 8251TIP3   OH224716   5.361   2.671   1.159 -0.0243 -0.1104  0.6899
 8251TIP3    H124717   5.272   2.641   1.179 -0.9271  1.8800 -0.0623
 8251TIP3    H224718   5.416   2.593   1.168 -1.8263 -1.3567  1.2945
 8252TIP3   OH224719   3.225   0.683   5.604  1.0101 -0.8878 -0.0024
 8252TIP3    H124720   3.148   0.627   5.598  1.0964 -1.1352  1.0009
 8252TIP3    H224721   3.215   0.730   5.686  0.3720  1.4682 -1.3267
 8253TIP3   OH224722   6.480   2.917   3.617  0.6032 -0.3159 -0.1911
 8253TIP3    H124723   6.465   3.010   3.629  0.3418 -0.4747  0.8512
 8253TIP3    H224724   6.443   2.897   3.531  1.3952  0.6822 -0.7819
 8254TIP3   OH224725   3.707   3.527   1.743  0.0936 -0.2723  0.5059
 8254TIP3    H124726   3.658   3.481   1.675  0.7518  1.0533 -0.9132
 8254TIP3    H224727   3.716   3.616   1.710  2.0831 -0.0708  1.4464
 8255TIP3   OH224728   2.451   4.391   2.407  0.1398 -0.4728  0.0737
 8255TIP3    H124729   2.372   4.417   2.360  0.1751 -1.6724 -0.7000
 8255TIP3    H224730   2.500   4.472   2.419 -1.2531  0.3064  0.6729
 8256TIP3   OH224731   3.254   4.051   5.806 -0.5249 -0.3763  0.3153
 8256TIP3    H124732   3.256   4.117   5.875  0.2048 -1.3473  1.2503
 8256TIP3    H224733   3.291   4.096   5.730  1.1232 -0.0341  1.2610
 8257TIP3   OH224734  -0.015   2.387   4.937  0.6738 -0.3726 -0.2388
 8257TIP3    H124735   0.065   2.409   4.984  0.2597  0.9579 -0.1245
 8257TIP3    H224736  -0.048   2.471   4.904 -0.7833 -0.8673 -0.1132
 8258TIP3   OH224737   4.153   3.067   1.700 -0.4075  0.0959 -0.4637
 8258TIP3    H124738   4.185   3.021   1.623  0.0653  1.9780 -1.4411
 8258TIP3    H224739   4.228   3.120   1.729 -1.1318  0.7750  0.2040
 8259TIP3   OH224740   2.139   5.872   0.203  0.2600 -0.3102 -0.0406
 8259TIP3    H124741   2.105   5.951   0.243  1.1911  0.2864 -0.3852
 8259TIP3    H224742   2.202   5.838   0.267  0.4519 -0.3182 -0.2296
 8260TIP3   OH224743   3.403   5.875   2.731  0.6165  0.0846 -0.4665
 8260TIP3    H124744   3.430   5.966   2.719  2.0619 -0.2411  0.1197
 8260TIP3    H224745   3.470   5.824   2.685  1.4148 -0.7850  1.5403
 8261TIP3   OH224746   5.276   5.416   2.037  0.5842 -0.3752  0.0432
 8261TIP3    H124747   5.233   5.384   2.117  0.4337  1.5719  0.8063
 8261TIP3    H224748   5.324   5.493   2.066 -0.0220  0.7795 -1.8773
 8262TIP3   OH224749   2.663   1.960   4.191  0.4288 -0.3448  0.1356
 8262TIP3    H124750   2.653   1.926   4.280  0.6045  4.1507  2.1287
 8262TIP3    H224751   2.757   1.980   4.184  0.2460  0.2682 -0.6885
 8263TIP3   OH224752   0.166   2.244   4.327 -0.6874  0.1555 -0.4936
 8263TIP3    H124753   0.213   2.296   4.392 -1.1628 -1.4313  1.1860
 8263TIP3    H224754   0.222   2.246   4.249  0.0983  1.7302  0.0726
 8264TIP3   OH224755   3.473   0.031   2.230 -0.2144  0.0329  0.0239
 8264TIP3    H124756   3.381   0.022   2.256 -0.0735 -1.7490  0.0398
 8264TIP3    H224757   3.504   0.108   2.278 -1.3743 -0.0444  0.9483
 8265TIP3   OH224758   0.992   1.905   2.465  0.2994 -0.1405 -0.5293
 8265TIP3    H124759   1.003   1.815   2.495 -0.5621 -0.0117  0.2058
 8265TIP3    H224760   0.912   1.903   2.412 -0.3205  0.3958  0.3672
 8266TIP3   OH224761   1.425   4.743   1.007 -0.3796 -0.8088  0.0222
 8266TIP3    H124762   1.441   4.789   0.924 -0.1788  0.0156  0.5044
 8266TIP3    H224763   1.349   4.787   1.044  0.1317 -0.5077  0.7365
 8267TIP3   OH224764   6.941   1.908   2.386 -0.1474  0.0217 -0.2700
 8267TIP3    H124765   7.013   1.892   2.446  0.5232 -0.8667 -1.2788
 8267TIP3    H224766   6.909   1.821   2.362 -1.7394  0.3917  0.3539
 8268TIP3   OH224767   0.401   1.660   5.131 -0.3733 -0.1015  0.8848
 8268TIP3    H124768   0.449   1.604   5.070  1.1096  0.5603  1.3787
 8268TIP3    H224769   0.414   1.617   5.216 -0.4481  0.2177  1.0566
 8269TIP3   OH224770   3.030   6.692   2.342  0.6967 -0.1377 -0.1535
 8269TIP3    H124771   3.103   6.640   2.307  0.3929 -1.0894  0.5941
 8269TIP3    H224772   2.973   6.628   2.384  0.1866  0.7861  0.5857
 8270TIP3   OH224773   4.255   1.506   0.202  0.2955  0.2223  0.6153
 8270TIP3    H124774   4.190   1.537   0.140  0.6452  1.9836  1.0521
 8270TIP3    H224775   4.209   1.503   0.286  0.2545 -0.5371  0.5734
 8271TIP3   OH224776   2.799   1.471   4.528 -0.5020 -0.4169 -0.2674
 8271TIP3    H124777   2.876   1.440   4.576 -0.6731  2.5574  2.2077
 8271TIP3    H224778   2.835   1.517   4.452  0.0301 -0.9409 -0.3386
 8272TIP3   OH224779   6.842   6.701   2.592 -0.3394  0.2059 -0.5052
 8272TIP3    H124780   6.879   6.644   2.659 -0.3230  1.8107  0.9455
 8272TIP3    H224781   6.918   6.741   2.549 -0.3000  1.3132  0.5116
 8273TIP3   OH224782   1.853   0.023   4.236  0.6500  0.3483 -0.5013
 8273TIP3    H124783   1.772   0.064   4.204  0.6115  0.3389 -0.4166
 8273TIP3    H224784   1.825  -0.031   4.310  0.4371 -1.1379 -1.6153
 8274TIP3   OH224785   1.161   6.234   4.388 -0.4941  0.1299  0.0668
 8274TIP3    H124786   1.147   6.259   4.296  1.6128  0.1761 -0.2930
 8274TIP3    H224787   1.202   6.147   4.383 -1.0085 -0.1718  0.9957
 8275TIP3   OH224788   6.703   0.418   3.112  0.2152  0.4640 -0.3951
 8275TIP3    H124789   6.780   0.459   3.074  2.5067 -1.8037  1.4519
 8275TIP3    H224790   6.658   0.489   3.158  3.8555  1.2140  2.4713
 8276TIP3   OH224791   3.606   6.807   0.849  0.0454  0.1070  0.1346
 8276TIP3    H124792   3.527   6.860   0.836  0.8682  2.0622  2.4585
 8276TIP3    H224793   3.576   6.729   0.896 -0.8583 -0.5309 -1.4353
 8277TIP3   OH224794   5.713   6.775   5.610  0.4934  0.0438  0.1703
 8277TIP3    H124795   5.708   6.745   5.700  1.7043 -1.1072 -0.1127
 8277TIP3    H224796   5.628   6.754   5.572 -0.3909  1.4547  1.2840
 8278TIP3   OH224797   1.079   4.229   5.661  0.1502  0.3962  0.4607
 8278TIP3    H124798   1.146   4.175   5.703  0.2408  0.2319  0.1168
 8278TIP3    H224799   1.009   4.167   5.640 -0.6385  0.7663  1.8717
 8279TIP3   OH224800   6.988   5.274   1.864 -0.3533  0.1176 -0.1142
 8279TIP3    H124801   7.012   5.344   1.925 -0.0720 -1.3497  1.5158
 8279TIP3    H224802   7.018   5.193   1.906 -2.5659 -1.2087 -0.9207
 8280TIP3   OH224803   4.421   5.928   0.404  0.0317 -0.2655  0.0260
 8280TIP3    H124804   4.490   5.993   0.419  1.8232 -1.8596 -0.8130
 8280TIP3    H224805   4.467   5.852   0.368 -1.9880 -1.9270  0.7081
 8281TIP3   OH224806   5.785   3.622   1.078  0.7407 -0.5177  0.0792
 8281TIP3    H124807   5.815   3.571   1.003  0.2455 -0.4395 -0.1798
 8281TIP3    H224808   5.802   3.713   1.054 -2.7141 -0.1572 -1.5619
 8282TIP3   OH224809   4.815   2.134   1.669  0.1064 -0.4973 -0.0474
 8282TIP3    H124810   4.893   2.085   1.645 -0.2629 -0.6564 -0.9505
 8282TIP3    H224811   4.827   2.220   1.629 -0.1477 -0.4968 -0.1254
 8283TIP3   OH224812   2.605   1.129   4.962 -0.1689 -0.1267  0.1987
 8283TIP3    H124813   2.562   1.098   5.042 -1.6554  0.7430 -0.2036
 8283TIP3    H224814   2.592   1.224   4.964  0.9300  0.0503 -0.4354
 8284TIP3   OH224815   4.682   0.717   2.449 -0.5991  0.7234  0.0539
 8284TIP3    H124816   4.658   0.743   2.360 -0.8609 -0.4700 -0.2418
 8284TIP3    H224817   4.778   0.714   2.448 -0.5975  0.8481 -0.1536
 8285TIP3   OH224818   6.071   4.120   5.485  0.0404 -0.0333 -0.0873
 8285TIP3    H124819   5.977   4.101   5.496 -0.1635  0.6941 -0.5192
 8285TIP3    H224820   6.113   4.035   5.493 -0.7465 -0.5172 -0.8528
 8286TIP3   OH224821   0.447   5.911   1.272  0.5144  0.1330 -0.1786
 8286TIP3    H124822   0.526   5.946   1.311 -0.0567 -1.6904  2.9810
 8286TIP3    H224823   0.478   5.845   1.209  1.4707  1.3373 -1.0022
 8287TIP3   OH224824   1.363   6.521   4.028 -0.6294  0.3911 -0.2142
 8287TIP3    H124825   1.363   6.559   3.940 -0.4856  3.2633  0.9167
 8287TIP3    H224826   1.286   6.466   4.030  0.8725 -2.0602 -2.9749
 8288TIP3   OH224827   2.306   2.930   2.199 -0.2235  0.3958  0.6204
 8288TIP3    H124828   2.247   2.866   2.240 -0.1564  0.1104  0.2699
 8288TIP3    H224829   2.248   2.982   2.142  0.0622 -0.7297 -0.7448
 8289TIP3   OH224830   5.854   6.002   1.806 -0.1802  0.4508 -0.4985
 8289TIP3    H124831   5.810   5.986   1.889 -1.0560 -0.0631 -1.0410
 8289TIP3    H224832   5.791   6.052   1.754 -0.8547 -1.7045 -1.8881
 8290TIP3   OH224833   1.541   0.669   3.815  0.1867  0.2435 -0.3566
 8290TIP3    H124834   1.504   0.712   3.892 -0.0725 -0.9647  0.2116
 8290TIP3    H224835   1.469   0.615   3.782  0.5974  0.0190 -0.8822
 8291TIP3   OH224836   6.512   5.947   2.701  0.3003  0.4511 -0.1264
 8291TIP3    H124837   6.574   6.011   2.736  0.5260  0.9823 -1.4389
 8291TIP3    H224838   6.510   5.964   2.607  1.5745 -2.4966 -0.8112
 8292TIP3   OH224839   6.011   3.386   0.435  0.0670  0.0190 -0.0285
 8292TIP3    H124840   6.013   3.393   0.340  1.8796 -1.5206 -0.1730
 8292TIP3    H224841   5.918   3.382   0.458 -0.4816  2.5229 -1.4949
 8293TIP3   OH224842   7.115   6.043   2.057 -0.6393  0.5150 -0.6311
 8293TIP3    H124843   7.164   6.116   2.096  0.6256  0.5602 -2.2079
 8293TIP3    H224844   7.165   6.020   1.979 -3.0461  0.4170 -2.2325
 8294TIP3   OH224845   3.662   4.966   5.392  0.6612  0.0017 -0.2939
 8294TIP3    H124846   3.597   4.926   5.334  0.5753 -0.7436  0.3038
 8294TIP3    H224847   3.718   5.018   5.334  2.3599 -2.9766 -1.5272
 8295TIP3   OH224848   1.406   5.201   4.889 -0.0251  0.0263  0.5294
 8295TIP3    H124849   1.415   5.244   4.974  1.4389 -0.3040  0.5577
 8295TIP3    H224850   1.495   5.175   4.865 -0.3520  0.4028 -1.2628
 8296TIP3   OH224851   3.659   4.390   3.999 -0.0215  0.1277 -0.7945
 8296TIP3    H124852   3.733   4.423   4.050  0.1926 -2.4893  0.7468
 8296TIP3    H224853   3.698   4.350   3.922 -0.0324  0.5552 -1.0280
 8297TIP3   OH224854   6.909   2.976   1.269  0.0536  0.1849 -0.5142
 8297TIP3    H124855   6.962   2.998   1.192 -1.6604 -0.9680 -2.1018
 8297TIP3    H224856   6.970   2.935   1.329  0.9698 -1.5235 -2.4642
 8298TIP3   OH224857   3.235   6.766   5.855 -0.4865 -0.0072  0.8290
 8298TIP3    H124858   3.276   6.709   5.790 -0.2795 -1.4932  2.1910
 8298TIP3    H224859   3.282   6.748   5.936  1.7487  4.4685  0.8146
 8299TIP3   OH224860   6.642   0.120   1.113 -0.2863 -0.2285 -0.1746
 8299TIP3    H124861   6.620   0.028   1.095 -1.4286  0.0343 -0.2420
 8299TIP3    H224862   6.731   0.118   1.147 -0.8809 -1.5383  1.4044
 8300TIP3   OH224863   4.241   6.568   3.950 -0.3721  0.0174  0.1034
 8300TIP3    H124864   4.215   6.500   4.012 -3.8128  0.0366 -1.0870
 8300TIP3    H224865   4.229   6.650   3.998  1.1367 -0.0605  0.6738
 8301TIP3   OH224866   6.847   1.833   4.680 -0.2849  0.2850 -0.5180
 8301TIP3    H124867   6.863   1.757   4.736 -1.8341 -0.4773 -1.0676
 8301TIP3    H224868   6.910   1.899   4.711 -1.6047  0.2154  2.6748
 8302TIP3   OH224869   1.011   4.356   4.050  0.3187  0.3757  0.4932
 8302TIP3    H124870   1.019   4.452   4.044 -0.2526  0.4432  0.7434
 8302TIP3    H224871   1.056   4.324   3.972 -0.3651  0.8988 -0.1349
 8303TIP3   OH224872   1.568   1.442   1.148  0.2201  0.0618  0.2763
 8303TIP3    H124873   1.540   1.354   1.120  0.3685  0.0946  0.0230
 8303TIP3    H224874   1.637   1.465   1.086 -0.1285  0.5472  0.0643
 8304TIP3   OH224875   7.094   1.895   0.474 -0.0562 -0.5088 -0.3527
 8304TIP3    H124876   7.185   1.893   0.503  0.1255 -0.6720 -0.9388
 8304TIP3    H224877   7.093   1.847   0.391 -0.6531 -0.4006 -0.4152
 8305TIP3   OH224878   2.558   4.011   1.963  0.6794  0.6189 -0.5592
 8305TIP3    H124879   2.469   3.984   1.940 -0.0926 -0.1656  2.8100
 8305TIP3    H224880   2.608   3.996   1.883 -1.3014 -3.3742 -1.3535
 8306TIP3   OH224881   5.744   5.797   3.733  0.7508  0.2468  0.9591
 8306TIP3    H124882   5.805   5.739   3.686 -1.8659 -1.0076 -1.1870
 8306TIP3    H224883   5.715   5.746   3.808 -0.0694 -0.4775  0.1649
 8307TIP3   OH224884   4.338   4.113   3.435  0.3840  0.0886  0.1558
 8307TIP3    H124885   4.265   4.055   3.414 -0.4284  0.4288  1.9126
 8307TIP3    H224886   4.305   4.169   3.504  2.4666 -0.0892  1.3654
 8308TIP3   OH224887   5.969   3.382   3.211 -0.4484  0.3962  0.2619
 8308TIP3    H124888   5.918   3.448   3.163  1.0620  0.5322 -1.2204
 8308TIP3    H224889   6.037   3.355   3.150  0.9036 -0.2237  1.9800
 8309TIP3   OH224890   5.313   4.296   2.426  0.4672  0.4725 -0.1742
 8309TIP3    H124891   5.282   4.222   2.374  0.6646 -0.0908  0.4915
 8309TIP3    H224892   5.405   4.306   2.399  0.6067  0.0990  0.1419
 8310TIP3   OH224893   5.627   3.819   1.336 -0.3271 -0.2459  0.2252
 8310TIP3    H124894   5.655   3.906   1.308 -0.2604 -0.4725 -0.4233
 8310TIP3    H224895   5.708   3.776   1.363 -0.3761 -0.0660  0.6683
 8311TIP3   OH224896   1.138   3.940   4.615 -0.2869  1.1189  0.3572
 8311TIP3    H124897   1.201   3.918   4.546 -0.4816 -1.5363  0.9070
 8311TIP3    H224898   1.081   3.863   4.620  0.2581  0.7783  4.0674
 8312TIP3   OH224899   5.215   1.612   5.560 -0.0269 -0.6875  0.6407
 8312TIP3    H124900   5.272   1.608   5.637  0.7254 -0.0105  0.1330
 8312TIP3    H224901   5.158   1.535   5.568 -0.2497 -0.3924  2.0908
 8313TIP3   OH224902   6.785   0.501   4.127 -0.2227 -0.0614 -0.3703
 8313TIP3    H124903   6.748   0.522   4.212 -0.9539 -0.9717 -0.4493
 8313TIP3    H224904   6.880   0.513   4.139 -0.3464  0.1545  0.4665
 8314TIP3   OH224905   1.121   4.848   4.128 -0.1897  0.2384  0.0730
 8314TIP3    H124906   1.193   4.898   4.088 -0.0622 -1.2330 -1.6635
 8314TIP3    H224907   1.128   4.761   4.089  0.2156 -1.5385  3.6918
 8315TIP3   OH224908   5.770   2.350   1.271  0.1300  0.5231 -0.5491
 8315TIP3    H124909   5.840   2.293   1.238 -0.0611  0.1377 -0.2845
 8315TIP3    H224910   5.815   2.415   1.324  0.3403  0.5818 -0.7953
 8316TIP3   OH224911   2.251   0.614   5.840  0.3952 -0.0185  0.2680
 8316TIP3    H124912   2.268   0.594   5.932  0.4142 -0.6857  0.1285
 8316TIP3    H224913   2.286   0.538   5.792 -1.7552 -0.8541 -0.1169
 8317TIP3   OH224914   4.238   4.005   5.289 -0.1042 -0.1390  0.3974
 8317TIP3    H124915   4.252   3.912   5.306 -0.8113 -0.4055 -0.3781
 8317TIP3    H224916   4.158   4.008   5.236 -1.2743  1.0457  2.1006
 8318TIP3   OH224917   5.452   0.107   1.230 -0.1173  0.1160  0.1957
 8318TIP3    H124918   5.406   0.122   1.312 -1.1295  1.0859 -0.5238
 8318TIP3    H224919   5.535   0.154   1.240  0.2556 -0.6939  1.0636
 8319TIP3   OH224920   3.667   3.601   2.535 -0.0983 -0.1135 -0.1334
 8319TIP3    H124921   3.625   3.684   2.512 -0.2125  0.5490  2.1618
 8319TIP3    H224922   3.595   3.542   2.557  0.0317  0.4725  2.0877
 8320TIP3   OH224923   4.910   0.157   1.131  0.2303  0.5566  0.0077
 8320TIP3    H124924   4.980   0.138   1.068  2.1777  1.8125  1.6734
 8320TIP3    H224925   4.866   0.234   1.096 -0.6049 -0.4382 -1.2240
 8321TIP3   OH224926   6.616   6.052   0.881 -0.2384  0.3475  0.5666
 8321TIP3    H124927   6.609   6.063   0.975  2.2153  1.4166  0.6853
 8321TIP3    H224928   6.678   5.979   0.870  0.7851  1.2903 -0.1652
 8322TIP3   OH224929   6.504   5.351   2.530 -0.2862  0.1597 -0.7740
 8322TIP3    H124930   6.537   5.440   2.540  0.5641 -0.1680 -0.6198
 8322TIP3    H224931   6.505   5.314   2.619 -0.5163 -0.0457 -0.8540
 8323TIP3   OH224932   1.953   0.366   4.990  0.2561 -0.3483 -0.3914
 8323TIP3    H124933   1.971   0.421   4.914 -0.3235  0.2326 -0.1186
 8323TIP3    H224934   1.935   0.280   4.953  0.3847 -0.1715 -0.8815
 8324TIP3   OH224935   2.408   6.045   0.244 -0.0930 -0.0479  0.4157
 8324TIP3    H124936   2.359   6.092   0.311  1.4885  1.4950  0.5460
 8324TIP3    H224937   2.498   6.042   0.277  0.5848  0.1516 -1.3085
 8325TIP3   OH224938   2.498   1.647   2.967 -0.2433 -0.4444 -0.2379
 8325TIP3    H124939   2.447   1.725   2.989 -1.7325 -1.5644  0.5305
 8325TIP3    H224940   2.589   1.676   2.965 -0.6709  1.1001  1.0210
 8326TIP3   OH224941   4.549   1.244   4.880  0.0995  0.5069 -0.6684
 8326TIP3    H124942   4.588   1.159   4.859 -0.6050 -0.2945  1.1289
 8326TIP3    H224943   4.618   1.293   4.925 -0.0345  0.2164 -0.1439
 8327TIP3   OH224944   3.464   3.349  -0.019 -0.4699 -0.0287 -0.2226
 8327TIP3    H124945   3.523   3.419  -0.050  0.5668 -1.1150 -0.7861
 8327TIP3    H224946   3.489   3.337   0.072  1.4776 -1.6579 -0.8881
 8328TIP3   OH224947   2.213   0.071   3.697  0.0324  0.2663  0.1958
 8328TIP3    H124948   2.216   0.096   3.789 -0.5766  0.0897  0.2620
 8328TIP3    H224949   2.256  -0.015   3.695 -0.9786 -0.2556  0.4933
 8329TIP3   OH224950   3.319   1.991   0.037 -0.2510 -0.1836 -0.0695
 8329TIP3    H124951   3.408   1.956   0.044 -0.1888 -0.0757 -0.2949
 8329TIP3    H224952   3.303   2.036   0.119 -0.0803 -0.1650 -0.0474
 8330TIP3   OH224953   1.910   5.624   0.293 -0.2981  0.4205  0.4330
 8330TIP3    H124954   2.005   5.634   0.296 -0.0721 -1.2309 -0.3061
 8330TIP3    H224955   1.881   5.632   0.384  0.9290 -2.0921  1.1343
 8331TIP3   OH224956   0.798   6.293   4.277 -0.5522  0.4363 -0.0085
 8331TIP3    H124957   0.887   6.280   4.244 -0.7420  2.0466 -1.3170
 8331TIP3    H224958   0.807   6.293   4.372  0.4621 -1.6647 -0.0474
 8332TIP3   OH224959   3.478   6.372   2.403 -0.4026 -0.1510  0.1095
 8332TIP3    H124960   3.550   6.384   2.342 -0.2562  1.1042  0.4877
 8332TIP3    H224961   3.460   6.278   2.402 -0.5768 -0.1439 -2.0331
 8333TIP3   OH224962   2.466   0.298   2.909 -0.8867 -0.0860  0.5781
 8333TIP3    H124963   2.422   0.219   2.877 -0.2848 -0.6869  1.1944
 8333TIP3    H224964   2.535   0.265   2.967 -0.9542  0.9171  1.2535
 8334TIP3   OH224965   6.769   5.697   2.149  0.4136 -0.0950 -0.7679
 8334TIP3    H124966   6.713   5.773   2.131 -0.1669 -0.0482  1.0197
 8334TIP3    H224967   6.856   5.734   2.158  0.0364  0.5113  0.7525
 8335TIP3   OH224968   0.184   0.049   1.675 -0.0681  0.2679  0.0128
 8335TIP3    H124969   0.202   0.143   1.666  2.2250  0.2536  2.8512
 8335TIP3    H224970   0.106   0.045   1.731 -1.0139  0.4032 -1.2427
 8336TIP3   OH224971   1.237   3.404   4.233  0.2945  0.0941  0.6433
 8336TIP3    H124972   1.195   3.332   4.282 -0.6434 -0.6273 -1.1431
 8336TIP3    H224973   1.230   3.479   4.292 -1.2410 -0.6222  1.4460
 8337TIP3   OH224974   1.579   4.179   3.474 -0.3343 -0.1313  0.1140
 8337TIP3    H124975   1.566   4.267   3.509  1.0707  0.2753 -0.3359
 8337TIP3    H224976   1.544   4.120   3.541 -0.1225  0.7274  0.9895
 8338TIP3   OH224977   1.039   3.963   3.548 -0.1181  0.0435  0.0590
 8338TIP3    H124978   1.006   4.017   3.476 -1.5785  0.1830  0.7957
 8338TIP3    H224979   0.991   3.995   3.625  1.8747  0.3426  1.2345
 8339TIP3   OH224980   4.675   5.799   2.824 -0.3356 -0.3016 -0.1507
 8339TIP3    H124981   4.618   5.754   2.887 -0.6690  0.3234  0.0032
 8339TIP3    H224982   4.623   5.873   2.794  1.3596  2.0272  2.1742
 8340TIP3   OH224983   0.048   1.931   0.171 -0.0560 -0.0277 -0.2968
 8340TIP3    H124984   0.072   1.963   0.258 -1.1004  1.8047 -0.6420
 8340TIP3    H224985   0.067   1.837   0.174  0.3112  0.0753  1.7672
 8341TIP3   OH224986   4.286   6.657   0.329 -0.0153 -0.1484 -0.4024
 8341TIP3    H124987   4.213   6.594   0.327 -0.2245  0.1032 -0.6622
 8341TIP3    H224988   4.351   6.616   0.387  0.2041 -0.9803 -1.2221
 8342TIP3   OH224989   2.483   6.269   3.453 -0.1397 -0.1114 -0.0972
 8342TIP3    H124990   2.492   6.295   3.362 -2.1745 -2.6726 -1.1698
 8342TIP3    H224991   2.449   6.347   3.497  0.4391  1.0323 -1.5749
 8343TIP3   OH224992   3.135   5.709   1.002  0.0896  0.4834 -0.0164
 8343TIP3    H124993   3.113   5.795   0.967  0.1087  0.4878 -0.0181
 8343TIP3    H224994   3.057   5.656   0.987  0.6855  0.0014 -1.6331
 8344TIP3   OH224995   5.111   3.771   3.218  0.1112  0.4549  0.0342
 8344TIP3    H124996   5.159   3.838   3.267  0.1342  0.8229 -0.4880
 8344TIP3    H224997   5.106   3.805   3.129  0.8949 -0.6349 -0.4600
 8345TIP3   OH224998   6.876   1.954   4.383 -0.2878  0.3342  0.6360
 8345TIP3    H124999   6.875   1.991   4.295 -1.3862  1.0403  0.9194
 8345TIP3    H225000   6.948   1.998   4.427 -0.0922  0.3951  0.2612
 8346TIP3   OH225001   2.994   3.217   4.031 -0.2870  0.4817  0.5832
 8346TIP3    H125002   2.919   3.158   4.023 -0.6694  1.0198  0.0556
 8346TIP3    H225003   2.960   3.291   4.082 -0.0783  0.6743  0.4415
 8347TIP3   OH225004   0.206   1.820   4.359 -0.1837 -0.4300 -0.2499
 8347TIP3    H125005   0.176   1.866   4.281  1.4401 -1.7618 -1.7471
 8347TIP3    H225006   0.296   1.849   4.371 -0.7764  0.7595  2.0013
 8348TIP3   OH225007   1.837   6.770   3.008 -0.3082 -0.5335  0.1592
 8348TIP3    H125008   1.793   6.841   2.962  0.1624 -1.6369 -2.1021
 8348TIP3    H225009   1.902   6.737   2.946  0.6725 -1.8483  1.7768
 8349TIP3   OH225010   4.844   4.985   2.039  0.3359  0.1992 -0.0541
 8349TIP3    H125011   4.936   4.983   2.065  0.5103 -1.1346 -0.7035
 8349TIP3    H225012   4.807   5.057   2.090  1.9949  1.5631 -0.6650
 8350TIP3   OH225013   2.194   1.293   3.507  0.1083 -0.4007  0.6223
 8350TIP3    H125014   2.204   1.278   3.413  1.4962  1.5437  0.3931
 8350TIP3    H225015   2.282   1.280   3.543 -0.0458  0.5055  1.3689
 8351TIP3   OH225016   2.959   4.745   3.107 -0.2481  0.3649  0.4871
 8351TIP3    H125017   3.017   4.673   3.129 -0.8739 -0.2184  0.2768
 8351TIP3    H225018   2.998   4.785   3.029 -1.5759 -1.7994 -1.4169
 8352TIP3   OH225019   6.630   1.161   1.189  0.0629  0.6728 -0.1457
 8352TIP3    H125020   6.604   1.203   1.108 -0.6999  1.7371  0.6264
 8352TIP3    H225021   6.577   1.081   1.192  0.9932 -0.0122 -1.2678
 8353TIP3   OH225022   6.267   2.135  -0.005  0.3075 -0.4233  0.3683
 8353TIP3    H125023   6.308   2.215   0.026  0.8148  0.1544 -1.6418
 8353TIP3    H225024   6.173   2.149   0.007  0.4257  0.2658  0.4926
 8354TIP3   OH225025   6.927   4.613   1.502 -0.0770  0.3554 -0.1459
 8354TIP3    H125026   6.881   4.646   1.579  1.2198 -1.2551  1.4180
 8354TIP3    H225027   7.017   4.642   1.513  0.5674 -1.5343  0.0597
 8355TIP3   OH225028   4.675   6.021   4.030  0.2989  0.0205 -0.6430
 8355TIP3    H125029   4.628   6.009   4.112  0.9385  1.6012  0.0100
 8355TIP3    H225030   4.767   6.029   4.056  0.3719  2.0243 -1.3013
 8356TIP3   OH225031   0.853   6.259   5.667  0.3460  0.1513 -0.7024
 8356TIP3    H125032   0.928   6.229   5.615  2.0509  0.0403  1.6677
 8356TIP3    H225033   0.863   6.354   5.672 -0.8983  0.3897 -2.0828
 8357TIP3   OH225034   5.337   1.480   2.096  0.2090  0.4152 -0.2109
 8357TIP3    H125035   5.326   1.472   2.001 -1.7189  2.1521 -0.2051
 8357TIP3    H225036   5.250   1.504   2.129  0.8897  0.1528  1.9658
 8358TIP3   OH225037   1.076   0.665   0.326  0.2521  0.2085 -0.3783
 8358TIP3    H125038   1.108   0.752   0.304 -0.3644  0.4638 -0.2786
 8358TIP3    H225039   1.068   0.666   0.422 -0.3633  0.2591 -0.4277
 8359TIP3   OH225040   5.090   6.115   0.717 -0.5396  0.3110 -0.1183
 8359TIP3    H125041   5.000   6.083   0.721  0.0832 -1.6663 -0.6078
 8359TIP3    H225042   5.099   6.154   0.630 -1.0511  1.0012  0.1304
 8360TIP3   OH225043   2.068   1.576   3.564  0.7406  0.6074 -0.0476
 8360TIP3    H125044   2.153   1.586   3.607  0.5355 -1.0868  0.8554
 8360TIP3    H225045   2.082   1.504   3.501  0.0822  0.5924 -0.1857
 8361TIP3   OH225046   0.524   6.676   0.925 -0.6717  0.0837 -0.0213
 8361TIP3    H125047   0.437   6.716   0.938 -0.7454 -0.2105  0.3981
 8361TIP3    H225048   0.546   6.639   1.011 -1.2221 -2.0131 -0.7396
 8362TIP3   OH225049   5.011   4.523   2.873  0.3027 -0.1804 -0.7404
 8362TIP3    H125050   5.028   4.527   2.779 -3.9174  2.4961 -1.6944
 8362TIP3    H225051   5.028   4.612   2.904  0.6103 -0.7499  0.8002
 8363TIP3   OH225052   0.767   4.675   4.932  0.0250  0.1991  0.1157
 8363TIP3    H125053   0.676   4.695   4.906  0.6805 -1.1127 -3.9393
 8363TIP3    H225054   0.811   4.760   4.929 -0.6946  0.6011  0.4424
 8364TIP3   OH225055   5.469   0.851   1.497  0.7144 -0.4997  0.3740
 8364TIP3    H125056   5.383   0.870   1.458  1.8801  1.2473 -1.5679
 8364TIP3    H225057   5.520   0.814   1.426  1.6946 -1.2604  1.4364
 8365TIP3   OH225058   2.687   2.961   0.772 -0.2652  0.1018 -0.4220
 8365TIP3    H125059   2.645   2.923   0.849 -0.5387 -0.3329 -0.7770
 8365TIP3    H225060   2.719   3.046   0.801 -0.8550  0.1805  0.0240
 8366TIP3   OH225061   4.781   0.928   2.879  0.4923  0.2310  0.0504
 8366TIP3    H125062   4.832   1.005   2.903 -0.1416  0.3689  1.0001
 8366TIP3    H225063   4.846   0.860   2.862  1.1850  1.4711 -2.8090
 8367TIP3   OH225064   2.130   0.326   1.153  0.2619 -0.6397  0.4796
 8367TIP3    H125065   2.214   0.371   1.145  0.5592 -1.3796 -0.9232
 8367TIP3    H225066   2.087   0.368   1.227  0.9536  1.2478 -0.1287
 8368TIP3   OH225067   4.723   6.521   2.964  0.0914 -0.1632 -0.5810
 8368TIP3    H125068   4.781   6.463   2.915 -0.7348 -2.8858  1.4398
 8368TIP3    H225069   4.769   6.537   3.047 -0.9349 -0.3377  0.0437
 8369TIP3   OH225070   4.916   0.746   5.165  0.2333 -0.3270 -0.0239
 8369TIP3    H125071   4.877   0.807   5.102  0.4178  0.3438  0.5032
 8369TIP3    H225072   4.923   0.796   5.246  1.4213 -0.7005  0.1210
 8370TIP3   OH225073   6.689   4.078   0.171 -0.0882 -0.3255 -0.0255
 8370TIP3    H125074   6.701   4.173   0.170  0.3805 -0.3852 -0.6095
 8370TIP3    H225075   6.769   4.044   0.209  0.4219 -0.5679 -1.2836
 8371TIP3   OH225076   6.857   4.959   1.891 -0.0921 -0.0168 -0.3067
 8371TIP3    H125077   6.891   4.870   1.887  0.9102  0.3668 -0.9325
 8371TIP3    H225078   6.928   5.013   1.855 -0.4531  1.0920  0.5747
 8372TIP3   OH225079   1.775   0.607   2.215 -0.0744 -0.1727 -0.3957
 8372TIP3    H125080   1.780   0.656   2.297  0.1863  0.0097 -0.5225
 8372TIP3    H225081   1.701   0.646   2.168  0.6269  0.6195 -0.8423
 8373TIP3   OH225082   2.763   4.775   4.100  0.3757 -0.0042  0.1692
 8373TIP3    H125083   2.710   4.711   4.149 -1.1809 -0.7109 -2.2804
 8373TIP3    H225084   2.789   4.839   4.166 -2.0009 -0.6369  1.8835
 8374TIP3   OH225085   2.176   5.871   5.753 -0.0379 -0.1439  0.4485
 8374TIP3    H125086   2.130   5.806   5.807 -1.3203 -0.3150 -0.7741
 8374TIP3    H225087   2.117   5.946   5.751  0.9992  0.7161  1.0564
 8375TIP3   OH225088   7.056   4.553   0.372 -0.6333 -0.0699  0.0050
 8375TIP3    H125089   7.075   4.625   0.433 -0.6647 -0.8535  0.9581
 8375TIP3    H225090   6.987   4.587   0.315 -1.0852  0.4435  0.8449
 8376TIP3   OH225091   6.345   6.424   3.753  0.0128 -0.0173  0.3703
 8376TIP3    H125092   6.394   6.470   3.822 -0.4849  0.8839  0.1315
 8376TIP3    H225093   6.264   6.473   3.744 -1.3398 -1.9597  1.3216
 8377TIP3   OH225094   2.601   6.480   2.449 -0.3543  0.2150 -0.0164
 8377TIP3    H125095   2.537   6.429   2.498 -0.2089  0.3051  0.2699
 8377TIP3    H225096   2.567   6.569   2.450 -1.4808 -0.1273 -1.9473
 8378TIP3   OH225097   6.128   2.878   3.403 -0.2258 -0.3417  0.4965
 8378TIP3    H125098   6.113   2.969   3.378  2.0389 -0.0857 -0.1417
 8378TIP3    H225099   6.091   2.827   3.330 -1.1805  0.0497  0.6906
 8379TIP3   OH225100   1.674   2.637   5.808 -0.1946  0.0827  0.2942
 8379TIP3    H125101   1.691   2.708   5.870 -1.0987 -0.7271  1.5150
 8379TIP3    H225102   1.585   2.653   5.776  0.5395  0.9300 -1.4415
 8380TIP3   OH225103   1.407   1.626   5.503 -0.3709  0.5989  0.1703
 8380TIP3    H125104   1.351   1.703   5.511 -2.4327 -0.6594 -1.1347
 8380TIP3    H225105   1.367   1.562   5.562  0.4388  0.0569  0.1356
 8381TIP3   OH225106   6.072   3.677   1.992  0.1728  0.5147  0.0338
 8381TIP3    H125107   6.108   3.717   2.071 -0.7400 -0.1436  0.7901
 8381TIP3    H225108   6.149   3.658   1.938  0.8839  0.1046  1.1681
 8382TIP3   OH225109   4.993   6.537   1.798  0.2379  0.3237 -0.2936
 8382TIP3    H125110   4.935   6.546   1.722 -2.0399  2.0212  1.4831
 8382TIP3    H225111   5.057   6.608   1.788 -1.4664  2.0543  0.4254
 8383TIP3   OH225112   4.786   6.351   4.296 -0.3351  0.0983 -0.0273
 8383TIP3    H125113   4.765   6.338   4.389  0.5061 -1.1592  0.0072
 8383TIP3    H225114   4.795   6.263   4.261  4.1445  0.3890 -0.1426
 8384TIP3   OH225115   4.788   2.597   5.454  0.2913 -0.0557 -0.2726
 8384TIP3    H125116   4.881   2.590   5.476  0.2805 -1.4946 -0.5774
 8384TIP3    H225117   4.743   2.548   5.523 -0.4084  1.8638  0.7185
 8385TIP3   OH225118   3.485   5.303   4.966  0.0132  0.2896  0.0488
 8385TIP3    H125119   3.579   5.288   4.954  0.4459  2.4089  0.4330
 8385TIP3    H225120   3.469   5.281   5.058  0.1903  0.2331  0.0663
 8386TIP3   OH225121   0.558   6.196   3.388 -0.3555  0.7498 -0.2780
 8386TIP3    H125122   0.508   6.259   3.336  1.6161  1.7878 -1.0247
 8386TIP3    H225123   0.597   6.138   3.322 -0.6977 -0.1313  0.2922
 8387TIP3   OH225124   2.283   5.994   3.191 -0.0056  0.0757 -0.3160
 8387TIP3    H125125   2.266   5.911   3.146  3.3001 -2.1356  1.9963
 8387TIP3    H225126   2.271   5.974   3.284  1.3513  2.0332  0.3527
 8388TIP3   OH225127   3.175   5.936   3.673  0.5101 -0.0993  0.0510
 8388TIP3    H125128   3.106   5.874   3.651  1.7615 -1.7165  0.5053
 8388TIP3    H225129   3.194   5.982   3.591 -0.2514 -0.5084 -0.3543
 8389TIP3   OH225130   5.582   2.138   1.494 -0.3833 -0.3427 -0.3563
 8389TIP3    H125131   5.541   2.162   1.577  1.1858 -0.4199  0.4862
 8389TIP3    H225132   5.513   2.094   1.445 -2.0076  1.6949 -0.0553
 8390TIP3   OH225133   4.883   4.774   1.509 -0.6185  0.2884 -0.2162
 8390TIP3    H125134   4.799   4.815   1.486 -0.5812 -0.3177 -1.5221
 8390TIP3    H225135   4.925   4.837   1.568 -1.7094  0.8880 -0.0444
 8391TIP3   OH225136   4.370   6.170   5.272 -0.2154  0.1771 -0.2518
 8391TIP3    H125137   4.464   6.156   5.261 -0.1870  0.3755 -0.2619
 8391TIP3    H225138   4.357   6.175   5.366 -0.4499 -1.4513 -0.1643
 8392TIP3   OH225139   2.781   3.834   2.067  0.8356 -0.3500 -0.0854
 8392TIP3    H125140   2.818   3.869   1.986  1.2383  0.2900  0.3658
 8392TIP3    H225141   2.688   3.858   2.064  1.5223  3.0421  1.3312
 8393TIP3   OH225142   5.663   1.851   1.917 -0.4288  0.4474 -0.9522
 8393TIP3    H125143   5.567   1.851   1.916 -0.4491  1.4327 -0.4530
 8393TIP3    H225144   5.686   1.921   1.978  0.6196 -1.0990  0.5101
 8394TIP3   OH225145   2.545   0.025   2.997 -0.7555 -0.6390 -1.0883
 8394TIP3    H125146   2.539   0.067   3.083  0.6969  3.3757 -2.7397
 8394TIP3    H225147   2.454   0.002   2.976 -1.1407 -1.8667  1.4412
 8395TIP3   OH225148   2.783   2.227   3.864  0.0078 -0.2938 -0.3622
 8395TIP3    H125149   2.745   2.275   3.791 -0.9768 -1.3579 -0.5737
 8395TIP3    H225150   2.815   2.295   3.923 -0.9271  0.6175 -0.8702
 8396TIP3   OH225151   0.553   1.914   1.227  0.1234 -0.1960  0.4865
 8396TIP3    H125152   0.507   1.959   1.156 -1.4799 -0.9339  1.0021
 8396TIP3    H225153   0.484   1.866   1.273  1.5278 -1.9288  0.8875
 8397TIP3   OH225154   2.473   1.315   5.261  0.0369 -0.1358  0.0449
 8397TIP3    H125155   2.383   1.334   5.288 -0.0203 -0.4154  0.0458
 8397TIP3    H225156   2.480   1.352   5.173  1.0109  3.2185  1.3806
 8398TIP3   OH225157   0.420   0.009   1.896  0.4746 -0.1213  0.0756
 8398TIP3    H125158   0.361  -0.025   1.964  2.0242  0.3121  1.7138
 8398TIP3    H225159   0.390   0.099   1.882  1.4080  0.4928  1.7608
 8399TIP3   OH225160   1.656   4.728   3.432 -0.0823  0.0413  0.0855
 8399TIP3    H125161   1.752   4.725   3.432 -0.0591 -2.5755 -1.6973
 8399TIP3    H225162   1.634   4.811   3.390  1.3819  0.5005  0.1710
 8400TIP3   OH225163   2.487   6.526   3.356  0.1274 -0.0904  0.1549
 8400TIP3    H125164   2.505   6.605   3.305 -0.5011 -0.4256 -0.6198
 8400TIP3    H225165   2.528   6.542   3.441  2.4769 -0.1141 -0.9060
 8401TIP3   OH225166   4.479   4.149   0.708  0.2765 -0.3673 -0.2040
 8401TIP3    H125167   4.407   4.161   0.646 -0.5737  0.3733  0.8765
 8401TIP3    H225168   4.528   4.231   0.705  2.8062 -1.8000 -2.9421
 8402TIP3   OH225169   2.731   3.887   1.526 -0.0372 -0.1255  0.7010
 8402TIP3    H125170   2.811   3.844   1.495 -0.5781 -1.2003  0.7643
 8402TIP3    H225171   2.685   3.912   1.446 -1.0280 -2.1491  0.5687
 8403TIP3   OH225172   1.744   4.895   3.924 -0.5233 -0.4127  0.7438
 8403TIP3    H125173   1.688   4.960   3.881  1.2844  0.6480 -0.1162
 8403TIP3    H225174   1.709   4.810   3.896 -0.9375  0.2255 -0.7588
 8404TIP3   OH225175   2.870   6.065   0.693  0.0088  0.1220 -0.1089
 8404TIP3    H125176   2.845   5.989   0.640 -2.0174  0.3700  0.4181
 8404TIP3    H225177   2.840   6.043   0.782  0.5959  0.9998  0.3214
 8405TIP3   OH225178   1.087   3.390   2.684  0.8212 -0.1171 -0.3795
 8405TIP3    H125179   1.138   3.465   2.652  2.5185 -0.3022  1.6268
 8405TIP3    H225180   1.041   3.358   2.607  3.3692  0.4105 -2.2673
 8406TIP3   OH225181   3.484   2.123   3.699 -0.1480 -0.2899  0.5350
 8406TIP3    H125182   3.437   2.205   3.679 -0.0441  0.1056  1.8228
 8406TIP3    H225183   3.423   2.054   3.676 -1.1232  0.2080  1.5328
 8407TIP3   OH225184   6.943   5.592   2.536  0.3296  0.4937 -0.5638
 8407TIP3    H125185   7.031   5.596   2.499  1.9332 -0.6305  2.7244
 8407TIP3    H225186   6.911   5.505   2.510  1.2282 -0.0959  0.2381
 8408TIP3   OH225187   6.439   1.287   5.810 -0.5878 -0.5160  0.7512
 8408TIP3    H125188   6.519   1.242   5.840 -0.1680 -0.0672  0.3328
 8408TIP3    H225189   6.460   1.380   5.817 -0.7854 -0.3998 -0.1203
 8409TIP3   OH225190   2.324   2.018   4.085 -0.4644 -0.2894  0.5185
 8409TIP3    H125191   2.406   1.975   4.059 -0.3036  0.9176 -1.0739
 8409TIP3    H225192   2.256   1.975   4.033 -1.3178 -2.9051  3.4677
 8410TIP3   OH225193   3.416   1.766   5.368 -0.4922 -0.0087 -0.0138
 8410TIP3    H125194   3.439   1.799   5.455 -0.3009 -0.5406  0.1428
 8410TIP3    H225195   3.349   1.826   5.337  0.7911  1.3263 -0.3045
 8411TIP3   OH225196   2.823   6.525   1.948  0.1001  0.0894 -0.0311
 8411TIP3    H125197   2.896   6.582   1.971  0.5963 -0.3952 -0.3589
 8411TIP3    H225198   2.785   6.500   2.031 -0.6915  1.6095  0.0829
 8412TIP3   OH225199   0.046   0.980   1.964 -0.1092  0.0991 -0.5067
 8412TIP3    H125200   0.031   0.997   1.871  0.3987 -2.0540 -1.0344
 8412TIP3    H225201  -0.027   0.925   1.991  0.8380 -1.0329 -0.1872
 8413TIP3   OH225202   5.600   2.692   4.563 -0.5288 -0.3445 -0.5433
 8413TIP3    H125203   5.623   2.759   4.627  1.1495  0.1922 -1.6244
 8413TIP3    H225204   5.510   2.668   4.584 -0.8018  1.4559  0.5761
 8414TIP3   OH225205   5.389   5.662   2.117 -0.4985  0.0063  0.0831
 8414TIP3    H125206   5.460   5.659   2.181 -1.6354 -0.1680  1.3729
 8414TIP3    H225207   5.363   5.754   2.115  0.2048  0.2003 -0.9206
 8415TIP3   OH225208   1.325   1.503   2.888 -1.2413  0.5935  0.3509
 8415TIP3    H125209   1.260   1.433   2.889 -0.5838 -0.0167  0.7587
 8415TIP3    H225210   1.352   1.512   2.979  0.7735 -0.6274 -0.0646
 8416TIP3   OH225211   2.362   4.505   3.986  1.1794  0.4040 -0.0930
 8416TIP3    H125212   2.273   4.482   4.011  1.0786  1.5484  0.6954
 8416TIP3    H225213   2.354   4.536   3.896  0.2963  2.8115  0.7192
 8417TIP3   OH225214   6.649   0.173   2.054  0.7531 -0.7036  0.3570
 8417TIP3    H125215   6.725   0.136   2.098  1.4163  1.1821  0.9144
 8417TIP3    H225216   6.620   0.244   2.113  0.2085  0.3385 -1.1024
 8418TIP3   OH225217   1.005   6.503   3.989 -0.2191 -0.1299 -0.1860
 8418TIP3    H125218   0.967   6.448   4.058 -0.3923 -0.3651 -0.4630
 8418TIP3    H225219   1.027   6.441   3.919  1.2390 -0.0833  0.2046
 8419TIP3   OH225220   5.466   4.847   4.577  0.3338  0.1291 -0.3048
 8419TIP3    H125221   5.448   4.804   4.661 -2.1843  1.1458 -0.2344
 8419TIP3    H225222   5.426   4.789   4.513  0.8490  0.1641 -0.6622
 8420TIP3   OH225223   2.398   0.034   0.018 -0.0803  0.1503  0.2776
 8420TIP3    H125224   2.408   0.062   0.109  0.0560  1.0647 -0.0057
 8420TIP3    H225225   2.376   0.115  -0.029  0.3636 -0.2168 -0.5741
 8421TIP3   OH225226   6.574   2.540   2.891 -0.2608 -0.6936  0.0402
 8421TIP3    H125227   6.595   2.512   2.801  0.4945  0.0482 -0.0216
 8421TIP3    H225228   6.485   2.508   2.905 -0.7746  0.0265 -1.3465
 8422TIP3   OH225229   5.682   3.991   3.984  0.5800  0.0650  0.2222
 8422TIP3    H125230   5.653   4.081   3.971 -0.2106 -0.0708  0.9910
 8422TIP3    H225231   5.628   3.958   4.056 -1.0695 -1.8968 -1.7558
 8423TIP3   OH225232   0.712   0.378   3.189 -0.4455  0.0034  0.4942
 8423TIP3    H125233   0.673   0.311   3.132 -1.6045  0.4273  0.7692
 8423TIP3    H225234   0.646   0.446   3.196 -0.4328 -0.1325  2.5353
 8424TIP3   OH225235   0.518   3.007   0.731 -0.2401  0.2808 -0.0891
 8424TIP3    H125236   0.505   3.050   0.646  1.2746 -0.1616 -0.5860
 8424TIP3    H225237   0.606   3.036   0.758 -0.3803 -0.2349  0.9330
 8425TIP3   OH225238   4.821   1.325   2.760  0.1165  1.0032  0.0453
 8425TIP3    H125239   4.885   1.254   2.763  0.1460  0.7202 -3.6295
 8425TIP3    H225240   4.855   1.386   2.695 -1.7888  2.4610  0.3156
 8426TIP3   OH225241   5.434   6.711   5.584 -0.1968  0.2344  0.2267
 8426TIP3    H125242   5.349   6.714   5.628  0.2333  0.3471  1.0674
 8426TIP3    H225243   5.463   6.621   5.594 -0.4108  0.0808 -0.4603
 8427TIP3   OH225244   2.954   3.119   3.761  0.1824 -0.7254  0.2931
 8427TIP3    H125245   2.872   3.168   3.758 -0.6920 -2.1161  0.6035
 8427TIP3    H225246   3.004   3.161   3.831 -0.4329 -0.1086  0.3702
 8428TIP3   OH225247   3.044   5.418   4.714 -0.5287  0.2760  0.1006
 8428TIP3    H125248   3.106   5.378   4.775  0.2549  0.8847 -0.2780
 8428TIP3    H225249   3.041   5.510   4.739  0.7646  0.8158 -1.5031
 8429TIP3   OH225250   2.023   3.088   4.454 -0.1445 -0.0027 -0.7579
 8429TIP3    H125251   2.067   3.120   4.375  0.7392 -2.0235 -1.1376
 8429TIP3    H225252   2.041   3.155   4.520  0.7235  0.7900 -1.7566
 8430TIP3   OH225253   2.704   3.005   0.259  0.5366 -0.0401 -0.6182
 8430TIP3    H125254   2.778   3.052   0.297 -0.0607  0.0490  0.4596
 8430TIP3    H225255   2.658   2.968   0.334 -0.1427 -0.6480 -1.3234
 8431TIP3   OH225256   0.929   2.374   4.392 -0.4247 -0.8150 -0.1657
 8431TIP3    H125257   0.935   2.286   4.429  0.1074 -0.7945 -0.1957
 8431TIP3    H225258   0.897   2.428   4.465 -2.8746 -1.3966 -0.7383
 8432TIP3   OH225259   5.534   5.089   2.019 -0.0686  0.0602 -0.6190
 8432TIP3    H125260   5.572   5.022   1.961  1.8094  0.5958 -0.0871
 8432TIP3    H225261   5.566   5.066   2.106  0.2520  1.3675 -0.3638
 8433TIP3   OH225262   5.747   1.066   0.553 -0.1006  0.4123  0.0507
 8433TIP3    H125263   5.667   1.093   0.598  0.0052 -1.5833  1.6059
 8433TIP3    H225264   5.812   1.057   0.623  1.0047  0.3915 -0.9581
 8434TIP3   OH225265   2.286   1.705   5.395  1.0598 -0.0732  0.0453
 8434TIP3    H125266   2.345   1.735   5.465  1.4020 -1.3522  0.3192
 8434TIP3    H225267   2.317   1.751   5.317  0.6153  1.4508  0.7167
 8435TIP3   OH225268   2.489   3.238   4.403 -0.4290  0.0810  0.3721
 8435TIP3    H125269   2.460   3.147   4.401  0.1481 -0.1281 -2.1862
 8435TIP3    H225270   2.580   3.234   4.430 -0.4718 -0.0694  0.4958
 8436TIP3   OH225271   4.863   1.471   0.811 -0.0187 -0.2065 -0.0839
 8436TIP3    H125272   4.912   1.397   0.846  2.0256  0.8397 -0.5401
 8436TIP3    H225273   4.771   1.449   0.825  0.5263 -2.7645 -0.1316
 8437TIP3   OH225274   0.376   3.499   0.285  0.0554 -0.1293 -0.1835
 8437TIP3    H125275   0.429   3.477   0.209  0.4379  1.9938 -0.6153
 8437TIP3    H225276   0.292   3.457   0.268 -0.2854  1.2621 -2.4753
 8438TIP3   OH225277   5.263   2.836   1.473  0.0910  0.9000 -0.0139
 8438TIP3    H125278   5.245   2.875   1.558 -1.1125 -1.4337  0.8811
 8438TIP3    H225279   5.271   2.742   1.491  0.4555  0.4157 -2.3883
 8439TIP3   OH225280   5.761   1.607   3.639  0.6136 -0.2685  0.3458
 8439TIP3    H125281   5.701   1.541   3.604 -1.1657  1.4216 -0.0082
 8439TIP3    H225282   5.738   1.613   3.732  0.0661  0.5077  0.1725
 8440TIP3   OH225283   5.002   4.535   2.012  0.1072  0.2257 -0.1493
 8440TIP3    H125284   5.068   4.560   2.077  1.0691  0.6821 -1.2633
 8440TIP3    H225285   5.048   4.541   1.928 -0.8080 -1.3363 -0.7999
 8441TIP3   OH225286   5.557   4.661   5.048 -0.3647  0.8466 -0.0442
 8441TIP3    H125287   5.540   4.567   5.061 -1.4375  0.5992 -2.5769
 8441TIP3    H225288   5.489   4.705   5.099 -0.4430  0.2275  0.3964
 8442TIP3   OH225289   3.647   0.947   2.204 -0.0110 -0.1200  0.6753
 8442TIP3    H125290   3.632   0.915   2.115 -0.4773 -1.3337  1.1658
 8442TIP3    H225291   3.647   1.042   2.195  1.0477 -0.2219 -0.7821
 8443TIP3   OH225292   2.250   6.750   3.517 -0.1213  0.7287 -0.2603
 8443TIP3    H125293   2.204   6.753   3.433 -1.8957  1.4853  0.7035
 8443TIP3    H225294   2.189   6.786   3.580  0.5784 -1.1745  1.6535
 8444TIP3   OH225295   1.763   3.403   4.089 -0.1679 -0.2198  0.5245
 8444TIP3    H125296   1.757   3.496   4.065  0.5069 -0.8316 -2.3213
 8444TIP3    H225297   1.678   3.384   4.128 -0.7443  1.3223  0.1193
 8445TIP3   OH225298   4.442   4.834   0.525  0.0844 -0.0779  0.0162
 8445TIP3    H125299   4.463   4.792   0.442  2.0356  2.1178 -0.6996
 8445TIP3    H225300   4.346   4.840   0.525  0.0623  1.3819 -2.9524
 8446TIP3   OH225301   3.877   4.696   5.530 -0.5086  0.0866  0.1491
 8446TIP3    H125302   3.829   4.677   5.449  1.0527  0.7427 -0.9795
 8446TIP3    H225303   3.875   4.791   5.537 -0.0318  0.0721  0.4974
 8447TIP3   OH225304   6.751   1.347   1.342  0.3265  0.3209  0.1870
 8447TIP3    H125305   6.699   1.425   1.319  1.1943  0.5398 -1.1795
 8447TIP3    H225306   6.713   1.277   1.288  2.2640  0.7929 -1.9435
 8448TIP3   OH225307   1.340   2.734   4.092 -0.3081 -0.1096 -0.0767
 8448TIP3    H125308   1.255   2.776   4.081 -0.3442  0.3281  1.6325
 8448TIP3    H225309   1.382   2.783   4.162  0.5952 -1.4885  0.3824
 8449TIP3   OH225310   1.540   4.248   5.489 -0.8989 -0.0288 -0.0464
 8449TIP3    H125311   1.593   4.186   5.539 -0.5601 -0.6299 -1.1154
 8449TIP3    H225312   1.600   4.283   5.423 -1.2281  1.0539  0.2152
 8450TIP3   OH225313   4.896   0.749   4.420  0.1667 -0.1042  0.0106
 8450TIP3    H125314   4.883   0.787   4.334  2.0627 -1.2277 -0.8166
 8450TIP3    H225315   4.864   0.659   4.412  2.1274 -0.8220 -0.1246
 8451TIP3   OH225316   4.075   0.252   4.923  0.0558 -0.5001  0.4733
 8451TIP3    H125317   4.058   0.183   4.987  0.4005 -2.2802 -1.2329
 8451TIP3    H225318   4.132   0.211   4.858 -1.7436  0.5715 -1.9651
 8452TIP3   OH225319   2.399   0.912   4.545  0.1591 -0.5510  0.6957
 8452TIP3    H125320   2.333   0.886   4.610  0.1902 -0.8123  0.6261
 8452TIP3    H225321   2.476   0.860   4.568  1.0130  1.2131  2.0175
 8453TIP3   OH225322   6.374   5.777   3.262  0.2570  0.0114  0.0959
 8453TIP3    H125323   6.421   5.851   3.299  1.1695 -1.1274  1.2886
 8453TIP3    H225324   6.440   5.728   3.212 -0.5388  0.4739 -1.4987
 8454TIP3   OH225325   6.569   0.383   3.833  0.1356  0.7093  0.1225
 8454TIP3    H125326   6.532   0.314   3.778  0.2166  1.2555 -0.6297
 8454TIP3    H225327   6.582   0.341   3.918 -0.6320  0.0399 -0.0720
 8455TIP3   OH225328   2.559   3.632   0.084  0.1991 -1.0520  0.1065
 8455TIP3    H125329   2.465   3.649   0.093  0.3710 -0.3157  0.6541
 8455TIP3    H225330   2.585   3.595   0.169  1.1878  2.7438  1.7006
 8456TIP3   OH225331   1.666   3.715   1.274 -0.5724 -0.4939  0.8162
 8456TIP3    H125332   1.578   3.712   1.312 -0.4976 -0.0009  1.0442
 8456TIP3    H225333   1.722   3.742   1.347 -0.2796 -0.4856  0.5907
 8457TIP3   OH225334   6.330   4.680   0.961  0.4901  0.1919 -0.3457
 8457TIP3    H125335   6.416   4.654   0.996  1.0238  0.1762 -1.6119
 8457TIP3    H225336   6.274   4.604   0.975  1.1349 -0.4240 -0.9652
 8458TIP3   OH225337   0.752   3.608   3.326  0.1292 -0.4200  0.1132
 8458TIP3    H125338   0.751   3.681   3.389  1.6362  0.6301 -1.0126
 8458TIP3    H225339   0.664   3.609   3.289 -0.0049  0.5660  0.4182
 8459TIP3   OH225340   5.723   4.295   4.012  0.2687 -0.2529 -0.0084
 8459TIP3    H125341   5.700   4.301   4.105  1.3842 -0.8922  0.3313
 8459TIP3    H225342   5.642   4.267   3.969 -0.0679 -0.6760  0.8770
 8460TIP3   OH225343   0.359   1.192   3.598 -0.6900  0.0862  0.1404
 8460TIP3    H125344   0.354   1.187   3.693 -1.6053  1.0470  0.1523
 8460TIP3    H225345   0.330   1.106   3.568 -1.3653  0.1149  0.6999
 8461TIP3   OH225346   6.275   6.781   3.956 -0.4126  0.0291  0.0475
 8461TIP3    H125347   6.314   6.696   3.975 -1.5205 -0.1717  1.5933
 8461TIP3    H225348   6.204   6.762   3.895  0.0328  0.0029 -0.4671
 8462TIP3   OH225349   0.781   4.154   2.816 -0.3854 -0.4537  0.1261
 8462TIP3    H125350   0.726   4.207   2.758 -0.6370 -1.2956 -0.4271
 8462TIP3    H225351   0.729   4.076   2.835 -1.1129  0.6266  3.0981
 8463TIP3   OH225352   3.924   6.346   0.490  0.4011 -0.3745 -0.4972
 8463TIP3    H125353   3.844   6.304   0.520 -0.6536  1.6071 -0.3912
 8463TIP3    H225354   3.949   6.405   0.561  0.7920  0.5309 -1.3550
 8464TIP3   OH225355   5.034   6.106   3.460  0.7012 -0.1993  0.5194
 8464TIP3    H125356   5.043   6.198   3.487 -0.4745 -0.1334  0.7412
 8464TIP3    H225357   5.019   6.058   3.542  1.6646 -0.6532  0.4432
 8465TIP3   OH225358   0.763   5.398   1.674  0.3145  0.4972 -0.0066
 8465TIP3    H125359   0.750   5.332   1.606  0.3374  0.4596  0.0253
 8465TIP3    H225360   0.677   5.439   1.686  0.3717  0.6954 -0.2568
 8466TIP3   OH225361   3.814   2.580   5.013 -0.1019  0.8093 -0.6472
 8466TIP3    H125362   3.904   2.550   4.997  0.7684  2.8525  0.0372
 8466TIP3    H225363   3.780   2.601   4.926 -0.2352 -0.7064 -0.9921
 8467TIP3   OH225364   5.197   0.697   2.146 -0.1235 -0.4043  0.7323
 8467TIP3    H125365   5.252   0.770   2.176 -0.8558  0.2801  0.4551
 8467TIP3    H225366   5.256   0.643   2.094 -0.0845  1.2694 -1.0811
 8468TIP3   OH225367   5.004   2.614   4.653  0.3513 -0.1379 -0.0153
 8468TIP3    H125368   4.911   2.597   4.644  0.2647 -0.4439  1.3403
 8468TIP3    H225369   5.009   2.695   4.704  0.8268 -0.0489 -0.1930
 8469TIP3   OH225370   3.748   0.273   0.863  0.2545  0.7223  0.0624
 8469TIP3    H125371   3.738   0.365   0.887  0.1780  0.4890  0.9642
 8469TIP3    H225372   3.815   0.239   0.923  0.2897  0.1913 -0.2661
 8470TIP3   OH225373   0.304   6.367   1.032  0.4318 -0.4770  0.0697
 8470TIP3    H125374   0.333   6.287   1.075 -0.9290 -0.5687  0.8859
 8470TIP3    H225375   0.265   6.419   1.103  1.6105  1.0832 -0.3774
 8471TIP3   OH225376   2.568   4.910   1.631 -0.3317 -0.4184  0.2263
 8471TIP3    H125377   2.504   4.843   1.604  0.0250 -1.2170  1.2882
 8471TIP3    H225378   2.554   4.920   1.725  0.2928  0.2883  0.2522
 8472TIP3   OH225379   2.499   4.895   1.016  0.0912 -0.5813 -0.1891
 8472TIP3    H125380   2.453   4.929   0.939 -0.4735 -0.9951 -0.0400
 8472TIP3    H225381   2.432   4.847   1.065  0.5278 -0.6189  0.3813
 8473TIP3   OH225382   0.429   0.792   4.644 -0.0613 -0.4232  0.4765
 8473TIP3    H125383   0.479   0.718   4.679  0.8990  0.7065  1.5883
 8473TIP3    H225384   0.450   0.794   4.551 -0.5769 -1.8896  0.2989
 8474TIP3   OH225385   2.720   5.685   4.833  0.5411 -0.2434  0.6624
 8474TIP3    H125386   2.654   5.624   4.864  0.3359  0.3523  1.4359
 8474TIP3    H225387   2.673   5.745   4.775  0.8874 -1.2422 -0.6904
 8475TIP3   OH225388   6.944   2.588   5.817 -0.3360 -0.1116 -0.2535
 8475TIP3    H125389   6.945   2.681   5.839 -1.9997  0.3542 -1.8682
 8475TIP3    H225390   6.923   2.586   5.723  1.0125 -2.0958 -0.5783
 8476TIP3   OH225391   1.402   4.294   2.982 -0.3624  0.8764 -0.0940
 8476TIP3    H125392   1.335   4.262   3.042  0.2738 -0.3289  0.0050
 8476TIP3    H225393   1.478   4.310   3.038  0.4627 -0.9239 -0.6417
 8477TIP3   OH225394   5.455   3.426   4.427  0.0134  0.1898 -0.2471
 8477TIP3    H125395   5.433   3.480   4.350  0.9210  1.1575  0.1519
 8477TIP3    H225396   5.373   3.421   4.476 -0.3703  0.2480 -0.8715
 8478TIP3   OH225397   4.628   0.929   0.478 -0.3900  0.2922 -0.1669
 8478TIP3    H125398   4.701   0.906   0.421  0.9130 -0.1198  1.5818
 8478TIP3    H225399   4.561   0.964   0.419  1.0231  0.2251 -1.8797
 8479TIP3   OH225400   5.655   6.161   1.669  0.2207  0.1634  0.2528
 8479TIP3    H125401   5.632   6.105   1.594 -3.0224  1.2686  0.2804
 8479TIP3    H225402   5.734   6.207   1.641  0.3266 -1.0216 -1.5830
 8480TIP3   OH225403   5.408   5.279   1.798 -0.5209 -0.1415 -0.0452
 8480TIP3    H125404   5.358   5.327   1.865 -0.2287  0.2871 -0.1325
 8480TIP3    H225405   5.464   5.219   1.849 -0.7466 -0.2552  0.0711
 8481TIP3   OH225406   6.411   4.187   2.888  0.7656 -0.2437 -0.2537
 8481TIP3    H125407   6.492   4.201   2.838  0.1672  0.7660 -0.9699
 8481TIP3    H225408   6.345   4.170   2.822  0.2326 -0.3219  0.2918
 8482TIP3   OH225409   4.843   0.270   4.162 -0.1947  0.2592 -0.1787
 8482TIP3    H125410   4.818   0.266   4.254 -0.3049  1.0497 -0.1694
 8482TIP3    H225411   4.939   0.271   4.164 -0.1900 -0.2436 -0.0982
 8483TIP3   OH225412   2.928   2.318   4.085  0.9203 -0.5122  0.1037
 8483TIP3    H125413   3.018   2.347   4.073  1.2661 -1.9651 -1.1315
 8483TIP3    H225414   2.899   2.360   4.166  0.8484  4.3100 -2.1028
 8484TIP3   OH225415   6.824   2.780   2.677 -0.1243  0.2502  0.2420
 8484TIP3    H125416   6.851   2.845   2.612  0.9694 -1.9027 -1.5776
 8484TIP3    H225417   6.743   2.743   2.642 -0.6562  0.5015  1.1790
 8485TIP3   OH225418   3.509   0.361   0.540  0.5071  0.7457 -0.3583
 8485TIP3    H125419   3.548   0.441   0.576 -0.8338  1.5679 -0.6269
 8485TIP3    H225420   3.558   0.345   0.460  0.3799  1.7122 -0.6530
 8486TIP3   OH225421   0.711   2.788   3.994 -0.0885 -0.0775 -0.3551
 8486TIP3    H125422   0.780   2.854   3.990  0.0217 -0.2390 -1.7123
 8486TIP3    H225423   0.753   2.708   3.962 -0.5910 -0.4626 -0.0552
 8487TIP3   OH225424   7.108   2.516   1.777  0.3653  0.2404 -0.2268
 8487TIP3    H125425   7.176   2.498   1.841  2.3958  0.1834 -2.2655
 8487TIP3    H225426   7.089   2.431   1.737 -0.2091  0.4145 -0.3478
 8488TIP3   OH225427   5.002   1.942   0.988  0.1585 -0.2964  0.5488
 8488TIP3    H125428   5.004   2.029   1.029  1.1674 -0.9608  1.9700
 8488TIP3    H225429   4.986   1.960   0.896 -0.9456  1.3251  1.0180
 8489TIP3   OH225430   6.703   1.287   0.669  0.3334  0.4688 -0.3702
 8489TIP3    H125431   6.690   1.201   0.629 -1.4166 -0.2235  1.4983
 8489TIP3    H225432   6.630   1.340   0.636 -0.0125  0.4671  0.3622
 8490TIP3   OH225433   5.507   5.928   4.575 -0.3248 -0.1783  0.0259
 8490TIP3    H125434   5.448   5.932   4.651  0.9028 -1.8125  1.1402
 8490TIP3    H225435   5.575   5.992   4.594  0.0676 -0.6989  0.4059
 8491TIP3   OH225436   2.416   4.956   2.130 -0.0374  0.2056 -0.3037
 8491TIP3    H125437   2.395   5.036   2.178  0.6378  1.2548 -1.6987
 8491TIP3    H225438   2.443   4.894   2.198 -1.6951  0.7536  0.9247
 8492TIP3   OH225439   0.197   2.058   2.256  0.1533 -0.2137  0.0317
 8492TIP3    H125440   0.157   2.143   2.238  0.8254  0.2063  0.4683
 8492TIP3    H225441   0.128   1.994   2.237 -0.1707  0.3880 -0.8645
 8493TIP3   OH225442   0.328   4.874   3.011  0.2758 -0.3633  0.2593
 8493TIP3    H125443   0.413   4.899   2.975  0.1032  0.9886  0.7464
 8493TIP3    H225444   0.346   4.796   3.063  0.9021 -1.0966 -1.0072
 8494TIP3   OH225445   5.242   6.729   0.226  0.1774 -0.0864 -0.3123
 8494TIP3    H125446   5.235   6.779   0.144 -1.6335  0.5656  0.1952
 8494TIP3    H225447   5.248   6.796   0.294  0.1934 -0.6106  0.2055
 8495TIP3   OH225448   3.849   0.714   0.680 -0.9545  0.2049 -0.2300
 8495TIP3    H125449   3.904   0.736   0.755 -2.1908  0.7669  0.5456
 8495TIP3    H225450   3.886   0.764   0.608 -0.9653  1.2841  0.4816
 8496TIP3   OH225451   2.982   0.206   4.470  0.4421  0.0990  0.3625
 8496TIP3    H125452   2.989   0.295   4.505  0.7385  0.5786 -0.8672
 8496TIP3    H225453   2.968   0.217   4.376  1.2157 -1.1543  0.0638
 8497TIP3   OH225454   6.346   1.957   3.314  0.0166 -0.1800  0.1751
 8497TIP3    H125455   6.322   1.921   3.228  1.5014 -1.6660  0.3251
 8497TIP3    H225456   6.326   2.050   3.308 -1.8173 -0.6021 -1.0697
 8498TIP3   OH225457   4.126   6.029   4.201 -0.0653 -0.0313  0.0302
 8498TIP3    H125458   4.098   6.091   4.134  0.5019 -0.0967 -0.2681
 8498TIP3    H225459   4.184   6.080   4.258  0.4277 -0.2883 -0.2340
 8499TIP3   OH225460   4.420   5.832   2.116 -0.0477 -0.1566 -0.1328
 8499TIP3    H125461   4.515   5.823   2.125  0.3260  1.5366 -1.7350
 8499TIP3    H225462   4.401   5.920   2.149 -1.0620 -0.4690  0.1445
 8500TIP3   OH225463   0.055   4.674   0.217  0.2323  0.1037 -0.1868
 8500TIP3    H125464   0.129   4.619   0.191 -0.5521  0.1273 -2.6962
 8500TIP3    H225465   0.014   4.627   0.290  1.2319 -1.1736 -0.4201
 8501TIP3   OH225466   4.576   6.061   0.699 -0.2987  0.2236 -0.2729
 8501TIP3    H125467   4.521   6.062   0.778  0.4659 -0.5346  0.2862
 8501TIP3    H225468   4.616   5.974   0.699  0.1366  0.4108 -1.2161
 8502TIP3   OH225469   2.050   5.351   1.140  0.1063 -0.5238 -0.2123
 8502TIP3    H125470   2.073   5.400   1.220  1.4683  0.2531 -1.0330
 8502TIP3    H225471   2.131   5.352   1.088 -0.0179 -3.0547 -0.5980
 8503TIP3   OH225472   3.383   5.004   4.744 -0.4440  0.8485 -0.0720
 8503TIP3    H125473   3.444   4.960   4.684  1.6006 -0.9192  2.9852
 8503TIP3    H225474   3.333   5.064   4.689  2.0829  0.2750 -3.2724
 8504TIP3   OH225475   2.846   3.902   0.860 -0.3363  0.6631  0.5394
 8504TIP3    H125476   2.926   3.866   0.899 -0.4988  0.1147  0.3672
 8504TIP3    H225477   2.860   3.893   0.765 -1.5695 -1.5744  0.5290
 8505TIP3   OH225478   6.714   0.616   0.684 -0.0512  0.3506 -0.0541
 8505TIP3    H125479   6.803   0.650   0.698 -0.8604  1.9892  1.4379
 8505TIP3    H225480   6.698   0.629   0.591  2.0181 -1.9947 -0.8624
 8506TIP3   OH225481   2.229   0.039   0.472  0.7995 -0.0958  0.1899
 8506TIP3    H125482   2.311   0.026   0.423  1.1619  3.8369 -0.5354
 8506TIP3    H225483   2.161   0.005   0.414  1.5530  1.0200 -1.4206
 8507TIP3   OH225484   5.606   4.875   1.847  0.0005 -0.0169 -0.4508
 8507TIP3    H125485   5.565   4.859   1.762 -0.5543  0.3463 -0.2582
 8507TIP3    H225486   5.548   4.833   1.910  0.2424 -0.0141 -0.2282
 8508TIP3   OH225487   0.332   4.036   1.814 -0.0690 -0.3182 -0.0300
 8508TIP3    H125488   0.398   4.082   1.762  1.2036 -0.2229  1.5898
 8508TIP3    H225489   0.308   3.961   1.760  0.8711  0.0011 -0.9389
 8509TIP3   OH225490   7.221   0.281   3.502 -0.3576 -0.2760 -0.5092
 8509TIP3    H125491   7.144   0.300   3.556  0.1927  0.9771 -0.1437
 8509TIP3    H225492   7.201   0.320   3.417 -0.8291 -1.4454 -0.9620
 8510TIP3   OH225493   1.496   5.179   0.363  0.3052 -0.2431 -0.4877
 8510TIP3    H125494   1.485   5.195   0.270  0.4267  0.2357 -0.4221
 8510TIP3    H225495   1.406   5.167   0.396  0.0820  1.5629 -0.3278
 8511TIP3   OH225496   0.432   1.272   0.870 -0.0482 -0.2909 -0.2744
 8511TIP3    H125497   0.405   1.328   0.943 -2.0290 -0.7291 -0.5894
 8511TIP3    H225498   0.521   1.298   0.850 -0.2953  1.4770  0.7638
 8512TIP3   OH225499   5.112   6.314   3.244 -0.5496 -0.6203  0.3966
 8512TIP3    H125500   5.179   6.376   3.216 -0.2579 -0.2329  1.8891
 8512TIP3    H225501   5.161   6.236   3.270 -0.8639 -1.2204 -0.7213
 8513TIP3   OH225502   1.313   4.310   5.236 -0.6957 -0.1461 -0.3345
 8513TIP3    H125503   1.235   4.271   5.276 -0.2306 -0.7918 -0.0331
 8513TIP3    H225504   1.303   4.404   5.251 -0.2069 -0.3975  1.9933
 8514TIP3   OH225505   0.933   4.458   4.536  0.5850  0.0309 -0.3022
 8514TIP3    H125506   1.009   4.514   4.556 -1.0443  2.6785 -0.9682
 8514TIP3    H225507   0.858   4.511   4.562 -1.0977 -2.4947  0.3016
 8515TIP3   OH225508   1.001   5.999   4.562  0.4432 -0.0985 -0.3628
 8515TIP3    H125509   1.083   5.963   4.526  0.3637 -1.4779  0.7290
 8515TIP3    H225510   1.005   5.978   4.655 -1.1667 -0.2010 -0.2898
 8516TIP3   OH225511   4.395   1.154   1.231 -0.4455  0.0850 -0.0266
 8516TIP3    H125512   4.320   1.211   1.246 -1.1541 -0.7300 -0.4358
 8516TIP3    H225513   4.368   1.096   1.160  0.5363 -0.2823 -0.1136
 8517TIP3   OH225514   4.645   2.687   1.556 -0.4635  0.2948  0.0394
 8517TIP3    H125515   4.564   2.737   1.554  1.0296  2.9471  1.1072
 8517TIP3    H225516   4.663   2.672   1.649 -0.4787 -1.6779 -0.2227
 8518TIP3   OH225517   6.076   6.479   5.639  0.0500 -0.1861 -0.5278
 8518TIP3    H125518   6.085   6.572   5.660  0.2562  0.0343 -1.5541
 8518TIP3    H225519   6.066   6.437   5.724 -2.2752  0.9902 -0.1303
 8519TIP3   OH225520   1.863   5.006   3.594 -0.0307  0.2362 -0.6874
 8519TIP3    H125521   1.913   5.027   3.673 -0.1681  1.0280 -0.8095
 8519TIP3    H225522   1.776   4.982   3.627 -0.4471  1.7108 -0.6614
 8520TIP3   OH225523   3.366   4.890   0.419 -0.2032 -0.7299  0.5616
 8520TIP3    H125524   3.292   4.835   0.394 -1.5924  1.6872 -1.0736
 8520TIP3    H225525   3.352   4.910   0.511 -2.8241  1.2680 -0.1523
 8521TIP3   OH225526   1.966   2.617   3.336  0.5288  0.2328  0.0415
 8521TIP3    H125527   2.039   2.577   3.384  1.9713 -0.9548 -2.9147
 8521TIP3    H225528   1.921   2.544   3.296  0.1762  1.2160 -1.4360
 8522TIP3   OH225529   0.712   3.810   2.005  0.7818 -0.5736  0.0960
 8522TIP3    H125530   0.690   3.816   2.098  0.1140 -0.0119 -0.0880
 8522TIP3    H225531   0.628   3.797   1.961  0.8045  1.2657 -0.5967
 8523TIP3   OH225532   3.161   0.188   3.065  0.2837  0.3119 -0.0734
 8523TIP3    H125533   3.181   0.247   3.137  1.1984  0.4990 -0.4677
 8523TIP3    H225534   3.231   0.204   3.001 -0.4033  0.0141 -0.9127
 8524TIP3   OH225535   3.510   5.644   5.809 -0.2990  0.1088 -0.0232
 8524TIP3    H125536   3.597   5.665   5.774 -0.5165 -0.4740 -0.9582
 8524TIP3    H225537   3.524   5.630   5.902  1.0053 -1.9865 -0.4709
 8525TIP3   OH225538   2.514   4.996   1.879 -0.1320 -0.1161 -0.2835
 8525TIP3    H125539   2.591   5.042   1.913  0.0939  0.3070 -1.3346
 8525TIP3    H225540   2.458   4.984   1.956  0.2889  0.9396  0.2072
 8526TIP3   OH225541   5.847   6.551   4.310 -0.2371  0.4512 -0.0783
 8526TIP3    H125542   5.791   6.589   4.243 -0.9280 -1.2174 -0.5039
 8526TIP3    H225543   5.787   6.517   4.376  0.3851  0.8331  0.7041
 8527TIP3   OH225544   3.546   5.653   4.935  0.0697  0.0458  0.4096
 8527TIP3    H125545   3.551   5.613   5.021 -0.0605  1.3668  1.0575
 8527TIP3    H225546   3.453   5.652   4.913 -0.0590  0.8736  0.8750
 8528TIP3   OH225547   4.731   6.344   1.922  0.1411 -0.3253  0.3468
 8528TIP3    H125548   4.655   6.287   1.912 -0.4314  0.4827  0.0081
 8528TIP3    H225549   4.765   6.354   1.834  0.3088 -0.2361  0.4210
 8529TIP3   OH225550   0.370   6.198   2.420  0.0504  0.1864 -0.1054
 8529TIP3    H125551   0.339   6.123   2.472  0.0289 -0.0903 -0.5108
 8529TIP3    H225552   0.453   6.222   2.459 -0.0570  0.1004  0.1778
 8530TIP3   OH225553   6.746   1.289   3.376 -0.2442  0.2066  0.0251
 8530TIP3    H125554   6.698   1.291   3.293  0.0186 -0.8151 -0.1587
 8530TIP3    H225555   6.792   1.374   3.378 -1.2631  0.7802 -0.2553
 8531TIP3   OH225556   0.825   2.559   3.666  0.1092 -0.4045 -0.0970
 8531TIP3    H125557   0.764   2.564   3.739 -0.4108 -1.9736 -0.3987
 8531TIP3    H225558   0.775   2.516   3.596  1.4607 -1.4868 -0.4319
 8532TIP3   OH225559   5.256   5.195   3.029 -0.4591  0.8818  0.5736
 8532TIP3    H125560   5.175   5.209   2.981 -0.6215 -2.2429 -0.2120
 8532TIP3    H225561   5.229   5.180   3.120 -0.5700  1.5249  0.6552
 8533TIP3   OH225562   2.410   3.970   5.881 -0.2808 -0.3328  0.1237
 8533TIP3    H125563   2.468   3.970   5.804 -0.8720  0.1833 -0.3314
 8533TIP3    H225564   2.332   3.923   5.852 -0.7044  0.2784  0.2522
 8534TIP3   OH225565   3.903   4.260   3.544  0.0250 -0.6607 -0.5917
 8534TIP3    H125566   3.849   4.339   3.546 -1.2222 -1.5081  0.0811
 8534TIP3    H225567   3.955   4.270   3.464 -0.0293  0.8761 -0.4774
 8535TIP3   OH225568   1.450   2.489   3.893  0.0002  1.0753 -0.0515
 8535TIP3    H125569   1.378   2.525   3.945 -1.4451 -1.5339 -0.0758
 8535TIP3    H225570   1.412   2.475   3.806  0.2938 -0.8298  0.0733
 8536TIP3   OH225571   1.470   3.895   0.266 -0.1500  0.5822  0.4220
 8536TIP3    H125572   1.463   3.876   0.359  1.6992 -1.7206  0.1685
 8536TIP3    H225573   1.464   3.810   0.223 -0.2796  1.5140 -1.5421
 8537TIP3   OH225574   6.542   6.417   5.078 -0.1941 -0.3491 -0.0553
 8537TIP3    H125575   6.631   6.400   5.108 -0.5691  0.1104  1.3790
 8537TIP3    H225576   6.488   6.408   5.156 -1.3787 -0.3747 -0.8554
 8538TIP3   OH225577   6.473   1.088   4.821 -0.2459 -0.6082 -0.0039
 8538TIP3    H125578   6.446   0.997   4.836 -0.9163 -0.4628 -0.2706
 8538TIP3    H225579   6.521   1.113   4.900 -0.7267 -0.9461  0.3991
 8539TIP3   OH225580   1.614   1.682   3.187  0.0674 -0.2363  0.0442
 8539TIP3    H125581   1.627   1.698   3.281 -0.1915  1.8941 -0.2247
 8539TIP3    H225582   1.588   1.590   3.182  1.3330 -0.7672  1.9160
 8540TIP3   OH225583   1.904   0.726   5.283 -0.3198 -0.1479 -0.5689
 8540TIP3    H125584   1.930   0.757   5.197  1.3613 -1.6327 -0.6678
 8540TIP3    H225585   1.838   0.658   5.266  1.4952 -1.9271 -0.9080
 8541TIP3   OH225586   5.093   3.516   1.040  0.3082 -0.1719 -0.3932
 8541TIP3    H125587   5.040   3.578   1.090 -1.4003 -1.4379 -0.5339
 8541TIP3    H225588   5.116   3.563   0.960 -3.1273 -0.4096 -1.7136
 8542TIP3   OH225589   6.310   2.829   2.829  0.2315 -0.1485 -0.4832
 8542TIP3    H125590   6.359   2.760   2.784 -1.6619 -1.3048 -0.8924
 8542TIP3    H225591   6.339   2.910   2.787  3.1365 -0.5318  0.5944
 8543TIP3   OH225592   4.543   0.428   5.608  0.1389  0.4398  0.2312
 8543TIP3    H125593   4.520   0.520   5.622 -0.0649  0.6414 -1.2263
 8543TIP3    H225594   4.586   0.427   5.522 -0.1185 -0.8554  0.0907
 8544TIP3   OH225595   3.770   4.416   5.154  0.0370  0.1220  0.6378
 8544TIP3    H125596   3.695   4.388   5.207 -1.9262  0.4842 -1.7829
 8544TIP3    H225597   3.789   4.341   5.098 -0.2288  0.9086 -0.5333
 8545TIP3   OH225598   4.923   1.834   2.385 -0.6506  0.2454 -0.1188
 8545TIP3    H125599   4.930   1.775   2.460  0.2171  0.3009 -0.1427
 8545TIP3    H225600   4.962   1.915   2.416 -1.0314  0.5282 -0.3777
 8546TIP3   OH225601   2.193   6.701   3.870  0.1428  0.3040  0.0945
 8546TIP3    H125602   2.117   6.668   3.822  0.5886  1.4951 -1.5126
 8546TIP3    H225603   2.175   6.679   3.962 -1.3742 -0.8526 -0.4402
 8547TIP3   OH225604   5.998   6.182   2.121  0.2163 -0.2309  0.0954
 8547TIP3    H125605   6.080   6.162   2.077  0.8540  1.1908  0.5749
 8547TIP3    H225606   6.024   6.232   2.198 -1.1979  2.4487 -1.0496
 8548TIP3   OH225607   1.711   5.799   5.603 -0.0300 -0.6684  0.0354
 8548TIP3    H125608   1.636   5.849   5.571 -0.5964 -2.1678 -1.1315
 8548TIP3    H225609   1.714   5.721   5.546  2.4215 -0.6582  0.0273
 8549TIP3   OH225610   4.218   2.951   2.846  0.3706 -0.5580  0.1202
 8549TIP3    H125611   4.141   2.991   2.805  0.5919 -0.5700 -0.3063
 8549TIP3    H225612   4.197   2.950   2.940  0.6698  1.2826  0.2548
 8550TIP3   OH225613   5.170   4.625   5.156  0.5031  0.5737 -0.2177
 8550TIP3    H125614   5.218   4.544   5.137 -0.2060 -0.3892  1.8181
 8550TIP3    H225615   5.238   4.686   5.187  0.7628 -0.0106  0.4008
 8551TIP3   OH225616   4.774   5.668   2.084 -0.0656  0.3808 -0.1064
 8551TIP3    H125617   4.781   5.666   2.179 -0.0255  0.5650 -0.1049
 8551TIP3    H225618   4.864   5.680   2.053 -0.0517  0.1018 -0.1751
 8552TIP3   OH225619   0.555   2.736   2.811 -0.2668 -0.0261 -0.4708
 8552TIP3    H125620   0.535   2.643   2.805 -0.1471 -0.1193  0.5174
 8552TIP3    H225621   0.471   2.778   2.828  0.1342 -0.3389  2.8482
 8553TIP3   OH225622   5.360   5.642   3.196 -0.6304  0.4173  0.0443
 8553TIP3    H125623   5.438   5.678   3.237 -0.4930  0.3408 -0.1487
 8553TIP3    H225624   5.387   5.555   3.166 -0.4491  0.8461 -1.0705
 8554TIP3   OH225625   0.590   5.937   4.956  0.0146 -0.5726  0.0797
 8554TIP3    H125626   0.497   5.955   4.970  0.5919  2.3780  0.7166
 8554TIP3    H225627   0.619   6.004   4.894  1.8756 -0.9883  0.4309
 8555TIP3   OH225628   2.201   2.034   2.772 -0.4121 -0.0807  0.0334
 8555TIP3    H125629   2.266   2.102   2.751  0.0128 -1.4284 -3.6223
 8555TIP3    H225630   2.254   1.957   2.792 -0.8464 -0.8431 -1.6737
 8556TIP3   OH225631   0.396   3.458   3.984 -0.0777 -0.0839  0.1929
 8556TIP3    H125632   0.491   3.467   3.993 -0.1566 -0.4086  1.7646
 8556TIP3    H225633   0.379   3.367   4.009 -0.7621 -0.1410 -0.4737
 8557TIP3   OH225634   3.450   2.906   3.414 -0.0092 -0.0684 -0.2431
 8557TIP3    H125635   3.424   2.848   3.486 -2.0959 -1.6408 -2.1247
 8557TIP3    H225636   3.368   2.940   3.380  0.9407  0.8291 -1.7561
 8558TIP3   OH225637   1.688   2.626   3.954 -0.5588 -0.2307  0.1936
 8558TIP3    H125638   1.603   2.584   3.970 -0.5822 -0.6670 -0.9748
 8558TIP3    H225639   1.667   2.707   3.909 -0.3108 -1.4137 -2.2451
 8559TIP3   OH225640   2.173   6.296   0.627  0.2432  0.2162 -0.0418
 8559TIP3    H125641   2.107   6.364   0.639 -0.3289  0.0618 -1.9622
 8559TIP3    H225642   2.253   6.334   0.660 -0.2053  1.5996 -0.4791
 8560TIP3   OH225643   1.179   2.270   5.741  0.5309  0.4722 -0.1000
 8560TIP3    H125644   1.151   2.179   5.750 -0.0134  0.7638  1.3999
 8560TIP3    H225645   1.232   2.286   5.818 -1.0265  2.0003  0.7157
 8561TIP3   OH225646   5.151   2.839   2.216  0.4750  0.0348  0.5208
 8561TIP3    H125647   5.233   2.790   2.219  0.0543 -0.6603  1.8168
 8561TIP3    H225648   5.109   2.810   2.135  0.7445 -0.9264  0.7096
 8562TIP3   OH225649   2.268   5.867   4.448 -0.1617 -0.5061 -0.2384
 8562TIP3    H125650   2.188   5.897   4.404  0.4128  0.7881 -0.4148
 8562TIP3    H225651   2.263   5.771   4.442 -0.8938 -0.4006 -1.6816
 8563TIP3   OH225652   0.697   2.427   3.478 -1.0101  0.0261 -0.0073
 8563TIP3    H125653   0.731   2.456   3.393  1.6156 -0.4758  0.7873
 8563TIP3    H225654   0.630   2.362   3.457 -1.1123  0.6366 -1.6857
 8564TIP3   OH225655   0.998   5.549   1.701  0.2248  0.7492 -0.7757
 8564TIP3    H125656   0.935   5.481   1.676  0.2061  0.1237  0.8460
 8564TIP3    H225657   1.039   5.575   1.619 -2.9126  2.0056 -2.1059
 8565TIP3   OH225658   0.015   4.892   4.068 -0.3399 -0.5984 -0.0862
 8565TIP3    H125659  -0.038   4.938   4.002 -0.1434 -0.0126  0.1571
 8565TIP3    H225660   0.059   4.822   4.019 -0.3194 -0.2695 -0.5490
 8566TIP3   OH225661   4.941   2.714   1.604  0.1335  0.5334 -0.2484
 8566TIP3    H125662   4.850   2.682   1.597 -0.2985  1.8300 -0.8370
 8566TIP3    H225663   4.940   2.772   1.680  0.9165 -0.7820  0.8116
 8567TIP3   OH225664   6.855   0.054   0.384 -0.0541  0.4310  0.8564
 8567TIP3    H125665   6.799   0.026   0.311  0.5486  1.1290  0.1158
 8567TIP3    H225666   6.822   0.004   0.459 -0.1035 -0.9683 -0.0672
 8568TIP3   OH225667   2.715   1.724   5.206  0.0809  0.4793  0.3364
 8568TIP3    H125668   2.736   1.806   5.162  0.6693 -0.5099 -1.3243
 8568TIP3    H225669   2.622   1.711   5.190  0.0505  0.6635  0.3584
 8569TIP3   OH225670   2.742   6.002   0.072 -0.2609  0.1827 -0.2471
 8569TIP3    H125671   2.729   5.921   0.022 -0.2344  0.4452 -0.6902
 8569TIP3    H225672   2.716   6.071   0.011  0.4612  0.5566 -0.1414
 8570TIP3   OH225673   2.310   3.295   5.223 -0.5282  0.7246  0.0666
 8570TIP3    H125674   2.255   3.216   5.218  0.6900 -0.4808  3.0055
 8570TIP3    H225675   2.395   3.267   5.190 -1.0722  2.0938 -2.8016
 8571TIP3   OH225676   4.057   4.595   3.634 -0.0997 -0.0154 -0.3549
 8571TIP3    H125677   4.083   4.687   3.640 -0.7726  0.1512  0.1754
 8571TIP3    H225678   3.961   4.597   3.640 -0.1449 -0.7210 -0.7459
 8572TIP3   OH225679   4.356   5.880   4.910  0.1670 -0.6680 -0.3996
 8572TIP3    H125680   4.341   5.899   5.003 -0.1192 -1.4490 -0.2812
 8572TIP3    H225681   4.446   5.907   4.894  0.3844 -1.0012  0.2361
 8573TIP3   OH225682   5.013   0.958   2.380 -0.5995 -0.1124  0.0734
 8573TIP3    H125683   4.943   1.014   2.413 -3.1038 -0.5597 -3.8972
 8573TIP3    H225684   5.044   1.003   2.301  2.4116 -0.8783  0.6835
 8574TIP3   OH225685   5.335   5.165   0.749  0.7451 -0.6397 -0.2570
 8574TIP3    H125686   5.320   5.166   0.654  0.5813 -2.5810 -0.3043
 8574TIP3    H225687   5.248   5.174   0.787  0.6958 -0.8929 -0.3106
 8575TIP3   OH225688   1.297   5.505   3.465 -0.0506  0.2173  0.5173
 8575TIP3    H125689   1.347   5.581   3.494  2.2495 -0.3220 -1.6832
 8575TIP3    H225690   1.342   5.430   3.504 -1.8255 -0.1401  2.0234
 8576TIP3   OH225691   5.563   3.910   4.223  0.5834  0.6476  0.2017
 8576TIP3    H125692   5.577   3.974   4.292 -0.0782  2.1748 -1.0092
 8576TIP3    H225693   5.476   3.874   4.240  1.1766 -0.3704  1.1954
 8577TIP3   OH225694   2.009   1.004   2.848 -0.4293  0.0930  0.5551
 8577TIP3    H125695   2.050   1.091   2.854  1.1752 -0.6659  1.1726
 8577TIP3    H225696   1.920   1.022   2.817  0.4319  1.8057 -1.1362
 8578TIP3   OH225697   2.720   4.675   0.648  0.0689  0.0504  0.1373
 8578TIP3    H125698   2.718   4.722   0.732 -0.3144 -0.2939  0.3255
 8578TIP3    H225699   2.670   4.731   0.588 -1.1958 -0.5448  0.5981
 8579TIP3   OH225700   5.281   3.571   5.194 -0.4229 -0.2608  0.1389
 8579TIP3    H125701   5.276   3.568   5.098 -0.8457 -0.2041  0.1543
 8579TIP3    H225702   5.367   3.536   5.215 -1.0221 -2.0254 -0.1783
 8580TIP3   OH225703   6.182   6.479   1.084 -0.4159  0.0834  0.4154
 8580TIP3    H125704   6.261   6.515   1.045  0.5080 -0.1420  2.0223
 8580TIP3    H225705   6.211   6.436   1.164 -2.1027 -0.3771  0.8286
 8581TIP3   OH225706   4.110   5.490   2.408  0.5626 -0.0108 -0.0999
 8581TIP3    H125707   4.191   5.514   2.363  0.3014  0.4279 -0.3415
 8581TIP3    H225708   4.130   5.502   2.501  1.2356 -1.3248 -0.0596
 8582TIP3   OH225709   6.428   2.328   4.856 -0.1625  0.4565 -0.2570
 8582TIP3    H125710   6.441   2.414   4.816 -0.2869 -0.4993 -2.4610
 8582TIP3    H225711   6.399   2.347   4.946 -0.1684  2.6930 -0.6938
 8583TIP3   OH225712   5.364   3.637   3.651 -0.1404 -0.3445 -0.4597
 8583TIP3    H125713   5.451   3.603   3.629 -0.4796 -1.5049 -0.0655
 8583TIP3    H225714   5.309   3.607   3.579 -0.1531  0.7219 -0.9090
 8584TIP3   OH225715   4.522   0.470   0.896  0.5515 -0.2487  0.4994
 8584TIP3    H125716   4.494   0.392   0.848  0.0498  0.5983 -0.6231
 8584TIP3    H225717   4.446   0.494   0.948 -0.6559  1.5626 -1.9157
 8585TIP3   OH225718   2.141   3.191   0.844  0.1365  0.5495 -0.5224
 8585TIP3    H125719   2.050   3.184   0.875  0.6365 -2.7679  0.5203
 8585TIP3    H225720   2.146   3.131   0.770  2.1917 -2.0583  1.5491
 8586TIP3   OH225721   1.243   4.692   2.512 -0.3430  0.1476 -0.2784
 8586TIP3    H125722   1.251   4.659   2.602 -0.3419  0.4322 -0.1717
 8586TIP3    H225723   1.232   4.786   2.523 -1.3937  0.0594 -0.5356
 8587TIP3   OH225724   7.123   2.610   0.725  0.1975 -0.2071  0.6207
 8587TIP3    H125725   7.144   2.547   0.795  0.0114 -0.5599  0.3616
 8587TIP3    H225726   7.045   2.656   0.757 -0.1380 -0.6608  0.4639
 8588TIP3   OH225727   0.886   4.821   5.494 -0.2422  0.0762  0.5046
 8588TIP3    H125728   0.828   4.746   5.481  2.1944 -1.9626  0.6927
 8588TIP3    H225729   0.906   4.851   5.405 -2.6055  1.7397  0.4543
 8589TIP3   OH225730   6.139   2.989   0.286 -0.6493  0.7465 -0.2364
 8589TIP3    H125731   6.090   3.046   0.228  0.2861  0.5295 -1.2801
 8589TIP3    H225732   6.162   3.045   0.360 -0.9793  1.3189 -0.5581
 8590TIP3   OH225733   4.146   4.515   2.413  0.0138  0.3985  0.5137
 8590TIP3    H125734   4.080   4.507   2.482 -0.1576 -2.6511  0.1384
 8590TIP3    H225735   4.229   4.496   2.457  0.1627  0.5702  0.3070
 8591TIP3   OH225736   1.331   3.932   0.912  0.1656  0.1365  0.2285
 8591TIP3    H125737   1.407   3.879   0.888 -0.2023  0.6261 -2.3631
 8591TIP3    H225738   1.343   4.013   0.863 -1.7664  0.4132  0.1539
 8592TIP3   OH225739   4.846   3.494   2.745 -0.2015 -0.0120 -0.3269
 8592TIP3    H125740   4.842   3.548   2.666 -0.2275  1.3536  0.5816
 8592TIP3    H225741   4.919   3.434   2.729 -0.4067  0.0260 -1.5104
 8593TIP3   OH225742   1.861   0.978   5.532  0.4591 -0.6896 -0.3105
 8593TIP3    H125743   1.822   0.891   5.538  0.6382 -0.7183  0.4543
 8593TIP3    H225744   1.955   0.964   5.543  0.4711 -0.3819 -0.0070
 8594TIP3   OH225745   6.864   5.380   1.645  0.4528  0.5716  0.6784
 8594TIP3    H125746   6.916   5.312   1.688  1.7770  0.7264 -0.6255
 8594TIP3    H225747   6.911   5.461   1.664  0.5220  0.7547 -0.2585
 8595TIP3   OH225748   3.401   0.076   1.910  0.1900  0.0424 -0.1885
 8595TIP3    H125749   3.368   0.162   1.884 -0.1654  0.4093  1.3866
 8595TIP3    H225750   3.409   0.081   2.005 -0.7415 -1.9704  0.0529
 8596TIP3   OH225751   1.869   4.275   2.273 -0.4633  0.1002 -0.1154
 8596TIP3    H125752   1.880   4.293   2.366  0.3000  1.4062 -0.4354
 8596TIP3    H225753   1.948   4.227   2.248 -1.3929 -1.6950  0.2163
 8597TIP3   OH225754   6.310   3.940   4.967  0.5929  0.2842  0.5522
 8597TIP3    H125755   6.309   4.026   5.008  1.1268  1.1499 -1.1476
 8597TIP3    H225756   6.403   3.916   4.964  0.6463  0.5747 -0.7423
 8598TIP3   OH225757   4.046   5.374   4.329  0.7254  0.5155 -1.3604
 8598TIP3    H125758   4.006   5.293   4.298  0.1716  0.1114  0.2783
 8598TIP3    H225759   3.993   5.444   4.291 -0.6563  0.0133 -0.4610
 8599TIP3   OH225760   4.850   1.510   4.042  0.0515 -0.1033 -0.1715
 8599TIP3    H125761   4.923   1.479   4.096  0.1086 -0.0823 -0.2380
 8599TIP3    H225762   4.794   1.556   4.104 -0.5145 -1.1422  0.1225
 8600TIP3   OH225763   5.370   6.277   4.366 -0.2579 -0.2495  0.1061
 8600TIP3    H125764   5.324   6.343   4.417 -0.9649  1.2189 -2.2696
 8600TIP3    H225765   5.302   6.237   4.312  0.8736  0.7751 -2.2395
 8601TIP3   OH225766   0.447   4.563   2.681 -0.1447  0.4513 -0.5475
 8601TIP3    H125767   0.402   4.636   2.640  0.7891  1.0113 -0.6147
 8601TIP3    H225768   0.467   4.593   2.769  0.0792  0.2107 -0.5123
 8602TIP3   OH225769   1.505   5.937   2.695  0.5151 -0.0347 -0.1486
 8602TIP3    H125770   1.587   5.961   2.737  0.1805  2.6816 -0.8947
 8602TIP3    H225771   1.531   5.892   2.615  1.2935  0.6247 -0.2733
 8603TIP3   OH225772   4.181   5.178   2.076 -0.5139  0.0758 -0.0389
 8603TIP3    H125773   4.180   5.086   2.102  0.0454  0.3493  1.0204
 8603TIP3    H225774   4.122   5.182   2.001  2.6982 -1.9441 -3.0092
 8604TIP3   OH225775   4.777   1.709   1.952 -0.0121 -0.1611  0.1079
 8604TIP3    H125776   4.853   1.767   1.948 -0.3148  0.3913  1.5402
 8604TIP3    H225777   4.736   1.729   2.037 -1.6768 -0.5424 -0.5634
 8605TIP3   OH225778   5.624   2.317   4.017 -0.1855  0.3932  0.0799
 8605TIP3    H125779   5.532   2.344   4.026  0.0633  0.9648  1.1488
 8605TIP3    H225780   5.638   2.309   3.923 -0.5896  2.9259 -0.2532
 8606TIP3   OH225781   2.471   5.231   4.448 -0.5168 -0.1946  0.3625
 8606TIP3    H125782   2.566   5.224   4.458 -0.2874 -0.8758 -1.8173
 8606TIP3    H225783   2.459   5.268   4.360 -2.2698 -0.7781  0.3233
 8607TIP3   OH225784   6.062   5.532   2.058 -0.4307  0.2436  0.6102
 8607TIP3    H125785   5.989   5.474   2.037 -1.0413  0.9704  0.6483
 8607TIP3    H225786   6.024   5.596   2.118 -0.1189  1.4044 -0.3832
 8608TIP3   OH225787   0.083   4.901   5.133 -0.6576 -0.2108 -0.1732
 8608TIP3    H125788   0.009   4.928   5.080 -0.4483 -0.1212 -0.4223
 8608TIP3    H225789   0.102   4.977   5.188 -0.6535 -0.1786 -0.2191
 8609TIP3   OH225790   1.617   5.124   5.689 -0.3919  0.8278  0.3745
 8609TIP3    H125791   1.536   5.095   5.646  1.1928  0.4838 -2.6703
 8609TIP3    H225792   1.589   5.190   5.752 -3.0199  0.8966 -0.7484
 8610TIP3   OH225793   0.196   5.403   5.415  0.0709  0.0459  0.2003
 8610TIP3    H125794   0.150   5.333   5.461  2.2518 -0.8390  1.1354
 8610TIP3    H225795   0.218   5.466   5.483 -0.8344  1.1122 -0.4527
 8611TIP3   OH225796   2.937   5.841   5.504  0.3258  0.1937 -0.1985
 8611TIP3    H125797   3.026   5.807   5.504  0.2469 -0.2871  2.8033
 8611TIP3    H225798   2.941   5.920   5.450  1.8120 -1.3880 -2.5926
 8612TIP3   OH225799   2.927   3.228   2.337 -0.2099  0.0825  0.2358
 8612TIP3    H125800   2.869   3.303   2.342  0.8445  0.8449  2.4974
 8612TIP3    H225801   2.885   3.161   2.389  0.9842  0.7490  2.1647
 8613TIP3   OH225802   3.409   2.846   3.839 -0.1139 -1.1323  0.2001
 8613TIP3    H125803   3.363   2.929   3.834  1.0042 -0.4704  0.4710
 8613TIP3    H225804   3.407   2.812   3.749  0.6194 -0.1277 -0.2121
 8614TIP3   OH225805   1.713   5.340   4.611  0.2437 -0.3675 -0.1613
 8614TIP3    H125806   1.638   5.340   4.552 -0.3064  0.1609  0.5143
 8614TIP3    H225807   1.745   5.430   4.610  0.0673 -0.2899  0.5322
 8615TIP3   OH225808   4.635   3.794   4.732 -0.1913 -0.2791 -0.1983
 8615TIP3    H125809   4.595   3.881   4.742 -2.1886 -1.0728 -0.7680
 8615TIP3    H225810   4.714   3.797   4.786  0.2098  2.1314 -0.8146
 8616TIP3   OH225811   5.297   2.818   0.078 -0.2806 -0.0104 -0.6758
 8616TIP3    H125812   5.346   2.879   0.132 -1.7078  0.6042 -0.0117
 8616TIP3    H225813   5.304   2.734   0.123  0.5551 -0.0384 -0.8554
 8617TIP3   OH225814   4.008   4.622   4.937 -0.0977  0.1668  0.1946
 8617TIP3    H125815   4.031   4.562   4.866  1.3632  2.1446 -1.0962
 8617TIP3    H225816   3.912   4.628   4.932 -0.1901 -1.1927 -0.3064
 8618TIP3   OH225817   4.164   2.593   1.897 -1.0494  0.2760 -0.2080
 8618TIP3    H125818   4.151   2.619   1.806 -0.7095  1.1440 -0.0255
 8618TIP3    H225819   4.216   2.513   1.892 -0.7031  0.5305 -0.7706
 8619TIP3   OH225820   1.241   1.539   5.762  0.0262  0.7576  0.3185
 8619TIP3    H125821   1.179   1.552   5.690  1.3173  0.3316 -0.9001
 8619TIP3    H225822   1.257   1.445   5.763  1.3379  0.9676  0.0169
 8620TIP3   OH225823   2.316   5.649   3.585 -0.2437 -0.1533 -0.2851
 8620TIP3    H125824   2.221   5.637   3.589 -0.3309  0.0391 -1.2949
 8620TIP3    H225825   2.352   5.561   3.595 -0.6391 -0.5632 -1.9791
 8621TIP3   OH225826   6.120   0.730   1.764 -0.1289  0.5372 -0.7032
 8621TIP3    H125827   6.214   0.743   1.754  0.0138  0.5422  0.4740
 8621TIP3    H225828   6.112   0.665   1.834 -0.9887 -0.3233 -1.5814
 8622TIP3   OH225829   2.263   4.639   2.406  0.4364  0.6301 -0.0377
 8622TIP3    H125830   2.206   4.700   2.451 -0.6552  1.1648 -2.0077
 8622TIP3    H225831   2.213   4.557   2.402  0.8493  0.3548  0.4097
 8623TIP3   OH225832   0.404   6.507   2.601  0.0206 -0.1753 -0.2164
 8623TIP3    H125833   0.347   6.561   2.656  1.1137 -1.0519  1.9052
 8623TIP3    H225834   0.362   6.506   2.516 -1.8747  1.1119  0.6405
 8624TIP3   OH225835   3.285   1.894   2.525 -0.5056 -0.1042 -0.1669
 8624TIP3    H125836   3.224   1.964   2.501  1.0686  1.1071 -0.8915
 8624TIP3    H225837   3.337   1.931   2.597  0.0445 -0.6835 -0.2541
 8625TIP3   OH225838   1.392   1.512   4.910  0.4457  0.4981  0.0847
 8625TIP3    H125839   1.301   1.519   4.940  0.6415  0.6727  0.6496
 8625TIP3    H225840   1.442   1.497   4.990  0.8883  0.1651 -0.2552
 8626TIP3   OH225841   0.402   0.947   3.855  0.2345 -0.2529  0.3561
 8626TIP3    H125842   0.319   0.984   3.884  0.1719  1.4616 -1.7245
 8626TIP3    H225843   0.389   0.852   3.857 -0.6310 -0.1622  3.0466
 8627TIP3   OH225844   4.315   4.383   3.902  0.2439 -0.9145  0.2107
 8627TIP3    H125845   4.410   4.369   3.904  0.0367 -2.4855  0.7288
 8627TIP3    H225846   4.290   4.388   3.994  0.0420  1.5055  0.0884
 8628TIP3   OH225847   5.351   0.534   1.565 -0.2631  0.0116 -0.1170
 8628TIP3    H125848   5.290   0.595   1.607 -0.3850  0.4142 -0.8638
 8628TIP3    H225849   5.349   0.456   1.621 -0.6065  0.4437  0.4856
 8629TIP3   OH225850   4.822   1.113   1.380 -0.1891 -0.3569 -0.2295
 8629TIP3    H125851   4.862   1.067   1.454  0.3879  0.7910  0.2012
 8629TIP3    H225852   4.846   1.205   1.394 -2.5236  0.3081 -0.2676
 8630TIP3   OH225853   6.806   6.383   5.145 -0.3670  0.5015 -0.0693
 8630TIP3    H125854   6.844   6.367   5.231 -0.9952  0.5319  0.2188
 8630TIP3    H225855   6.881   6.386   5.086  0.0734  0.5262  0.4833
 8631TIP3   OH225856   6.054   1.564   4.782  0.5651 -0.3096 -0.3440
 8631TIP3    H125857   6.120   1.503   4.749  1.4532  0.5891 -0.3008
 8631TIP3    H225858   6.101   1.616   4.848 -0.6489 -0.7727  0.9328
 8632TIP3   OH225859   0.124   2.022   5.101  0.4029  0.3834 -0.1992
 8632TIP3    H125860   0.184   2.078   5.151  1.4159  0.8500 -1.8292
 8632TIP3    H225861   0.044   2.074   5.092  0.9030  1.0923 -0.6740
 8633TIP3   OH225862   6.796   6.054   5.175  0.4268 -0.1018 -0.1649
 8633TIP3    H125863   6.867   6.028   5.234  1.2176  3.0608  0.4852
 8633TIP3    H225864   6.785   6.148   5.191 -3.4380 -0.2809 -0.7894
 8634TIP3   OH225865   0.436   1.448   1.107  0.1696 -0.3914 -0.0230
 8634TIP3    H125866   0.341   1.443   1.116 -0.0291  2.2707 -0.0829
 8634TIP3    H225867   0.469   1.417   1.192 -0.6736 -2.0240 -0.2475
 8635TIP3   OH225868   1.557   1.587   3.800  0.2422  0.2998  0.1224
 8635TIP3    H125869   1.609   1.608   3.722 -0.1516 -1.4992 -0.6643
 8635TIP3    H225870   1.621   1.553   3.863  0.2228 -0.5925 -0.3335
 8636TIP3   OH225871   1.989   4.323   0.271 -0.1083  0.0756  0.2444
 8636TIP3    H125872   2.022   4.321   0.182 -0.4278 -0.3034  0.1293
 8636TIP3    H225873   2.007   4.236   0.306  1.1751  0.6092  0.9921
 8637TIP3   OH225874   5.291   0.876   5.006  0.5869  0.2109 -0.4474
 8637TIP3    H125875   5.381   0.899   5.028  0.5976 -0.5179  0.2777
 8637TIP3    H225876   5.239   0.948   5.043  0.7083 -0.3719  0.8949
 8638TIP3   OH225877   5.201   1.821   0.104  0.7511  0.1106 -0.2064
 8638TIP3    H125878   5.248   1.751   0.147 -0.3688  0.1176  1.1217
 8638TIP3    H225879   5.159   1.869   0.176 -3.4188 -1.4533 -1.3061
 8639TIP3   OH225880   0.050   4.293   0.112  0.2025  0.1651 -0.6583
 8639TIP3    H125881   0.069   4.199   0.104 -1.5388 -0.3277  0.2113
 8639TIP3    H225882  -0.008   4.311   0.038  0.1936  0.4390 -0.5826
 8640TIP3   OH225883   2.662   3.146   5.348  0.0487 -0.0645 -0.1963
 8640TIP3    H125884   2.709   3.195   5.281  1.3223 -1.1961 -0.1757
 8640TIP3    H225885   2.633   3.066   5.303  0.9860 -0.8736  0.5854
 8641TIP3   OH225886   3.460   6.221   3.718  0.6580 -0.1204 -0.5981
 8641TIP3    H125887   3.406   6.299   3.710 -1.2765 -1.2195  0.8118
 8641TIP3    H225888   3.445   6.173   3.637 -0.3030 -0.2804 -0.3362
 8642TIP3   OH225889   3.397   3.970   3.716 -0.0617 -0.0234  0.5148
 8642TIP3    H125890   3.350   3.889   3.735  1.1030 -0.7189  0.5189
 8642TIP3    H225891   3.383   4.024   3.794  0.2776 -0.7650  1.1026
 8643TIP3   OH225892   3.295   2.349   3.632 -0.1244 -0.2033  0.0757
 8643TIP3    H125893   3.207   2.387   3.642 -0.4436 -0.8229 -0.3336
 8643TIP3    H225894   3.340   2.407   3.571 -0.1533  0.2697  0.4963
 8644TIP3   OH225895   3.249   2.601   1.886  0.4132  0.0831  0.1195
 8644TIP3    H125896   3.175   2.647   1.846  0.1251  0.6164  1.2051
 8644TIP3    H225897   3.316   2.668   1.896  1.0501 -0.3956 -0.8390
 8645TIP3   OH225898   3.546   5.501   5.579  0.2648 -0.1087 -0.6691
 8645TIP3    H125899   3.461   5.544   5.590 -0.3981 -0.9409 -2.2462
 8645TIP3    H225900   3.610   5.570   5.597 -0.7390  0.8155 -0.4973
 8646TIP3   OH225901   6.700   4.957   4.985  0.1351 -0.1958  0.2274
 8646TIP3    H125902   6.794   4.962   4.970  0.1882  0.5336  0.7222
 8646TIP3    H225903   6.687   4.999   5.070 -0.7522  0.7968 -0.3616
 8647TIP3   OH225904   2.450   2.029   2.250 -0.1644  0.3702 -0.3422
 8647TIP3    H125905   2.411   1.959   2.302  2.4954 -1.7970 -1.0233
 8647TIP3    H225906   2.405   2.025   2.166 -0.0637 -0.5230 -0.3580
 8648TIP3   OH225907   0.218   6.129   4.075  0.0989  0.2665 -0.4535
 8648TIP3    H125908   0.269   6.094   4.149 -1.9192 -1.4766  0.2331
 8648TIP3    H225909   0.276   6.119   3.999  0.5977 -2.2770  0.1664
 8649TIP3   OH225910   3.408   0.628   3.503  0.4674  0.3725 -0.2427
 8649TIP3    H125911   3.322   0.650   3.539 -0.5374 -3.7452  0.4389
 8649TIP3    H225912   3.460   0.600   3.579  0.9899 -0.9944 -1.0667
 8650TIP3   OH225913   5.738   3.454   1.466 -0.0655  0.4549 -0.6539
 8650TIP3    H125914   5.698   3.474   1.381  1.2368  2.6142 -0.8272
 8650TIP3    H225915   5.779   3.536   1.493  0.3102 -0.4273  1.6702
 8651TIP3   OH225916   5.937   0.556   3.353 -0.1029  0.0973  0.3758
 8651TIP3    H125917   5.874   0.617   3.315  0.6582  0.1559 -0.8838
 8651TIP3    H225918   5.956   0.494   3.282 -0.3729 -1.2257  1.4215
 8652TIP3   OH225919   0.790   1.121   3.475  0.1494  0.2748 -0.0188
 8652TIP3    H125920   0.739   1.109   3.555  2.1190 -1.9275  1.0395
 8652TIP3    H225921   0.868   1.168   3.504  0.0605  1.0558 -1.0223
 8653TIP3   OH225922   3.379   3.171   3.176  0.0775  0.1462  0.1247
 8653TIP3    H125923   3.380   3.079   3.150 -0.3067  0.2723 -0.3512
 8653TIP3    H225924   3.427   3.216   3.107  0.7001  0.2440  0.6132
 8654TIP3   OH225925   2.712   0.898   3.260  0.0059  0.6782 -0.0196
 8654TIP3    H125926   2.709   0.988   3.227  0.5190  0.4268 -0.7682
 8654TIP3    H225927   2.623   0.865   3.246  0.0186  0.8225 -0.4619
 8655TIP3   OH225928   2.283   4.152   4.221  0.0161  0.6309 -0.1681
 8655TIP3    H125929   2.324   4.110   4.145  1.6028  0.2260  0.8704
 8655TIP3    H225930   2.355   4.169   4.281 -1.3066  0.1373  1.6428
 8656TIP3   OH225931   0.406   1.964   5.113 -0.0483 -0.2647 -0.3592
 8656TIP3    H125932   0.446   1.978   5.199  0.1336 -1.4172 -0.2415
 8656TIP3    H225933   0.449   2.027   5.056 -0.0387  0.3905  0.3492
 8657TIP3   OH225934   5.841   4.605   4.166 -0.2754  0.7216 -0.1542
 8657TIP3    H125935   5.783   4.674   4.199 -0.6908 -0.1212  0.9678
 8657TIP3    H225936   5.826   4.531   4.226  2.8378  0.8570  0.9917
 8658TIP3   OH225937   1.248   3.611   3.443 -0.2449  0.5222  0.1178
 8658TIP3    H125938   1.333   3.588   3.481 -0.2387 -0.8213 -0.6381
 8658TIP3    H225939   1.187   3.547   3.481 -0.1050 -1.3623 -2.5780
 8659TIP3   OH225940   4.296   0.934   5.731  0.2925 -0.0699 -0.0597
 8659TIP3    H125941   4.209   0.954   5.696  0.6480  0.7536 -0.5017
 8659TIP3    H225942   4.355   0.944   5.656  0.4520 -3.7147 -0.5813
 8660TIP3   OH225943   2.927   6.106   2.483  0.5299 -0.1650  0.1974
 8660TIP3    H125944   2.994   6.050   2.443 -0.3539 -0.0557 -1.5377
 8660TIP3    H225945   2.951   6.194   2.456 -1.6584 -0.3185 -2.7198
 8661TIP3   OH225946   3.366   2.877   2.528  0.1056  0.0142 -0.2438
 8661TIP3    H125947   3.402   2.860   2.615 -1.2526 -1.0851  0.1281
 8661TIP3    H225948   3.406   2.960   2.502  1.8090 -0.4555  0.7115
 8662TIP3   OH225949   5.741   3.688   4.146 -0.5929 -0.2876  0.7901
 8662TIP3    H125950   5.726   3.645   4.062 -0.1442  0.6959  0.1826
 8662TIP3    H225951   5.684   3.766   4.143 -1.8628 -1.1085  2.1176
 8663TIP3   OH225952   1.259   6.767   5.181  0.0849 -0.4766 -0.4285
 8663TIP3    H125953   1.204   6.801   5.251 -2.7065 -3.1805 -1.0843
 8663TIP3    H225954   1.314   6.700   5.223  1.4453  0.7670 -0.1570
 8664TIP3   OH225955   1.776   4.412   2.837 -0.2482  0.0206 -0.6088
 8664TIP3    H125956   1.824   4.495   2.834 -0.5849  0.2465  0.0184
 8664TIP3    H225957   1.684   4.438   2.844 -0.5159 -0.4041 -2.1620
 8665TIP3   OH225958   5.131   2.087   0.723 -0.2765 -1.0610 -0.1607
 8665TIP3    H125959   5.142   2.137   0.643 -0.6870  0.6984  0.8184
 8665TIP3    H225960   5.057   2.028   0.706  0.9654 -2.2441 -1.7300
 8666TIP3   OH225961   4.473   1.050   1.998 -0.2628  0.3353  0.2724
 8666TIP3    H125962   4.413   1.084   2.063 -2.9903 -1.7056 -0.9999
 8666TIP3    H225963   4.421   0.988   1.947  2.7993 -1.1449 -1.3091
 8667TIP3   OH225964   5.444   2.400   1.914  0.6999 -0.1054 -0.1924
 8667TIP3    H125965   5.512   2.429   1.974  1.3838 -1.3146 -0.3510
 8667TIP3    H225966   5.366   2.391   1.968  0.7176  1.0277  0.0447
 8668TIP3   OH225967   6.071   5.503   4.340  0.2017  0.5653  0.0308
 8668TIP3    H125968   6.012   5.577   4.355  0.1005  0.7269 -1.0942
 8668TIP3    H225969   6.125   5.499   4.419  0.4969  2.1061 -0.0810
 8669TIP3   OH225970   0.387   1.953   3.400 -0.0057 -0.3025  0.3352
 8669TIP3    H125971   0.318   2.005   3.441  1.5815  1.0870  1.3584
 8669TIP3    H225972   0.398   1.992   3.314 -1.2951 -1.3399 -0.3550
 8670TIP3   OH225973   2.956   3.279   3.380  0.2125 -0.4187  0.0658
 8670TIP3    H125974   2.925   3.297   3.292  0.6366  2.4960  0.4207
 8670TIP3    H225975   3.046   3.309   3.381 -0.1540  0.7778  1.7921
 8671TIP3   OH225976   2.343   5.994   1.114 -0.1458  0.4443  0.2863
 8671TIP3    H125977   2.290   6.039   1.180 -0.0430  0.2933  0.4744
 8671TIP3    H225978   2.360   6.061   1.047  3.9111  2.2096  2.7081
 8672TIP3   OH225979   2.818   5.585   3.051  0.4587 -0.2695 -0.6645
 8672TIP3    H125980   2.874   5.508   3.060  1.5243  0.4290 -1.1693
 8672TIP3    H225981   2.833   5.636   3.131 -0.0336 -0.4392 -0.4590
 8673TIP3   OH225982   5.036   2.750   4.255  0.3485 -0.0672 -0.4217
 8673TIP3    H125983   4.965   2.787   4.308 -0.2164  0.6804 -1.6202
 8673TIP3    H225984   5.075   2.826   4.212  0.0985 -0.7130 -1.8593
 8674TIP3   OH225985   5.000   6.693   3.340  0.7661  0.3775  0.1058
 8674TIP3    H125986   4.964   6.781   3.353  2.7056  1.0443  1.4910
 8674TIP3    H225987   5.041   6.671   3.424 -2.1220 -3.1478  0.8365
 8675TIP3   OH225988   1.828   6.645   3.927 -0.0215  0.5442  0.2427
 8675TIP3    H125989   1.758   6.675   3.869 -0.1634 -0.4916 -0.1394
 8675TIP3    H225990   1.909   6.660   3.877 -0.2412 -1.9339 -1.0053
 8676TIP3   OH225991   5.434   2.880   2.157 -0.7063  0.1309  0.1397
 8676TIP3    H125992   5.480   2.884   2.241  1.5309 -0.5945 -0.9802
 8676TIP3    H225993   5.394   2.967   2.147 -2.5743 -0.3053  2.7026
 8677TIP3   OH225994   3.021   2.212   3.451 -0.2537  0.3715 -0.4298
 8677TIP3    H125995   3.082   2.278   3.419  0.3775 -0.3563 -0.7542
 8677TIP3    H225996   3.043   2.133   3.402 -1.6395  0.1574 -0.7382
 8678TIP3   OH225997   3.365   1.601   2.796  0.4654  0.3049  0.2359
 8678TIP3    H125998   3.433   1.646   2.745 -0.2570  2.4348  1.0126
 8678TIP3    H225999   3.318   1.548   2.732  1.1828  0.9066 -0.8291
 8679TIP3   OH226000   5.727   6.576   0.161  0.0262 -0.0610 -0.7223
 8679TIP3    H126001   5.693   6.658   0.196 -0.5014 -0.3451 -0.5513
 8679TIP3    H226002   5.748   6.596   0.070 -1.3785 -0.0617 -1.0813
 8680TIP3   OH226003   0.602   2.769   0.328  0.3139  0.1122  0.4055
 8680TIP3    H126004   0.574   2.755   0.418  2.0245 -0.5863  0.8523
 8680TIP3    H226005   0.600   2.864   0.316 -3.6336  0.1530 -0.1125
 8681TIP3   OH226006   1.774   5.548   3.035  0.3587  0.2350  0.1600
 8681TIP3    H126007   1.853   5.498   3.055  1.1023  1.1745 -0.3286
 8681TIP3    H226008   1.745   5.584   3.119 -0.4548 -1.3474  0.6004
 8682TIP3   OH226009   0.991   4.339   1.069 -0.7296 -0.4945 -0.1413
 8682TIP3    H126010   1.028   4.419   1.104  0.2334 -0.7965 -0.4458
 8682TIP3    H226011   0.902   4.363   1.042 -0.2712  0.5912 -0.7112
 8683TIP3   OH226012   5.158   1.138   2.929 -0.1823 -0.3534  0.0657
 8683TIP3    H126013   5.238   1.104   2.890 -0.3125  0.4770 -0.9701
 8683TIP3    H226014   5.166   1.233   2.923 -0.1797 -0.1568  2.1633
 8684TIP3   OH226015   6.872   1.674   3.598 -0.5408 -0.5948  0.1443
 8684TIP3    H126016   6.883   1.621   3.676 -0.7895 -1.2017 -0.2308
 8684TIP3    H226017   6.787   1.649   3.563 -0.2594 -0.6141 -0.5386
 8685TIP3   OH226018   6.668   4.753   2.008  0.1798  0.3124 -0.0348
 8685TIP3    H126019   6.665   4.696   2.085  0.0493 -2.0810 -1.7074
 8685TIP3    H226020   6.747   4.807   2.021  0.9319 -1.0054  1.1245
 8686TIP3   OH226021   2.671   3.195   3.303 -1.1110 -0.2135 -0.1423
 8686TIP3    H126022   2.719   3.264   3.256 -1.3320  0.4238  0.5560
 8686TIP3    H226023   2.636   3.239   3.381 -0.3686 -1.3545  0.8698
 8687TIP3   OH226024   1.003   5.666   5.661 -0.0962  0.0677 -0.5584
 8687TIP3    H126025   0.934   5.674   5.595  0.0658 -0.0981 -0.7503
 8687TIP3    H226026   1.004   5.573   5.683  0.0474  0.0742 -0.5370
 8688TIP3   OH226027   0.232   0.613   1.407 -0.2464 -0.4602 -0.1561
 8688TIP3    H126028   0.146   0.612   1.451  0.0194  1.0917  0.4965
 8688TIP3    H226029   0.213   0.590   1.316 -1.5424  0.8009 -0.2516
 8689TIP3   OH226030   4.588   4.443  -0.001  0.3387  0.2528 -0.0912
 8689TIP3    H126031   4.511   4.398   0.032  0.6637 -1.2970 -1.3530
 8689TIP3    H226032   4.654   4.431   0.068  0.3697 -1.0671 -0.3399
 8690TIP3   OH226033   5.602   0.448   4.180 -0.0558  0.1182  0.3545
 8690TIP3    H126034   5.556   0.520   4.138  2.5978  1.2852 -0.8142
 8690TIP3    H226035   5.688   0.447   4.138  0.3431 -3.2057  0.9302
 8691TIP3   OH226036   1.361   0.950   2.381 -0.1993 -0.1899 -0.6412
 8691TIP3    H126037   1.436   0.892   2.367 -0.7659 -0.7235 -1.5234
 8691TIP3    H226038   1.379   1.026   2.325  0.3829  0.3733  0.2684
 8692TIP3   OH226039   1.841   4.283   1.636 -0.0020 -0.5151 -0.0773
 8692TIP3    H126040   1.784   4.322   1.570 -1.2512 -1.5337  0.3497
 8692TIP3    H226041   1.826   4.335   1.715 -0.7829 -1.1119  0.1804
 8693TIP3   OH226042   0.416   1.681   0.922 -0.2939  0.2800 -0.3537
 8693TIP3    H126043   0.429   1.634   0.840  1.9564 -1.4807  0.8923
 8693TIP3    H226044   0.414   1.613   0.989 -0.4113  1.7527  1.2099
 8694TIP3   OH226045   3.240   1.907   1.924  0.3581  0.1135  0.3648
 8694TIP3    H126046   3.312   1.866   1.972  0.3943 -0.5069 -0.2036
 8694TIP3    H226047   3.163   1.889   1.977  0.4419 -0.2977  0.3505
 8695TIP3   OH226048   3.166   6.353   0.941 -0.1504 -0.0588 -0.1197
 8695TIP3    H126049   3.206   6.343   1.027  1.3175  0.7249 -0.6757
 8695TIP3    H226050   3.078   6.386   0.959  0.0937 -0.0145  1.0699
 8696TIP3   OH226051   5.003   1.149   2.169 -0.1340 -0.1103 -0.2094
 8696TIP3    H126052   4.915   1.125   2.142 -0.6383  1.9878 -0.5957
 8696TIP3    H226053   4.991   1.215   2.237  1.0343  1.8242 -1.7483
 8697TIP3   OH226054   7.067   0.811   5.415  0.4607 -0.7751 -0.4089
 8697TIP3    H126055   6.974   0.821   5.393  0.3163  0.9228  0.7987
 8697TIP3    H226056   7.097   0.739   5.358 -1.6161 -1.5168 -0.6664
 8698TIP3   OH226057   0.269   6.099   0.315  0.0643  0.7211  0.2673
 8698TIP3    H126058   0.300   6.099   0.225 -2.2468  1.7287 -0.6087
 8698TIP3    H226059   0.348   6.110   0.368  1.5339 -0.3864 -1.5679
 8699TIP3   OH226060   6.020   0.636   2.573  0.4651  0.1341 -0.5755
 8699TIP3    H126061   5.946   0.583   2.604  0.2605 -0.2852 -1.7337
 8699TIP3    H226062   5.981   0.697   2.511  1.0868 -0.1453 -1.2644
 8700TIP3   OH226063   4.621   4.527   1.480 -0.1245  0.7845  0.2349
 8700TIP3    H126064   4.635   4.611   1.435 -1.1184  0.8938  0.1189
 8700TIP3    H226065   4.529   4.507   1.467  0.5539 -1.5672 -1.8909
 8701TIP3   OH226066   5.698   6.316   3.061 -0.0687 -0.0542  0.4875
 8701TIP3    H126067   5.792   6.311   3.042 -0.0757  2.3043 -0.4809
 8701TIP3    H226068   5.671   6.225   3.073  1.7895 -1.0494 -2.0147
 8702TIP3   OH226069   2.426   5.487   4.567 -0.0833  0.2944 -0.0961
 8702TIP3    H126070   2.437   5.396   4.539 -1.3062  0.2258 -0.3868
 8702TIP3    H226071   2.362   5.524   4.507  1.3893  1.7731 -0.8431
 8703TIP3   OH226072   5.675   5.293   3.000  0.0189 -0.2407  0.3785
 8703TIP3    H126073   5.630   5.342   3.069 -0.3734 -0.9858  0.6644
 8703TIP3    H226074   5.605   5.265   2.941  0.1873 -0.7697  0.4212
 8704TIP3   OH226075   6.232   5.349   5.218 -0.3328  0.1502  0.0016
 8704TIP3    H126076   6.260   5.378   5.305  0.0761  0.1575 -0.1309
 8704TIP3    H226077   6.246   5.254   5.219  1.2039  0.3441 -0.6016
 8705TIP3   OH226078   3.684   6.023   3.584 -0.0892 -0.0464  0.2575
 8705TIP3    H126079   3.609   5.974   3.619  1.5096 -1.7538  1.5723
 8705TIP3    H226080   3.662   6.115   3.599 -2.4576 -0.4062 -0.6239
 8706TIP3   OH226081   4.021   1.843   4.021  0.2776  0.1788  0.6524
 8706TIP3    H126082   4.000   1.831   4.114  2.0885 -1.8129  0.8933
 8706TIP3    H226083   4.114   1.866   4.020  0.8620 -1.9506 -0.6865
 8707TIP3   OH226084   5.935   2.879   1.816 -0.0917 -0.1088  0.5078
 8707TIP3    H126085   5.949   2.968   1.784 -1.1703 -0.4863 -1.1509
 8707TIP3    H226086   5.903   2.890   1.905  1.1951  1.0903  0.8563
 8708TIP3   OH226087   1.124   0.307   4.520  0.3068  0.0290 -0.1350
 8708TIP3    H126088   1.174   0.362   4.459  1.0309 -0.8323 -0.3464
 8708TIP3    H226089   1.130   0.219   4.483 -1.1944 -0.1378 -0.0339
 8709TIP3   OH226090   1.239   5.144   0.940 -0.1779  0.3254 -0.1456
 8709TIP3    H126091   1.276   5.188   1.017 -1.6274  1.7310 -0.1998
 8709TIP3    H226092   1.169   5.089   0.976 -0.9648  1.1093 -0.4578
 8710TIP3   OH226093   1.039   1.985   4.828  0.1238  0.1638 -0.4379
 8710TIP3    H126094   1.037   2.080   4.815 -1.4532  0.0872 -1.0150
 8710TIP3    H226095   1.048   1.949   4.740 -2.2311 -0.2235 -0.5988
 8711TIP3   OH226096   7.006   3.277   1.401 -0.3788 -0.3148  0.4387
 8711TIP3    H126097   6.945   3.350   1.408  0.5383  0.6529 -0.9627
 8711TIP3    H226098   6.953   3.199   1.413 -1.8475  0.5053 -0.4439
 8712TIP3   OH226099   0.054   2.563   5.825 -0.2883 -0.3400 -0.3832
 8712TIP3    H126100   0.031   2.586   5.915 -0.0907 -1.4896 -0.0176
 8712TIP3    H226101   0.109   2.485   5.834 -0.8119 -0.8676 -1.5357
 8713TIP3   OH226102   4.921   5.115   4.782 -0.8358 -0.4463  0.4289
 8713TIP3    H126103   4.889   5.039   4.732 -3.1528  0.2518  0.7292
 8713TIP3    H226104   4.946   5.078   4.867  0.6641 -1.2388 -0.3079
 8714TIP3   OH226105   5.859   1.488   4.948  0.1165  0.4817 -0.5010
 8714TIP3    H126106   5.903   1.504   5.031 -0.6618  1.9679 -0.3405
 8714TIP3    H226107   5.912   1.535   4.884  0.0378  0.3682 -0.6496
 8715TIP3   OH226108   1.750   5.202   5.118  0.8313  0.4162 -0.1203
 8715TIP3    H126109   1.726   5.253   5.041  0.5423 -0.1832 -0.4300
 8715TIP3    H226110   1.692   5.233   5.187  1.5627  1.4536  0.0488
 8716TIP3   OH226111   3.821   1.045   5.460  0.3287  0.1794 -0.2571
 8716TIP3    H126112   3.793   1.120   5.408 -0.4363  1.4498  1.8754
 8716TIP3    H226113   3.743   1.019   5.509  0.2374 -2.8085 -1.7610
 8717TIP3   OH226114   2.491   5.547   4.839  0.1539  0.2170  0.5615
 8717TIP3    H126115   2.516   5.457   4.858  0.0078 -0.0684 -0.5811
 8717TIP3    H226116   2.475   5.549   4.745 -0.2944  1.3282  0.6463
 8718TIP3   OH226117   6.581   0.498   3.555  0.7933  0.5994  0.2358
 8718TIP3    H126118   6.568   0.411   3.593  1.3493 -0.0505 -1.0043
 8718TIP3    H226119   6.503   0.512   3.501  0.0407  1.4879  1.4833
 8719TIP3   OH226120   3.160   4.269   0.065  0.0691  0.5422 -0.0871
 8719TIP3    H126121   3.153   4.337  -0.001  1.7761 -0.5657 -1.4948
 8719TIP3    H226122   3.161   4.187   0.016  0.7242 -0.3493  1.3345
 8720TIP3   OH226123   3.483   2.481   4.465 -0.0582 -0.0717 -0.7798
 8720TIP3    H126124   3.422   2.442   4.527  0.5629  0.4995  0.2130
 8720TIP3    H226125   3.569   2.470   4.505  0.5042 -0.7535 -2.0982
 8721TIP3   OH226126   7.167   6.235   4.371 -0.2146  0.1566  0.2103
 8721TIP3    H126127   7.249   6.282   4.356 -0.2327  0.1481  0.0811
 8721TIP3    H226128   7.115   6.253   4.293 -0.4792  0.4622  0.4554
 8722TIP3   OH226129   1.241   2.290   4.070  0.1744  0.2728 -0.4067
 8722TIP3    H126130   1.206   2.379   4.072 -0.5241  0.0499  3.2059
 8722TIP3    H226131   1.170   2.237   4.034 -0.5189  0.8092  0.1339
 8723TIP3   OH226132   6.005   0.812   3.725 -0.1850 -0.2759 -0.6866
 8723TIP3    H126133   5.961   0.732   3.695  0.1240 -0.9787  0.6483
 8723TIP3    H226134   6.076   0.825   3.663  2.5034 -3.5346  1.3580
 8724TIP3   OH226135   2.604   0.674   2.211  0.0064  0.8993 -0.1195
 8724TIP3    H126136   2.689   0.718   2.217  0.2718  0.3288  0.4060
 8724TIP3    H226137   2.613   0.596   2.266 -0.9903  1.0437  0.2724
 8725TIP3   OH226138   3.697   6.138   5.473 -0.1159 -0.3550  0.8165
 8725TIP3    H126139   3.623   6.083   5.498 -1.3092  1.0860  0.6255
 8725TIP3    H226140   3.710   6.120   5.380 -0.7557 -0.0549  0.6603
 8726TIP3   OH226141   0.860   0.219   2.384 -0.1455  0.0103 -0.3237
 8726TIP3    H126142   0.911   0.224   2.465  0.5293  1.5850 -0.7997
 8726TIP3    H226143   0.923   0.193   2.317 -1.1668 -3.8273 -0.0557
 8727TIP3   OH226144   4.174   0.507   3.316 -0.4924 -0.2846 -0.1388
 8727TIP3    H126145   4.270   0.506   3.313 -0.2446  1.3126  3.0665
 8727TIP3    H226146   4.152   0.590   3.360 -3.3142 -0.9204 -0.1668
 8728TIP3   OH226147   6.671   1.174   1.977 -0.2415 -0.0305 -0.3803
 8728TIP3    H126148   6.619   1.110   1.929  0.2267 -0.1477 -0.7417
 8728TIP3    H226149   6.736   1.122   2.024  0.0041  0.1565 -0.5064
 8729TIP3   OH226150   0.033   2.702   3.211  0.0462 -0.5466  0.0731
 8729TIP3    H126151   0.055   2.731   3.123  0.3726 -1.1909 -0.0643
 8729TIP3    H226152   0.117   2.699   3.258 -0.1497 -0.0139  0.4670
 8730TIP3   OH226153   7.174   4.831   4.341 -0.1002  0.3224  0.0854
 8730TIP3    H126154   7.096   4.844   4.393 -0.7067 -2.3741  0.0262
 8730TIP3    H226155   7.142   4.827   4.250 -0.2336 -2.3159  0.1723
 8731TIP3   OH226156   1.377   0.694   4.265 -0.0957 -0.1442  0.4327
 8731TIP3    H126157   1.368   0.615   4.212 -0.0327  1.6880 -2.5525
 8731TIP3    H226158   1.444   0.746   4.220  1.7516  0.6066  3.7092
 8732TIP3   OH226159   0.127   6.077   2.202 -0.3780  0.2943 -0.3531
 8732TIP3    H126160   0.180   6.027   2.264  0.9830  1.1672 -0.7655
 8732TIP3    H226161   0.155   6.046   2.116 -0.1650  1.1188 -0.5906
 8733TIP3   OH226162   4.337   3.770   0.575 -0.2461  0.3761 -0.8139
 8733TIP3    H126163   4.267   3.704   0.576 -0.2453  0.3788 -0.5074
 8733TIP3    H226164   4.380   3.758   0.490 -0.8594  0.6314 -1.1671
 8734TIP3   OH226165   0.690   5.736   0.081 -0.0543 -0.2792  0.0835
 8734TIP3    H126166   0.700   5.641   0.086 -0.1806 -0.4454 -1.8769
 8734TIP3    H226167   0.769   5.766   0.036 -0.9172  0.2888 -1.0917
 8735TIP3   OH226168   4.511   3.938   0.304  0.2899 -0.5344  0.0310
 8735TIP3    H126169   4.541   3.848   0.318 -0.1662 -0.7758 -0.4771
 8735TIP3    H226170   4.590   3.986   0.279  0.4105 -0.9607 -0.4253
 8736TIP3   OH226171   0.965   1.162   3.031  0.0676 -0.1903  0.1505
 8736TIP3    H126172   0.878   1.124   3.019 -0.7594  1.6107  0.0920
 8736TIP3    H226173   0.986   1.145   3.123 -0.8187  0.2761  0.4500
 8737TIP3   OH226174   0.190   5.023   4.248 -0.2872  0.0214  0.1765
 8737TIP3    H126175   0.155   4.958   4.187 -1.6652  0.2967  0.6340
 8737TIP3    H226176   0.122   5.032   4.315  0.7018  0.5516  1.1502
 8738TIP3   OH226177   0.846   5.020   2.802 -0.1282  0.4054 -0.3694
 8738TIP3    H126178   0.837   5.096   2.744  2.2544  1.5826  0.6220
 8738TIP3    H226179   0.929   5.035   2.847  0.3004 -2.6928  0.0952
 8739TIP3   OH226180   3.944   4.004   0.693 -0.1539 -0.1301 -0.3295
 8739TIP3    H126181   3.941   3.926   0.749 -1.8973  0.9456  1.2025
 8739TIP3    H226182   3.908   3.974   0.610 -1.8748 -0.7879  0.5805
 8740TIP3   OH226183   4.087  -0.009   3.707 -0.3259  0.0942  0.2078
 8740TIP3    H126184   4.156   0.051   3.738 -0.6544  0.9880 -0.7102
 8740TIP3    H226185   4.111  -0.027   3.616 -0.0865 -1.4201  0.5468
 8741TIP3   OH226186   4.015   6.594   0.394  0.0043 -0.2832 -0.6039
 8741TIP3    H126187   4.031   6.514   0.445  1.2483  0.6826  0.5891
 8741TIP3    H226188   3.984   6.657   0.459 -0.4920  0.3547 -1.4467
 8742TIP3   OH226189   5.434   1.067   4.294  0.3926  0.2246  0.0301
 8742TIP3    H126190   5.383   1.076   4.213  0.6886  0.8233 -0.0960
 8742TIP3    H226191   5.372   1.031   4.357 -0.5550  2.0449  0.2178
 8743TIP3   OH226192   3.792   0.163   3.965  0.7264 -0.0208  0.0477
 8743TIP3    H126193   3.838   0.092   3.919  1.2464  0.0285  0.4731
 8743TIP3    H226194   3.782   0.231   3.899 -3.4600 -1.9241 -1.6572
 8744TIP3   OH226195   0.926   4.285   4.867 -0.3892 -0.4160  0.4242
 8744TIP3    H126196   0.990   4.344   4.909 -1.5518 -0.1168  1.8472
 8744TIP3    H226197   0.859   4.271   4.934 -1.9078 -0.6027 -1.0821
 8745TIP3   OH226198   2.649   3.668   4.514  0.1631 -0.2276  0.2993
 8745TIP3    H126199   2.562   3.666   4.555  0.7296  1.1426  1.7074
 8745TIP3    H226200   2.643   3.738   4.449  0.0371 -0.5519 -0.0383
 8746TIP3   OH226201   0.662   5.143   1.667  0.1647  0.0472 -0.1953
 8746TIP3    H126202   0.623   5.179   1.746 -0.5049  0.1260 -0.5521
 8746TIP3    H226203   0.594   5.154   1.600  1.5578  2.1618 -1.3630
 8747TIP3   OH226204   4.898   0.577   4.067  0.2469  0.1040  0.0218
 8747TIP3    H126205   4.819   0.582   4.121 -0.3576 -1.3969 -0.6533
 8747TIP3    H226206   4.905   0.484   4.044  2.0810  0.2483 -0.1369
 8748TIP3   OH226207   1.190   1.354   3.153 -0.5177  0.4431 -0.1895
 8748TIP3    H126208   1.132   1.283   3.179  0.2684 -0.2348 -0.2457
 8748TIP3    H226209   1.139   1.405   3.090 -2.2043  1.7402  2.0859
 8749TIP3   OH226210   3.570   0.790   1.492  0.1883  0.6240  0.7607
 8749TIP3    H126211   3.614   0.789   1.577  1.6754  0.5770  0.0240
 8749TIP3    H226212   3.632   0.834   1.434 -1.1458  1.4037 -0.1300
 8750TIP3   OH226213   4.504   0.730   3.225 -0.0068 -0.4310  0.0165
 8750TIP3    H126214   4.425   0.783   3.237 -0.5493 -1.3919  0.8347
 8750TIP3    H226215   4.476   0.641   3.247  1.6262 -0.5886  1.7138
 8751TIP3   OH226216   3.756   1.908   3.910 -0.0556  0.4633 -0.6939
 8751TIP3    H126217   3.832   1.853   3.929 -0.0332  0.7746  0.1232
 8751TIP3    H226218   3.790   1.976   3.852 -0.1879 -0.6481 -2.1529
 8752TIP3   OH226219   1.917   1.276   1.624  0.5630  0.2925  0.8019
 8752TIP3    H126220   1.884   1.255   1.536 -1.4339 -0.7661  1.7384
 8752TIP3    H226221   1.961   1.196   1.653 -0.9976 -0.2716  1.7077
 8753TIP3   OH226222   1.737   2.556   2.223 -0.0589 -0.1007  0.7277
 8753TIP3    H126223   1.827   2.584   2.207  0.3196 -0.6004  1.8644
 8753TIP3    H226224   1.746   2.466   2.257 -1.0882 -0.7481 -0.6236
 8754TIP3   OH226225   6.465   1.186   1.641 -0.0592  0.5200  0.3880
 8754TIP3    H126226   6.546   1.233   1.662 -0.2414  0.7556  0.5779
 8754TIP3    H226227   6.414   1.249   1.589 -0.2098  0.4530  0.4531
 8755TIP3   OH226228   3.752   4.406   0.510  0.1441 -0.4140 -0.1903
 8755TIP3    H126229   3.714   4.321   0.488  0.5363 -0.8271  0.6657
 8755TIP3    H226230   3.677   4.462   0.528 -0.2257  0.0650 -2.8445
 8756TIP3   OH226231   0.259   4.825   1.185  0.2615 -0.0881  0.0474
 8756TIP3    H126232   0.310   4.906   1.180 -0.7172  0.5056 -0.6631
 8756TIP3    H226233   0.300   4.767   1.121 -0.3480  0.6331 -1.0348
 8757TIP3   OH226234   1.378   4.893   3.475  0.7560  0.2245 -0.1903
 8757TIP3    H126235   1.426   4.823   3.519 -0.8932 -1.9658 -1.6687
 8757TIP3    H226236   1.445   4.944   3.430  1.8286 -2.4164 -1.7922
 8758TIP3   OH226237   3.197   3.541   4.151 -0.0520  0.0905  0.4571
 8758TIP3    H126238   3.211   3.626   4.191  0.8215 -0.3599  1.1511
 8758TIP3    H226239   3.240   3.546   4.066 -0.1581  0.3929  0.4223
 8759TIP3   OH226240   2.875   0.740   2.281 -0.1576 -0.1319 -0.4634
 8759TIP3    H126241   2.877   0.811   2.346 -1.5062 -0.6443  0.1729
 8759TIP3    H226242   2.914   0.665   2.327 -0.4724 -0.3073 -0.4816
 8760TIP3   OH226243   5.077   3.515   5.665 -0.4641 -0.4893  0.0173
 8760TIP3    H126244   5.068   3.436   5.612  1.6653 -0.1113 -1.0140
 8760TIP3    H226245   5.125   3.487   5.743  0.8250 -0.1766 -0.6218
 8761TIP3   OH226246   4.110   2.471   4.058 -0.0309  0.4949  0.0533
 8761TIP3    H126247   4.183   2.412   4.076  0.2048  1.2818  1.9073
 8761TIP3    H226248   4.152   2.553   4.031 -0.3268  0.1469 -1.5216
 8762TIP3   OH226249   6.943   6.780   5.257  0.2002  0.0852  0.5082
 8762TIP3    H126250   7.032   6.749   5.274  0.0318 -0.0024  1.2436
 8762TIP3    H226251   6.947   6.874   5.274  0.5533  0.3800 -1.0937
 8763TIP3   OH226252   2.276   2.282   4.169  0.4887 -0.3567  0.2171
 8763TIP3    H126253   2.183   2.274   4.148  0.8770  0.6622 -2.2443
 8763TIP3    H226254   2.319   2.214   4.117  1.1385 -0.8664  1.3777
 8764TIP3   OH226255   4.738   0.405   5.403 -0.0105  0.3855 -0.1649
 8764TIP3    H126256   4.758   0.454   5.324  1.3136 -1.4152 -1.0143
 8764TIP3    H226257   4.756   0.314   5.381 -3.3378 -0.7133  1.0173
 8765TIP3   OH226258   6.983   2.882   0.048  0.2234  0.3350  0.4860
 8765TIP3    H126259   7.046   2.882  -0.024 -0.5143  0.8228 -0.1733
 8765TIP3    H226260   7.020   2.943   0.112  0.4607  0.5640  0.1346
 8766TIP3   OH226261   6.331   4.131   5.737  0.4228  0.0360  0.9634
 8766TIP3    H126262   6.291   4.047   5.714  0.2609  0.0440  1.2117
 8766TIP3    H226263   6.396   4.146   5.669 -1.0416  0.7685 -0.3603
 8767TIP3   OH226264   0.760   3.251   2.125 -0.4614  0.4164 -0.4523
 8767TIP3    H126265   0.791   3.270   2.037 -0.0664 -2.0431 -0.9083
 8767TIP3    H226266   0.780   3.159   2.139 -1.6540  0.4072  1.7513
 8768TIP3   OH226267   2.609   2.623   2.338  0.8153  0.0445  0.3053
 8768TIP3    H126268   2.620   2.669   2.421  0.9800 -0.7470  0.7326
 8768TIP3    H226269   2.571   2.539   2.363  0.7163 -0.1334 -0.4422
 8769TIP3   OH226270   6.546   1.666   3.300 -0.0717 -0.0543  0.2901
 8769TIP3    H126271   6.608   1.633   3.365 -1.0789 -1.4312  0.6246
 8769TIP3    H226272   6.599   1.715   3.237  1.4863 -1.8697  0.1033
 8770TIP3   OH226273   6.684   5.519   2.697  0.0026  0.1801 -0.1836
 8770TIP3    H126274   6.698   5.599   2.645 -1.1375  1.4117  1.2779
 8770TIP3    H226275   6.732   5.451   2.650 -0.9536  1.1833 -2.8505
 8771TIP3   OH226276   3.179   0.209   0.743 -0.3862 -0.1526 -0.2822
 8771TIP3    H126277   3.161   0.299   0.716  0.1229  0.1884  0.5011
 8771TIP3    H226278   3.119   0.156   0.690  0.7001  0.4687 -2.2400
 8772TIP3   OH226279   0.263   2.830   3.080 -0.1439 -0.2061 -0.4982
 8772TIP3    H126280   0.323   2.902   3.101  0.5086 -0.9137  0.1297
 8772TIP3    H226281   0.246   2.839   2.986  2.8992 -1.4055 -1.2837
 8773TIP3   OH226282   6.454   0.759   5.454 -0.3148  0.1399  0.7016
 8773TIP3    H126283   6.469   0.692   5.387  1.1436  0.5912  0.5484
 8773TIP3    H226284   6.499   0.725   5.532  1.0946  1.2446  0.4118
 8774TIP3   OH226285   5.472   3.267   0.466  0.3835 -0.5786  0.4812
 8774TIP3    H126286   5.481   3.257   0.560  2.9226 -2.2866  0.1747
 8774TIP3    H226287   5.500   3.182   0.430  0.7291  0.4292 -1.8362
 8775TIP3   OH226288   5.035   3.124   2.247  0.4360  0.3482  0.2491
 8775TIP3    H126289   4.944   3.122   2.275  0.4968  0.1340  0.4286
 8775TIP3    H226290   5.070   3.038   2.269  0.9795  0.7858  1.1605
 8776TIP3   OH226291   3.980   1.817   5.227  0.2982 -0.1511  0.1105
 8776TIP3    H126292   4.057   1.788   5.178  0.5470 -0.3283  0.5972
 8776TIP3    H226293   4.005   1.807   5.319 -0.3968 -0.4306  0.2727
 8777TIP3   OH226294   2.570   3.512   1.330  0.0153 -0.1544 -0.3807
 8777TIP3    H126295   2.509   3.578   1.295 -1.3218 -0.1023  1.8661
 8777TIP3    H226296   2.592   3.457   1.254 -1.2197  1.0696 -1.6794
 8778TIP3   OH226297   6.183   1.567   2.114 -0.5368 -0.2636  0.1542
 8778TIP3    H126298   6.097   1.543   2.079 -0.7217  0.8447 -0.1849
 8778TIP3    H226299   6.191   1.660   2.095  1.1077 -0.5311 -0.5728
 8779TIP3   OH226300   6.652   4.565   4.078 -0.2295  0.2506 -0.2470
 8779TIP3    H126301   6.682   4.477   4.103  0.3034  0.0503 -1.5066
 8779TIP3    H226302   6.558   4.565   4.097 -0.3080 -0.7316 -0.5771
 8780TIP3   OH226303   4.064   3.732   2.741  0.0901  0.4241 -0.3609
 8780TIP3    H126304   4.070   3.803   2.805 -1.1548 -0.2034  0.4876
 8780TIP3    H226305   3.975   3.697   2.752 -0.7817  1.3204 -3.5341
 8781TIP3   OH226306   2.106   3.652   3.261 -0.2999  0.3349 -0.1610
 8781TIP3    H126307   2.157   3.731   3.246  0.0742  0.1354  0.0505
 8781TIP3    H226308   2.142   3.614   3.341 -0.2736 -0.2097 -0.4217
 8782TIP3   OH226309   5.798   5.384   2.380 -0.0741 -0.1179 -0.0631
 8782TIP3    H126310   5.893   5.393   2.372 -0.3354  3.7934 -0.8723
 8782TIP3    H226311   5.771   5.349   2.296  0.6858 -3.3766  0.9146
 8783TIP3   OH226312   0.825   5.320   1.309 -0.5644  0.1814  0.5937
 8783TIP3    H126313   0.886   5.392   1.323  0.1655 -0.2367 -0.2967
 8783TIP3    H226314   0.852   5.282   1.225  0.3332 -2.3621  1.9255
 8784TIP3   OH226315   4.967   3.988   1.452 -0.5963 -0.0936 -0.0796
 8784TIP3    H126316   4.887   3.941   1.427 -0.9022  0.4472 -0.1288
 8784TIP3    H226317   4.941   4.043   1.526 -0.8958  1.8652 -1.5497
 8785TIP3   OH226318   1.871   4.233   0.763 -0.4455 -0.7396  0.5812
 8785TIP3    H126319   1.910   4.178   0.832  0.3244 -1.8007 -0.6596
 8785TIP3    H226320   1.945   4.279   0.725 -1.0045  0.6801  1.1360
 8786TIP3   OH226321   6.898   3.784   0.971 -0.3643  0.0098  0.0301
 8786TIP3    H126322   6.843   3.713   1.004 -0.7304  0.4606  0.3952
 8786TIP3    H226323   6.964   3.797   1.038  0.3799 -0.7251 -0.5376
 8787TIP3   OH226324   6.307   4.237   1.636  0.2222  0.0868  0.1092
 8787TIP3    H126325   6.274   4.150   1.662  0.9714 -0.4180 -0.5731
 8787TIP3    H226326   6.327   4.280   1.718  0.3990 -0.6195  0.4477
 8788TIP3   OH226327   0.067   2.450   2.729 -0.2803  0.0350 -0.0891
 8788TIP3    H126328   0.052   2.537   2.692  0.3965 -0.3967 -1.4554
 8788TIP3    H226329   0.063   2.463   2.824 -0.8593  1.4195 -0.2847
 8789TIP3   OH226330   6.537   0.594   1.739  0.2519  0.8846 -0.0938
 8789TIP3    H126331   6.624   0.634   1.746 -0.5372  2.9410 -1.1449
 8789TIP3    H226332   6.505   0.589   1.829  1.5880 -0.2533  0.3389
 8790TIP3   OH226333   4.266   6.468   5.536  0.2027  0.3857  0.2370
 8790TIP3    H126334   4.329   6.486   5.466 -0.5230 -1.1214 -0.8719
 8790TIP3    H226335   4.280   6.376   5.557 -0.5448  0.4611  1.1101
 8791TIP3   OH226336   1.977   6.798   5.568 -0.4328 -0.5067  0.3686
 8791TIP3    H126337   1.972   6.870   5.632  0.2020 -0.6278  0.5726
 8791TIP3    H226338   2.043   6.739   5.605 -0.6941 -1.0159  0.0267
 8792TIP3   OH226339   4.159   5.536   3.691 -0.1805 -0.1693 -0.5800
 8792TIP3    H126340   4.235   5.478   3.697  0.4373  0.6784  0.3369
 8792TIP3    H226341   4.110   5.520   3.772  0.9569  1.7839  0.5957
 8793TIP3   OH226342   3.087   0.199   5.059  0.4648 -0.1780 -0.0915
 8793TIP3    H126343   3.069   0.268   4.994  1.0809  0.5426  0.4794
 8793TIP3    H226344   3.029   0.127   5.035 -0.7138  0.8069 -0.2861
 8794TIP3   OH226345   4.605   5.785   0.685 -0.0572 -1.0845 -0.2998
 8794TIP3    H126346   4.651   5.707   0.654 -0.0185 -1.3992  0.5207
 8794TIP3    H226347   4.552   5.754   0.758  0.2295 -0.2840  0.2664
 8795TIP3   OH226348   0.551   2.847   3.604  0.2012 -0.0344  0.4338
 8795TIP3    H126349   0.544   2.931   3.558 -0.7747 -0.3250  0.0293
 8795TIP3    H226350   0.539   2.870   3.696  1.4344  0.4533  0.4950
 8796TIP3   OH226351   5.562   6.411   3.391 -0.3572  0.1018  0.4031
 8796TIP3    H126352   5.467   6.422   3.393 -0.4265 -0.0454 -0.9838
 8796TIP3    H226353   5.593   6.478   3.330  0.1446 -1.4462 -1.1092
 8797TIP3   OH226354   5.121   3.500   3.887 -0.1694 -0.1240 -0.4430
 8797TIP3    H126355   5.061   3.542   3.949  2.0347  0.0499  1.7450
 8797TIP3    H226356   5.143   3.416   3.928  0.9539 -0.2484 -1.2421
 8798TIP3   OH226357   5.379   0.009   5.337 -0.3627 -0.4094 -0.3414
 8798TIP3    H126358   5.388   0.014   5.241 -0.6201  2.0311 -0.3045
 8798TIP3    H226359   5.469   0.018   5.369 -0.5819  2.8452 -0.3531
 8799TIP3   OH226360   6.037   3.195   5.089 -0.6850  0.2244  0.0795
 8799TIP3    H126361   6.110   3.146   5.052  0.1446  1.4539  0.0386
 8799TIP3    H226362   6.042   3.281   5.046  0.1005  1.5909  2.7100
 8800TIP3   OH226363   6.381   3.034   0.105 -0.3824 -0.0356 -0.4431
 8800TIP3    H126364   6.395   2.965   0.170  1.5598  0.3456 -0.3741
 8800TIP3    H226365   6.466   3.041   0.060 -0.1565  2.9658  0.2432
 8801TIP3   OH226366   1.977   4.020   0.932  0.0010  0.3795  0.4092
 8801TIP3    H126367   1.939   3.932   0.929 -0.6213  0.6618 -0.0739
 8801TIP3    H226368   2.020   4.024   1.018  1.1258 -0.8357 -0.0475
 8802TIP3   OH226369   0.007   4.496   1.249 -0.2185 -1.0625  0.3973
 8802TIP3    H126370   0.044   4.497   1.337 -0.1717  1.3032  0.4156
 8802TIP3    H226371   0.082   4.507   1.191 -0.5233  0.5426  0.2650
 8803TIP3   OH226372   5.674   1.185   5.066 -0.0296  0.6999 -0.1839
 8803TIP3    H126373   5.603   1.225   5.015 -0.4039  1.1985  0.7185
 8803TIP3    H226374   5.631   1.123   5.124  0.4168 -0.0059 -0.5954
 8804TIP3   OH226375   2.454   0.354   2.447 -0.7231  0.0644  0.3939
 8804TIP3    H126376   2.437   0.281   2.387 -0.1332 -0.3569  0.7289
 8804TIP3    H226377   2.368   0.376   2.482 -0.9309 -0.3775  0.1795
 8805TIP3   OH226378   2.174   5.854   2.234 -0.1909 -0.5596 -0.4462
 8805TIP3    H126379   2.138   5.805   2.307  1.1044  0.7785  1.1789
 8805TIP3    H226380   2.107   5.848   2.166 -2.5131  0.0217  1.6236
 8806TIP3   OH226381   2.075   0.930   2.388 -0.0037 -0.2429  0.5270
 8806TIP3    H126382   2.014   1.003   2.378  0.6794  0.2574 -0.1627
 8806TIP3    H226383   2.094   0.903   2.298 -0.5846 -1.5753  0.7818
 8807TIP3   OH226384   1.530   1.977   1.839  0.6225 -0.2321  0.4884
 8807TIP3    H126385   1.504   2.069   1.851  0.1561 -0.1962 -0.6742
 8807TIP3    H226386   1.502   1.956   1.750  0.0410 -1.7438  1.0072
 8808TIP3   OH226387   4.328   1.414   2.042  0.1328 -0.3064  0.3228
 8808TIP3    H126388   4.283   1.342   2.085  2.1158 -1.1477  1.1099
 8808TIP3    H226389   4.323   1.486   2.105 -1.0181 -0.0353 -0.0586
 8809TIP3   OH226390   4.480   6.508   1.335  0.1598 -0.8218 -0.1203
 8809TIP3    H126391   4.400   6.478   1.377  1.1558 -3.2420  0.2098
 8809TIP3    H226392   4.550   6.464   1.383  1.7612  1.5470 -0.1140
 8810TIP3   OH226393   4.904   1.475   3.506  0.2737 -0.2943  0.6100
 8810TIP3    H126394   4.934   1.419   3.434  2.0763  0.1403  0.9914
 8810TIP3    H226395   4.835   1.423   3.548 -1.8058 -0.0388 -2.1328
 8811TIP3   OH226396   2.212   6.060   2.576  0.0728 -0.0761 -0.6834
 8811TIP3    H126397   2.253   6.081   2.492  0.3953 -0.0823 -0.5307
 8811TIP3    H226398   2.137   6.005   2.553 -1.2370  1.8337 -1.1514
 8812TIP3   OH226399   2.885   4.209   4.325  0.0172 -0.2747  0.2742
 8812TIP3    H126400   2.878   4.166   4.411  0.2738  0.8381  0.8766
 8812TIP3    H226401   2.956   4.164   4.282 -0.6854 -1.4314  0.2877
 8813TIP3   OH226402   6.656   5.131   1.895 -0.1244 -0.0407  0.2439
 8813TIP3    H126403   6.635   5.150   1.986  1.6306 -1.3082  0.9807
 8813TIP3    H226404   6.719   5.059   1.900  1.0727  0.7643 -1.8981
 8814TIP3   OH226405   2.578   5.896   1.249 -0.3007 -0.5143  0.5299
 8814TIP3    H126406   2.509   5.910   1.185  0.8789 -2.3269 -1.2436
 8814TIP3    H226407   2.542   5.831   1.309 -0.5105 -0.6630  0.2442
 8815TIP3   OH226408   2.609   2.530   0.163 -0.1797 -0.1553 -0.3189
 8815TIP3    H126409   2.534   2.479   0.131  0.0963 -0.8018  0.0406
 8815TIP3    H226410   2.594   2.618   0.130 -0.2096 -0.6598 -1.7141
 8816TIP3   OH226411   1.704   2.695   4.347  0.1761 -0.4149  0.0873
 8816TIP3    H126412   1.701   2.648   4.263 -0.6323  0.1179 -0.1949
 8816TIP3    H226413   1.791   2.736   4.348  0.3527 -0.7690 -0.2987
 8817TIP3   OH226414   4.850   0.647   2.857 -0.1792 -0.0709 -0.7397
 8817TIP3    H126415   4.908   0.636   2.781  0.1724 -0.2233 -0.4524
 8817TIP3    H226416   4.891   0.594   2.926 -0.6125 -0.1066 -0.5068
 8818TIP3   OH226417   5.449   4.654   4.787  0.1785  0.2512  0.0634
 8818TIP3    H126418   5.488   4.645   4.874 -0.1872  1.4223  0.3607
 8818TIP3    H226419   5.492   4.586   4.735 -1.0065 -1.7938  1.6198
 8819TIP3   OH226420   3.968   5.810   2.111  0.2496 -0.0978  0.8201
 8819TIP3    H126421   3.879   5.790   2.141  0.1868  0.1761  0.8148
 8819TIP3    H226422   3.959   5.824   2.016  0.5511 -1.6027  0.5374
 8820TIP3   OH226423   5.514   1.507   5.098 -0.1588  0.2516 -0.2138
 8820TIP3    H126424   5.442   1.497   5.160  1.0319 -0.9012  1.0704
 8820TIP3    H226425   5.592   1.511   5.153  0.9026 -0.3165 -1.6179
 8821TIP3   OH226426   6.272   3.314   0.166 -0.5751  0.4099  0.0751
 8821TIP3    H126427   6.300   3.223   0.155 -0.3511  0.5168 -0.2488
 8821TIP3    H226428   6.328   3.348   0.236  0.5341  0.7969 -0.9663
 8822TIP3   OH226429   0.292   4.884   4.909  0.2731  1.1630 -0.7675
 8822TIP3    H126430   0.242   4.898   4.829 -0.0936 -3.7138 -1.6458
 8822TIP3    H226431   0.227   4.871   4.977  0.5637  2.0278 -0.2967
 8823TIP3   OH226432   0.275   6.328   5.701  0.2166  0.1394 -0.1001
 8823TIP3    H126433   0.368   6.319   5.682  0.6415  3.0317  0.2832
 8823TIP3    H226434   0.246   6.402   5.649 -1.3557  0.6889  1.4476
 8824TIP3   OH226435   2.035   2.379   1.509  0.0343  0.0260  0.1431
 8824TIP3    H126436   2.081   2.461   1.523 -1.5515  0.5932  2.4720
 8824TIP3    H226437   1.983   2.394   1.429 -0.2615  1.3219  0.5510
 8825TIP3   OH226438   2.274   0.413   1.904 -0.5043  0.0873  0.4773
 8825TIP3    H126439   2.324   0.341   1.945 -1.9434 -1.4437 -0.3261
 8825TIP3    H226440   2.264   0.478   1.973  1.1647 -0.2917  1.1318
 8826TIP3   OH226441   2.122   1.495   2.282  0.1255  0.0939 -0.3641
 8826TIP3    H126442   2.038   1.531   2.308 -0.4533 -1.9180  0.7540
 8826TIP3    H226443   2.138   1.423   2.343  1.7464 -0.7810 -1.7100
 8827TIP3   OH226444   0.300   0.460   5.391  0.0292 -0.2769 -0.0112
 8827TIP3    H126445   0.271   0.397   5.325 -1.3485  0.1454  0.1512
 8827TIP3    H226446   0.378   0.500   5.353 -0.4522 -0.3917 -1.1742
 8828TIP3   OH226447   1.104   4.638   3.978  0.4873 -0.3994  0.2298
 8828TIP3    H126448   1.155   4.641   3.897  0.4785  1.3806  0.2546
 8828TIP3    H226449   1.014   4.656   3.951  0.8659  3.0352  0.8542
 8829TIP3   OH226450   6.803   0.355   0.669 -0.7417  0.3502 -0.4345
 8829TIP3    H126451   6.779   0.448   0.679  1.1525  0.8903 -0.4670
 8829TIP3    H226452   6.851   0.352   0.587 -1.4215 -0.8341 -0.8122
 8830TIP3   OH226453   2.553   4.657   1.834 -0.1910 -0.0755 -1.0014
 8830TIP3    H126454   2.591   4.671   1.921  0.4657 -1.1670 -1.0901
 8830TIP3    H226455   2.496   4.581   1.845 -0.1171 -0.2112 -1.5258
 8831TIP3   OH226456   0.613   4.678   2.918  0.2477 -0.2737 -0.3726
 8831TIP3    H126457   0.650   4.698   2.832  1.5036 -0.5142  0.0940
 8831TIP3    H226458   0.634   4.754   2.971  0.1132 -0.4385 -0.0818
 8832TIP3   OH226459   1.231   2.567   5.247  0.1193  0.4348  0.1025
 8832TIP3    H126460   1.211   2.489   5.300  0.2689  0.6537  0.4878
 8832TIP3    H226461   1.315   2.547   5.205 -0.7489 -0.3851 -1.3228
 8833TIP3   OH226462   2.117   6.617   4.857  0.6624  0.4824 -0.3218
 8833TIP3    H126463   2.028   6.583   4.860 -0.7696  3.8583  0.0799
 8833TIP3    H226464   2.165   6.565   4.922 -1.2627 -0.7245  0.1951
 8834TIP3   OH226465   4.551   6.541   3.796  0.1389 -0.3400 -0.2270
 8834TIP3    H126466   4.600   6.467   3.832 -0.4519 -1.1434 -0.9971
 8834TIP3    H226467   4.473   6.547   3.851 -0.8965 -1.7389 -1.4439
 8835TIP3   OH226468   0.086   6.655   1.088 -0.4527  0.2091 -0.1192
 8835TIP3    H126469   0.127   6.736   1.055  2.1375 -1.7585 -2.2325
 8835TIP3    H226470   0.159   6.606   1.127 -1.6004 -1.8013 -0.4029
 8836TIP3   OH226471   1.271   3.656   3.105  0.5682  0.7029  0.1561
 8836TIP3    H126472   1.238   3.640   3.193 -2.4546  1.7092 -0.6377
 8836TIP3    H226473   1.310   3.573   3.078 -2.4155 -1.0998  0.9098
 8837TIP3   OH226474   5.912   0.236   1.675  0.4964 -0.4146  0.6749
 8837TIP3    H126475   5.917   0.330   1.660  0.1478 -0.6829 -1.5073
 8837TIP3    H226476   5.997   0.213   1.711 -0.2163  1.0289  3.5320
 8838TIP3   OH226477   0.997   3.338   3.937 -0.2313  0.1635 -0.2521
 8838TIP3    H126478   0.945   3.299   3.866 -0.3667 -1.7158  0.8119
 8838TIP3    H226479   0.943   3.326   4.015  0.9591 -0.0253  0.5575
 8839TIP3   OH226480   6.981   3.201   3.848 -0.1907  0.2058 -0.5625
 8839TIP3    H126481   7.071   3.220   3.871 -0.4146 -1.1941  1.8374
 8839TIP3    H226482   6.947   3.149   3.921 -2.3860 -0.9438 -2.2212
 8840TIP3   OH226483   4.434   5.071   4.230 -0.0756  0.3010 -0.3578
 8840TIP3    H126484   4.467   4.982   4.231 -0.0536  0.2982 -0.8273
 8840TIP3    H226485   4.487   5.118   4.294 -0.0425 -0.0064 -0.1621
 8841TIP3   OH226486   6.206   4.819   2.680 -0.2070 -0.1289  0.7180
 8841TIP3    H126487   6.278   4.881   2.673  0.9694 -1.1511  2.7925
 8841TIP3    H226488   6.130   4.872   2.702  0.5631  0.6939  1.4679
 8842TIP3   OH226489   6.621   0.293   4.098  0.3141 -0.2778 -0.1972
 8842TIP3    H126490   6.700   0.345   4.114 -0.2566  0.8840 -1.0355
 8842TIP3    H226491   6.584   0.280   4.185  0.3205  0.9850  0.0158
 8843TIP3   OH226492   6.299   0.173   2.360 -0.1262  0.0417 -0.0296
 8843TIP3    H126493   6.393   0.160   2.346 -0.2508 -0.3432 -0.5667
 8843TIP3    H226494   6.294   0.233   2.434  0.5280 -2.0422  1.8331
 8844TIP3   OH226495   2.084   4.356   5.531  0.1677  0.5811 -0.3017
 8844TIP3    H126496   2.137   4.349   5.452 -0.0811 -0.3125 -0.4040
 8844TIP3    H226497   2.063   4.265   5.554 -0.6238  0.8797  0.2028
 8845TIP3   OH226498   2.744   5.240   4.433  0.3956 -0.5285  0.6266
 8845TIP3    H126499   2.768   5.326   4.400  1.0444 -0.0191  2.3267
 8845TIP3    H226500   2.816   5.183   4.406 -0.5201 -0.8118 -1.3933
 8846TIP3   OH226501   5.241   5.109   3.798 -0.5164  0.3644 -0.6843
 8846TIP3    H126502   5.180   5.179   3.777  0.9680  2.2789  0.9593
 8846TIP3    H226503   5.270   5.076   3.713 -1.3643  1.6402 -1.5056
 8847TIP3   OH226504   2.223   5.863   3.417 -0.7997 -0.2848 -0.2127
 8847TIP3    H126505   2.292   5.828   3.475  0.0283  0.0783 -0.9542
 8847TIP3    H226506   2.165   5.788   3.401 -0.7290 -0.5278  0.6387
 8848TIP3   OH226507   6.836   2.021   3.541 -0.2284  0.1314 -0.9112
 8848TIP3    H126508   6.746   2.015   3.508 -0.8555  1.8506  0.3124
 8848TIP3    H226509   6.826   2.026   3.637  1.1164  0.8012 -0.7803
 8849TIP3   OH226510   3.589   1.144   0.185  0.0525  0.3682  0.2181
 8849TIP3    H126511   3.558   1.154   0.095  2.4815  2.2219 -0.5264
 8849TIP3    H226512   3.514   1.167   0.239 -1.2767 -0.1450 -1.3222
 8850TIP3   OH226513   6.800   4.144   2.259  0.0532 -0.2640  0.2037
 8850TIP3    H126514   6.790   4.102   2.174  2.0330  1.0181 -0.7304
 8850TIP3    H226515   6.826   4.073   2.318  1.1360 -0.7692 -0.8416
 8851TIP3   OH226516   2.662   3.727   2.700 -0.1084 -0.5243  0.1472
 8851TIP3    H126517   2.720   3.709   2.626  0.1580  0.3220  0.1473
 8851TIP3    H226518   2.662   3.822   2.709 -2.4622 -0.3772 -0.6433
 8852TIP3   OH226519   5.185   1.913   5.542 -0.0360  0.0931 -0.0217
 8852TIP3    H126520   5.143   1.941   5.461  0.5328 -0.1969 -0.4252
 8852TIP3    H226521   5.174   1.818   5.544  0.4767  0.0290 -0.0639
 8853TIP3   OH226522   3.816   0.778   1.052 -0.2264  0.7097 -0.1482
 8853TIP3    H126523   3.860   0.757   1.134 -2.8097  1.8434  1.6606
 8853TIP3    H226524   3.877   0.837   1.006  0.5972  1.4159  1.7538
 8854TIP3   OH226525   1.076   1.776   0.413 -0.5645 -0.3093  0.1193
 8854TIP3    H126526   1.089   1.868   0.394  0.6418  0.0578  2.4290
 8854TIP3    H226527   1.163   1.737   0.408 -0.4204 -0.5009  2.9247
 8855TIP3   OH226528   0.737   4.822   3.632  0.3667  0.4055 -0.6661
 8855TIP3    H126529   0.802   4.794   3.568 -0.6875 -0.9405 -1.2142
 8855TIP3    H226530   0.696   4.899   3.592 -1.0526 -1.0639 -2.2309
 8856TIP3   OH226531   0.225   5.444   1.630 -0.3346 -0.4321 -0.3695
 8856TIP3    H126532   0.169   5.511   1.670 -0.0321 -0.4757  0.1454
 8856TIP3    H226533   0.181   5.421   1.549 -2.1817 -1.9971  0.9840
 8857TIP3   OH226534   0.313   1.440   5.388  0.2877 -0.2169 -0.0917
 8857TIP3    H126535   0.254   1.366   5.374  0.1443 -0.3865  1.2616
 8857TIP3    H226536   0.384   1.426   5.325 -0.2822 -0.8993 -0.6091
 8858TIP3   OH226537   5.465   1.882   3.575  0.3362  0.4060 -0.1326
 8858TIP3    H126538   5.371   1.898   3.583  0.3469  0.2532  0.2839
 8858TIP3    H226539   5.490   1.841   3.657  0.7741  0.4664 -0.2337
 8859TIP3   OH226540   3.212   6.651   1.847  0.7423 -0.4062 -0.2060
 8859TIP3    H126541   3.279   6.701   1.894 -0.8445  0.5612  1.1471
 8859TIP3    H226542   3.183   6.585   1.911  0.3154 -0.7272 -0.7238
 8860TIP3   OH226543   5.606   1.300   2.617  0.4143 -0.0512 -0.1209
 8860TIP3    H126544   5.655   1.295   2.700  0.4105 -1.9396 -0.1907
 8860TIP3    H226545   5.666   1.344   2.557  0.6501  0.8114  0.7248
 8861TIP3   OH226546   5.043   5.639   1.974 -0.1354 -0.2169  0.0100
 8861TIP3    H126547   5.102   5.613   1.903 -1.0351  0.1028 -0.8837
 8861TIP3    H226548   5.085   5.716   2.012 -0.0749  0.1602 -0.7814
 8862TIP3   OH226549   1.509   6.510   1.907  0.9067 -0.3149 -0.6794
 8862TIP3    H126550   1.492   6.416   1.893  2.3598 -0.5892 -0.7109
 8862TIP3    H226551   1.514   6.519   2.002  0.7446 -0.2488 -0.6753
 8863TIP3   OH226552   3.850   6.394   5.036 -0.3201 -0.2423  0.1471
 8863TIP3    H126553   3.910   6.469   5.038 -1.8230  1.0334  2.2837
 8863TIP3    H226554   3.837   6.372   5.129 -3.4473 -0.1204 -0.1569
 8864TIP3   OH226555   1.656   2.965   3.894 -0.5081 -0.0345  0.3269
 8864TIP3    H126556   1.707   2.991   3.972  0.7958  1.2788 -0.8862
 8864TIP3    H226557   1.606   3.044   3.872 -1.1755 -0.5311  0.0632
 8865TIP3   OH226558   0.948   5.669   4.598  0.3768 -0.0885 -0.0421
 8865TIP3    H126559   0.994   5.589   4.573  0.2125 -0.1198 -0.2512
 8865TIP3    H226560   0.905   5.697   4.517 -0.1176 -0.1567  0.1958
 8866TIP3   OH226561   2.868   5.312   3.009  0.4134 -0.3908 -0.0806
 8866TIP3    H126562   2.842   5.338   2.920  1.3043  1.1534  0.0763
 8866TIP3    H226563   2.840   5.221   3.016  1.3334 -0.9311 -2.3630
 8867TIP3   OH226564   1.457   6.787   0.623  0.7008  0.6424 -0.7974
 8867TIP3    H126565   1.398   6.715   0.600  0.2481  0.9967 -0.7771
 8867TIP3    H226566   1.530   6.780   0.561 -0.7782  1.9233 -2.8219
 8868TIP3   OH226567   2.691   0.094   5.264  0.4448  0.4355  0.0202
 8868TIP3    H126568   2.708   0.184   5.236 -0.7676  0.8404  0.5279
 8868TIP3    H226569   2.724   0.091   5.354  1.4956  0.0285 -0.3561
 8869TIP3   OH226570   1.612   3.935   5.886  0.0104  0.3382 -0.0550
 8869TIP3    H126571   1.700   3.902   5.867 -1.2622 -2.0878 -2.4916
 8869TIP3    H226572   1.559   3.908   5.810 -2.7095  2.3525  0.9463
 8870TIP3   OH226573   2.997   5.337   2.085  0.0027 -0.0906 -0.3695
 8870TIP3    H126574   3.054   5.261   2.080  0.9280  0.6507 -1.5555
 8870TIP3    H226575   3.057   5.410   2.102 -0.8185  0.4412  0.3125
 8871TIP3   OH226576   2.751   0.058   4.556  0.1178 -0.1826  0.1521
 8871TIP3    H126577   2.724  -0.010   4.495 -1.0014  1.2584 -1.0177
 8871TIP3    H226578   2.824   0.102   4.512  1.5459 -1.2266  1.3602
 8872TIP3   OH226579   6.132   2.985   3.668 -0.1705  0.3011  0.2855
 8872TIP3    H126580   6.131   2.926   3.592 -0.8231 -0.4327  0.8406
 8872TIP3    H226581   6.161   3.069   3.633 -1.0459  0.1418 -0.9091
 8873TIP3   OH226582   6.137   5.027   3.791 -0.1473 -0.1481 -0.2060
 8873TIP3    H126583   6.165   5.025   3.699 -2.2506  0.1405 -0.9035
 8873TIP3    H226584   6.192   5.095   3.831 -1.4193  2.1396 -2.0791
 8874TIP3   OH226585   2.337   1.091   0.071  0.2117  0.3618 -0.1380
 8874TIP3    H126586   2.258   1.052   0.109 -1.0593 -0.2038 -3.0930
 8874TIP3    H226587   2.408   1.062   0.128 -1.7379  2.2539  3.6473
 8875TIP3   OH226588   0.368   4.408   0.483  0.2756 -0.2651  1.1312
 8875TIP3    H126589   0.293   4.467   0.493 -0.0193 -0.4229  0.0097
 8875TIP3    H226590   0.341   4.327   0.527 -0.8256 -0.8242 -0.4554
 8876TIP3   OH226591   7.002   3.551   3.489  0.3023 -0.0654  0.0366
 8876TIP3    H126592   7.016   3.458   3.509  0.0981  0.2114  1.5861
 8876TIP3    H226593   7.089   3.584   3.467  0.7763 -0.1650  1.6251
 8877TIP3   OH226594   3.058   4.701   2.558  0.5064 -0.1706 -0.2244
 8877TIP3    H126595   3.014   4.625   2.520  2.1193 -0.6623 -1.2227
 8877TIP3    H226596   3.016   4.713   2.643 -1.3960 -0.6941 -1.0272
 8878TIP3   OH226597   1.746   5.216   0.475  0.0853  0.1250  0.0644
 8878TIP3    H126598   1.672   5.165   0.443  0.2637 -1.5688  2.1210
 8878TIP3    H226599   1.707   5.281   0.532  0.0701  0.3508 -0.2020
 8879TIP3   OH226600   5.796   3.555   1.956  0.4004 -0.0754 -0.2862
 8879TIP3    H126601   5.786   3.566   2.050 -0.5090 -1.1825 -0.2210
 8879TIP3    H226602   5.827   3.639   1.924 -1.3392  0.9997  0.7247
 8880TIP3   OH226603   5.842   1.040   4.088  0.9612 -0.2830  0.3685
 8880TIP3    H126604   5.917   0.999   4.046  1.6700  0.6222  0.7131
 8880TIP3    H226605   5.842   1.130   4.055 -0.8864 -0.6589 -0.8041
 8881TIP3   OH226606   0.968   0.544   3.516 -0.6677  0.6873 -0.0572
 8881TIP3    H126607   1.021   0.621   3.537  0.0685  0.7420 -1.9618
 8881TIP3    H226608   1.032   0.472   3.511 -1.0278  0.3976 -0.5433
 8882TIP3   OH226609   3.915   4.837   2.536 -0.6079 -0.6067  0.7500
 8882TIP3    H126610   3.852   4.908   2.525  0.1062  0.0036  0.5640
 8882TIP3    H226611   3.921   4.795   2.450  0.0052 -0.0139  0.4975
 8883TIP3   OH226612   4.412   2.362   3.335  0.0113  0.5831 -0.0552
 8883TIP3    H126613   4.337   2.311   3.304 -0.5953  1.2994  0.2188
 8883TIP3    H226614   4.483   2.338   3.275 -0.5825  0.3260 -0.6763
 8884TIP3   OH226615   5.303   4.462   3.875 -0.2800  0.2767 -0.1721
 8884TIP3    H126616   5.295   4.511   3.793 -0.8299 -1.5431 -1.2682
 8884TIP3    H226617   5.277   4.373   3.852  1.3145 -0.7164  1.5716
 8885TIP3   OH226618   1.468   5.656   4.126  0.1794 -0.1788  0.1671
 8885TIP3    H126619   1.533   5.602   4.082 -0.8056 -2.0989  0.9249
 8885TIP3    H226620   1.514   5.736   4.150  1.4271 -0.2099 -1.9281
 8886TIP3   OH226621   1.568   2.009   1.389  0.1919 -0.9785 -0.0442
 8886TIP3    H126622   1.554   1.959   1.470 -0.1805  0.3615  0.7468
 8886TIP3    H226623   1.560   2.100   1.416 -0.0907 -0.5115 -1.6302
 8887TIP3   OH226624   2.410   6.551   0.483  0.2643 -0.1514  0.5764
 8887TIP3    H126625   2.478   6.559   0.550  1.1737  0.6789 -0.4146
 8887TIP3    H226626   2.422   6.463   0.447 -0.3003 -0.6457  1.5504
 8888TIP3   OH226627   3.281   0.792   2.877 -0.5141  0.3414  0.2498
 8888TIP3    H126628   3.199   0.789   2.829 -1.4844 -1.5570  1.8628
 8888TIP3    H226629   3.331   0.862   2.835 -2.6194  1.0419 -1.2730
 8889TIP3   OH226630   1.985   1.827   3.096  0.0129  0.5423 -0.4788
 8889TIP3    H126631   2.071   1.802   3.128 -0.2471 -0.2501 -0.3729
 8889TIP3    H226632   1.924   1.780   3.153 -0.4609 -0.4806 -1.7952
 8890TIP3   OH226633   3.682   0.428   4.148 -0.2713  0.6428 -0.5386
 8890TIP3    H126634   3.691   0.484   4.071  0.8132  0.7508 -0.3501
 8890TIP3    H226635   3.616   0.363   4.124  1.4710 -0.5643 -2.3229
 8891TIP3   OH226636   6.476   4.051   2.081 -0.1034  0.7427  0.3952
 8891TIP3    H126637   6.429   4.017   2.005  0.8265  1.1212 -0.3668
 8891TIP3    H226638   6.562   4.075   2.048  0.1457  1.4092  1.4639
 8892TIP3   OH226639   4.935   4.879   3.933 -0.5036 -0.3749  0.5154
 8892TIP3    H126640   4.904   4.956   3.983 -0.2424  0.6205 -0.8064
 8892TIP3    H226641   5.030   4.887   3.933 -0.5263  0.9359 -2.0036
 8893TIP3   OH226642   6.201   3.348   2.625 -0.1699 -0.0463  0.3029
 8893TIP3    H126643   6.249   3.314   2.550  0.5830  0.6542  0.4464
 8893TIP3    H226644   6.109   3.338   2.602  0.0488  0.0100 -0.6398
 8894TIP3   OH226645   5.059   0.722   0.283  0.0722  0.4884  0.6717
 8894TIP3    H126646   5.121   0.737   0.211  0.3541 -0.4031  0.7157
 8894TIP3    H226647   5.106   0.748   0.361  0.1434  0.4522  0.6406
 8895TIP3   OH226648   7.223   5.390   0.993  0.4325 -0.5177  0.1509
 8895TIP3    H126649   7.236   5.335   1.070  0.7630 -0.8365 -0.1261
 8895TIP3    H226650   7.171   5.463   1.024  0.7425 -0.5360  0.7259
 8896TIP3   OH226651   5.060   2.381   5.107  0.2560 -0.7757 -0.3136
 8896TIP3    H126652   5.071   2.464   5.155  1.7345 -1.6887  1.0315
 8896TIP3    H226653   5.117   2.390   5.031 -0.1665 -0.2752 -0.5748
 8897TIP3   OH226654   2.055   1.219   0.332 -0.0201  0.2203 -0.1657
 8897TIP3    H126655   2.095   1.273   0.400 -0.0190  1.6254 -1.2409
 8897TIP3    H226656   1.962   1.239   0.336  0.3070  2.8231 -2.6047
 8898TIP3   OH226657   6.734   6.717   1.476  0.5192  0.2179 -0.3558
 8898TIP3    H126658   6.668   6.762   1.528  2.4355  1.7591  0.9266
 8898TIP3    H226659   6.701   6.721   1.386 -0.6417  1.8969  0.0958
 8899TIP3   OH226660   1.510   0.480   2.717 -0.1717 -0.8466  0.8104
 8899TIP3    H126661   1.606   0.479   2.721  0.1291  1.7422 -1.8995
 8899TIP3    H226662   1.482   0.503   2.805  2.0826  3.0520  0.7502
 8900TIP3   OH226663   5.967   0.233   5.291  0.5317  0.1101 -0.3282
 8900TIP3    H126664   6.038   0.263   5.234  1.0013 -1.0859 -0.4038
 8900TIP3    H226665   5.894   0.215   5.231  1.3967 -2.2894 -0.7781
 8901TIP3   OH226666   0.397   4.214   4.859  0.1761  0.1885 -0.4120
 8901TIP3    H126667   0.394   4.281   4.928  2.5201 -0.8123  0.7907
 8901TIP3    H226668   0.466   4.154   4.888  0.9309 -0.5430 -3.4336
 8902TIP3   OH226669   6.036   3.204   0.156  0.1007  0.2044  0.7347
 8902TIP3    H126670   5.973   3.274   0.139 -1.2631 -0.8225  1.3567
 8902TIP3    H226671   6.122   3.247   0.150 -0.2889  0.8680 -4.2918
 8903TIP3   OH226672   4.924   5.927   1.707 -0.5722 -0.2656  0.7347
 8903TIP3    H126673   4.955   5.942   1.797 -0.1433 -1.5487  0.8338
 8903TIP3    H226674   4.992   5.871   1.669  0.3663  2.0075 -1.1159
 8904TIP3   OH226675   1.712   1.256   3.211 -0.6537  0.2677  0.1914
 8904TIP3    H126676   1.764   1.184   3.177 -1.8879  0.0224 -1.2716
 8904TIP3    H226677   1.637   1.214   3.254 -1.4768  0.6565 -0.8303
 8905TIP3   OH226678   5.194   5.336   4.129  0.1363 -0.6018 -0.4831
 8905TIP3    H126679   5.282   5.314   4.099 -0.0764 -1.6851 -0.3450
 8905TIP3    H226680   5.143   5.347   4.048 -0.0463 -1.8978 -0.5703
 8906TIP3   OH226681   0.256   0.612   5.012 -0.4244 -0.4188  0.1640
 8906TIP3    H126682   0.323   0.640   5.074 -1.6148  1.3519  0.7337
 8906TIP3    H226683   0.250   0.684   4.949 -1.5351 -0.6955 -0.0635
 8907TIP3   OH226684   0.749   1.672   5.159 -0.5542 -0.0658  0.2905
 8907TIP3    H126685   0.746   1.701   5.068  4.4961  1.5696  0.3440
 8907TIP3    H226686   0.801   1.592   5.157 -2.4707 -1.4179  1.5917
 8908TIP3   OH226687   1.877   6.664   1.912  0.2324 -0.6007 -0.2527
 8908TIP3    H126688   1.832   6.641   1.993  0.0020  0.9743  0.0828
 8908TIP3    H226689   1.828   6.739   1.877  0.6433 -0.9199 -1.5847
 8909TIP3   OH226690   4.541   0.110   4.619 -0.4196 -0.3879 -0.7297
 8909TIP3    H126691   4.503   0.182   4.569 -1.7212 -0.6044 -0.0771
 8909TIP3    H226692   4.490   0.106   4.700  0.9299 -0.7587  0.1408
 8910TIP3   OH226693   5.113   5.384   3.889 -0.3949 -0.1825  0.1525
 8910TIP3    H126694   5.036   5.346   3.846  0.0032 -0.3133 -0.4640
 8910TIP3    H226695   5.127   5.467   3.845  1.4593 -1.3736 -1.7365
 8911TIP3   OH226696   3.805   2.908   5.466 -0.4599  0.0467 -0.1648
 8911TIP3    H126697   3.781   2.985   5.414  0.3299 -0.9394 -2.0881
 8911TIP3    H226698   3.802   2.835   5.403 -0.0762 -1.3198  1.3370
 8912TIP3   OH226699   5.773   1.838   4.073 -0.0684  0.0951  0.7205
 8912TIP3    H126700   5.809   1.888   4.147 -1.9426  3.2963 -0.3502
 8912TIP3    H226701   5.848   1.824   4.015  0.3966  2.6157  0.6179
 8913TIP3   OH226702   5.588   0.461   2.117  0.0227 -0.1152  0.4025
 8913TIP3    H126703   5.544   0.503   2.043  0.4250  2.0220  1.2999
 8913TIP3    H226704   5.553   0.372   2.118 -0.0405 -0.1972 -2.2819
 8914TIP3   OH226705   0.116   0.102   4.693 -0.1858 -0.0649  0.3119
 8914TIP3    H126706   0.025   0.081   4.671  0.0133 -0.1552 -0.4512
 8914TIP3    H226707   0.162   0.018   4.690  0.2617  0.1982 -1.0237
 8915TIP3   OH226708   2.801   1.792   4.821  0.5364 -0.2876  0.2710
 8915TIP3    H126709   2.829   1.850   4.749  1.2617  0.1626  0.9015
 8915TIP3    H226710   2.854   1.713   4.810  1.6151  0.3036  1.0733
 8916TIP3   OH226711   3.202   1.357   4.177 -0.0879  0.6302  0.2104
 8916TIP3    H126712   3.250   1.275   4.189  0.3612  0.6718 -1.1861
 8916TIP3    H226713   3.172   1.379   4.265  0.0687 -0.8522  0.6713
 8917TIP3   OH226714   5.148   0.247   2.865  0.2790 -0.3581  0.3728
 8917TIP3    H126715   5.155   0.335   2.901  0.9314  0.1890 -0.9744
 8917TIP3    H226716   5.239   0.216   2.860  0.0071 -1.3790  1.4432
 8918TIP3   OH226717   7.105   4.698   2.861 -0.1942 -0.4476  0.1594
 8918TIP3    H126718   7.078   4.633   2.796 -0.6895 -1.1711  1.0673
 8918TIP3    H226719   7.105   4.651   2.944  1.4818  0.1743  0.5644
 8919TIP3   OH226720   2.172   1.080   3.767  0.3448 -0.3613  0.7935
 8919TIP3    H126721   2.189   0.989   3.745  1.0100 -0.1003  0.1703
 8919TIP3    H226722   2.257   1.114   3.795  0.4299  0.4463 -0.3875
 8920TIP3   OH226723   5.293   2.471   0.707 -0.4807  0.1082 -0.2574
 8920TIP3    H126724   5.256   2.543   0.759  0.4136 -0.3269  1.0328
 8920TIP3    H226725   5.248   2.393   0.739  0.4580 -0.2325  0.2709
 8921TIP3   OH226726   0.022   1.363   0.677 -0.0404 -0.2082 -0.0705
 8921TIP3    H126727   0.115   1.353   0.656  0.7373  1.4800  2.0603
 8921TIP3    H226728  -0.004   1.443   0.631  0.3015  0.6816  1.1981
 8922TIP3   OH226729   6.572   2.844   2.245  0.0699  0.1407 -0.0520
 8922TIP3    H126730   6.651   2.840   2.298  0.3602 -0.1165 -0.4993
 8922TIP3    H226731   6.515   2.906   2.291  0.2220 -0.2585  0.6800
 8923TIP3   OH226732   6.943   0.283   2.299  0.5313  0.4538 -0.0317
 8923TIP3    H126733   6.969   0.219   2.366  1.7323 -0.9777 -1.7727
 8923TIP3    H226734   6.860   0.319   2.332  0.8782 -0.4477  2.0221
 8924TIP3   OH226735   0.347   3.788   2.494  0.0145 -0.6449  0.1537
 8924TIP3    H126736   0.330   3.755   2.582  0.5374  0.1454  0.5587
 8924TIP3    H226737   0.414   3.856   2.506 -1.3498  0.8946 -0.5890
 8925TIP3   OH226738   5.108   5.086   3.533 -0.0384 -0.0411 -0.1239
 8925TIP3    H126739   5.123   5.158   3.471  1.1216 -0.0259  0.1409
 8925TIP3    H226740   5.146   5.010   3.489  1.4458  0.1011  0.8309
 8926TIP3   OH226741   4.981   2.902   0.339 -0.7240  0.4409 -0.4486
 8926TIP3    H126742   4.987   2.875   0.247 -1.9779  1.0605 -0.7370
 8926TIP3    H226743   5.068   2.938   0.358 -0.3842  0.1384 -1.3246
 8927TIP3   OH226744   3.085   6.457   0.156  0.5294 -0.2573 -0.0160
 8927TIP3    H126745   3.034   6.395   0.207  0.9758 -1.5943 -1.1143
 8927TIP3    H226746   3.092   6.416   0.069  1.9878  0.6943 -0.3830
 8928TIP3   OH226747   0.233   5.920   2.395 -0.0416 -0.5749 -0.6205
 8928TIP3    H126748   0.176   5.892   2.468  1.0303  0.4280  0.6600
 8928TIP3    H226749   0.321   5.897   2.424  0.6738  2.1053 -0.4217
 8929TIP3   OH226750   4.414   4.548   2.476  0.4436 -0.0655 -0.0577
 8929TIP3    H126751   4.444   4.552   2.385 -0.7808  0.0979 -0.4861
 8929TIP3    H226752   4.461   4.475   2.515  0.6207 -0.4457 -0.9686
 8930TIP3   OH226753   7.066   3.031   4.083 -0.7603 -0.3009 -0.1906
 8930TIP3    H126754   7.147   3.020   4.033  0.2228  0.7222  1.0877
 8930TIP3    H226755   7.074   2.970   4.156 -0.7426  0.3963  0.3996
 8931TIP3   OH226756   7.063   1.640   1.109 -0.5101 -0.3978 -0.1112
 8931TIP3    H126757   7.059   1.641   1.205 -0.1061 -1.3455 -0.0707
 8931TIP3    H226758   6.990   1.695   1.081 -2.8582 -2.8659  0.7274
 8932TIP3   OH226759   2.087   2.424   3.100  0.1689 -0.4281  0.0554
 8932TIP3    H126760   2.118   2.336   3.080 -2.1365 -1.2522 -0.2614
 8932TIP3    H226761   2.054   2.418   3.190  0.2869  0.1924  0.1435
 8933TIP3   OH226762   7.216   3.111   4.460 -0.4644 -0.6860 -0.4668
 8933TIP3    H126763   7.121   3.104   4.472 -0.1882 -1.2635  1.7804
 8933TIP3    H226764   7.249   3.135   4.546  1.3052  1.3281 -1.6437
 8934TIP3   OH226765   0.859   4.924   4.230  0.2305 -0.6621 -0.0422
 8934TIP3    H126766   0.948   4.906   4.201  0.1531 -2.7095  0.7934
 8934TIP3    H226767   0.837   4.849   4.286 -2.1536 -0.4076 -0.5472
 8935TIP3   OH226768   2.225   3.688   2.300 -0.5352  0.0170 -0.3893
 8935TIP3    H126769   2.184   3.741   2.368 -1.7860 -0.9284 -0.3612
 8935TIP3    H226770   2.159   3.621   2.279 -0.3530  0.5244 -2.8252
 8936TIP3   OH226771   6.123   0.043   4.769 -0.0897 -0.5298 -0.1552
 8936TIP3    H126772   6.216   0.021   4.776  0.6202  0.0202 -4.6449
 8936TIP3    H226773   6.083  -0.036   4.732 -0.7737  0.1945 -0.9973
 8937TIP3   OH226774   5.971   3.843   0.675 -0.2303 -0.1800  0.0512
 8937TIP3    H126775   6.005   3.760   0.641 -0.2400 -0.5810  0.9914
 8937TIP3    H226776   5.876   3.830   0.677 -0.3547  0.4038 -1.1894
 8938TIP3   OH226777   1.927   5.925   3.500  0.1653 -0.0245 -0.3095
 8938TIP3    H126778   1.985   5.887   3.434  1.5372 -2.7241  2.2235
 8938TIP3    H226779   1.865   5.855   3.520  0.6049  0.2283  2.1272
 8939TIP3   OH226780   1.563   1.214   3.953  0.0740 -0.1288  0.7334
 8939TIP3    H126781   1.607   1.293   3.921  1.7061 -1.0683  0.6170
 8939TIP3    H226782   1.614   1.141   3.919 -1.8204 -1.3008  0.2283
 8940TIP3   OH226783   3.171   0.256   4.703 -0.3897 -0.1879 -0.1623
 8940TIP3    H126784   3.241   0.214   4.752  1.7954  2.1143 -1.0948
 8940TIP3    H226785   3.152   0.337   4.752  0.7534  1.3779 -2.1492
 8941TIP3   OH226786   1.640   4.683   2.005  0.5321 -0.3559 -0.0079
 8941TIP3    H126787   1.653   4.743   2.079  1.7664  0.2046 -0.6497
 8941TIP3    H226788   1.561   4.634   2.028 -1.7460  2.8203 -0.2784
 8942TIP3   OH226789   0.465   5.594   5.225  0.1058 -0.2973 -0.0443
 8942TIP3    H126790   0.488   5.626   5.138  1.5533 -1.5094 -0.1557
 8942TIP3    H226791   0.390   5.536   5.211  1.0597 -1.4112 -0.6927
 8943TIP3   OH226792   5.351   2.011   0.901 -0.0372 -0.3665  0.1811
 8943TIP3    H126793   5.284   2.057   0.850 -1.0766 -0.8650  1.0784
 8943TIP3    H226794   5.390   2.079   0.956 -1.8072 -0.5682  1.7604
 8944TIP3   OH226795   1.301   4.805   4.979 -0.0606 -0.8930  0.3805
 8944TIP3    H126796   1.232   4.799   4.913 -0.6006 -1.9469  1.0148
 8944TIP3    H226797   1.364   4.867   4.942 -1.8707  1.0027  0.2852
 8945TIP3   OH226798   1.759   2.327   1.763  0.4557 -0.1237  0.2001
 8945TIP3    H126799   1.784   2.292   1.848  0.3420 -0.0808  0.2515
 8945TIP3    H226800   1.810   2.408   1.755 -1.1596  1.0365  1.1961
 8946TIP3   OH226801   5.115   0.667   1.683 -0.9268  0.7838 -0.0279
 8946TIP3    H126802   5.117   0.613   1.762  0.1195  1.3005  0.3270
 8946TIP3    H226803   5.154   0.751   1.710  0.7794  0.5020 -1.3855
 8947TIP3   OH226804   1.622   6.028   4.478  0.1199 -0.8591  0.5061
 8947TIP3    H126805   1.548   6.057   4.532 -0.3759 -0.4986 -0.3593
 8947TIP3    H226806   1.650   6.106   4.431 -1.6423 -1.7986 -2.3314
 8948TIP3   OH226807   5.312   1.448   4.354  0.4188  0.2849  0.2952
 8948TIP3    H126808   5.371   1.459   4.428  0.8822  0.3928 -0.0846
 8948TIP3    H226809   5.263   1.368   4.373  1.2391 -0.2345  0.2425
 8949TIP3   OH226810   0.476   3.696   1.933  0.2089 -0.1307  0.0318
 8949TIP3    H126811   0.468   3.662   2.022 -0.1420  0.0625  0.0758
 8949TIP3    H226812   0.404   3.656   1.885  1.4263 -1.6277 -0.6217
 8950TIP3   OH226813   1.644   3.106   2.742  0.7992 -0.2297 -0.1308
 8950TIP3    H126814   1.613   3.172   2.804  1.5920 -0.3097  0.3663
 8950TIP3    H226815   1.666   3.030   2.796  2.5772  0.0919 -0.3404
 8951TIP3   OH226816   5.858   4.967   2.291  0.1799 -0.3485  0.0385
 8951TIP3    H126817   5.902   4.894   2.248 -0.1846  0.0869 -1.1223
 8951TIP3    H226818   5.765   4.950   2.278  0.0894  1.0853 -1.6882
 8952TIP3   OH226819   2.769   2.639   1.865 -0.0561 -0.5282  0.2577
 8952TIP3    H126820   2.794   2.714   1.919  2.5503 -0.6855 -0.5737
 8952TIP3    H226821   2.753   2.569   1.928  1.4030 -0.2896  0.9406
 8953TIP3   OH226822   5.391   1.318   5.238  0.3506  0.1594 -0.0958
 8953TIP3    H126823   5.328   1.249   5.256  1.3875 -0.6028  0.7783
 8953TIP3    H226824   5.407   1.311   5.143 -1.2534  0.7394 -0.4396
 8954TIP3   OH226825   6.037   0.724   0.492  0.0310 -0.2710 -0.2820
 8954TIP3    H126826   5.959   0.670   0.496 -0.3071 -0.0996 -2.8527
 8954TIP3    H226827   6.088   0.688   0.418  0.9472  1.3938 -0.5189
 8955TIP3   OH226828   2.555   3.670   1.733 -0.7172  0.1518 -0.3602
 8955TIP3    H126829   2.477   3.726   1.732 -0.1031  1.0417  0.2026
 8955TIP3    H226830   2.616   3.714   1.673 -0.5481 -0.4057 -0.6046
 8956TIP3   OH226831   5.568   2.368  -0.004  0.3310  0.3327  0.4778
 8956TIP3    H126832   5.494   2.318   0.031  1.0671 -1.0240  0.1781
 8956TIP3    H226833   5.640   2.304  -0.009  0.1051  0.0561 -4.3465
 8957TIP3   OH226834   6.543   0.196   4.352 -0.2183 -0.1051  0.4931
 8957TIP3    H126835   6.594   0.222   4.429  0.6013 -0.3279  0.0387
 8957TIP3    H226836   6.478   0.135   4.386 -1.1229  1.2549  1.3170
 8958TIP3   OH226837   5.645   6.615   1.907 -0.0047  0.3618 -0.3344
 8958TIP3    H126838   5.700   6.540   1.883 -0.8841 -0.9203  1.3964
 8958TIP3    H226839   5.558   6.577   1.918 -0.9254  2.0522 -1.4172
 8959TIP3   OH226840   2.799   1.691   0.486 -0.1880  0.7771 -0.2417
 8959TIP3    H126841   2.745   1.726   0.556 -1.1396  0.4284 -0.7776
 8959TIP3    H226842   2.870   1.754   0.476 -0.5904  1.3358  0.3580
 8960TIP3   OH226843   5.079   2.823   5.065  0.4614 -0.2827  0.5552
 8960TIP3    H126844   4.992   2.784   5.078  0.3356 -0.5218 -0.8836
 8960TIP3    H226845   5.139   2.763   5.111 -0.0721 -0.3988  1.1164
 8961TIP3   OH226846   0.281   3.550   3.748 -0.5621  0.2185 -0.2699
 8961TIP3    H126847   0.186   3.549   3.759 -0.7454  0.4430 -1.6155
 8961TIP3    H226848   0.315   3.506   3.826 -1.7924 -0.2744  0.0126
 8962TIP3   OH226849   3.847   0.349   3.784  0.2520 -0.4555 -0.5804
 8962TIP3    H126850   3.819   0.440   3.786 -1.6923 -0.8055 -3.9468
 8962TIP3    H226851   3.941   0.352   3.769  0.1658  1.0108 -0.9025
 8963TIP3   OH226852   2.260   4.399   1.021  0.3371  0.5217 -0.4414
 8963TIP3    H126853   2.174   4.440   1.014  0.0411 -0.1495 -0.8657
 8963TIP3    H226854   2.316   4.450   0.963 -0.3737 -0.5383 -2.1507
 8964TIP3   OH226855   0.819   5.560   2.272  0.2796  0.0733  0.5734
 8964TIP3    H126856   0.883   5.626   2.299  0.4453  0.3104 -0.3578
 8964TIP3    H226857   0.741   5.611   2.249 -0.1273 -0.1857  1.3555
 8965TIP3   OH226858   4.193   1.365   1.320 -0.4746  0.1270 -0.0849
 8965TIP3    H126859   4.156   1.396   1.238 -0.3259 -0.0451 -0.2186
 8965TIP3    H226860   4.262   1.429   1.341 -0.5413  0.1947 -0.0719
 8966TIP3   OH226861   5.147   5.339   3.398 -0.2301 -0.7081 -0.5244
 8966TIP3    H126862   5.127   5.372   3.310 -0.8633 -1.0223 -0.5049
 8966TIP3    H226863   5.085   5.383   3.456 -0.4065 -1.1623 -0.3607
 8967TIP3   OH226864   3.274   5.040   2.076 -0.2726 -0.4946  0.2748
 8967TIP3    H126865   3.250   5.000   1.993 -0.6836 -0.6721  0.4740
 8967TIP3    H226866   3.312   5.124   2.052  0.8151 -1.0987 -0.1562
 8968TIP3   OH226867   6.604   3.805   2.764 -0.2873 -0.4832 -0.5997
 8968TIP3    H126868   6.639   3.852   2.688 -0.7553  1.6646  0.4545
 8968TIP3    H226869   6.515   3.782   2.739 -0.4986  0.3625 -0.6658
 8969TIP3   OH226870   2.020   4.033   0.236  0.2173  0.0290  0.0090
 8969TIP3    H126871   2.052   3.963   0.294 -0.1175 -0.7647 -0.7425
 8969TIP3    H226872   2.047   4.005   0.148  0.4170  1.0436 -0.2623
 8970TIP3   OH226873   2.405   3.467   4.843  0.4016  0.0218  0.2758
 8970TIP3    H126874   2.428   3.538   4.784  0.5191 -0.6054 -0.4367
 8970TIP3    H226875   2.477   3.464   4.907  0.6735  0.1789 -0.0237
 8971TIP3   OH226876   6.269   5.099   1.767 -0.1163  0.5826  0.1201
 8971TIP3    H126877   6.324   5.175   1.750  2.0139 -0.6719  1.0590
 8971TIP3    H226878   6.252   5.101   1.861 -0.1885 -0.0160  0.1267
 8972TIP3   OH226879   3.327   5.243   0.736  0.0791  0.4205  0.2083
 8972TIP3    H126880   3.408   5.192   0.739 -0.4264 -0.3602  1.7321
 8972TIP3    H226881   3.355   5.333   0.720  1.0857 -0.1078 -1.2094
 8973TIP3   OH226882   6.691   1.693   4.471  0.2484 -0.1034  0.8851
 8973TIP3    H126883   6.626   1.650   4.416 -1.6829  0.6498  2.4489
 8973TIP3    H226884   6.699   1.637   4.548 -0.1819  0.8791  1.6685
 8974TIP3   OH226885   4.274   1.523   0.878 -0.4050 -0.5300 -0.0735
 8974TIP3    H126886   4.222   1.563   0.809 -0.4450 -0.4517  0.0016
 8974TIP3    H226887   4.350   1.487   0.833 -0.7911 -1.1210 -0.2599
 8975TIP3   OH226888   5.363   1.967   1.457  0.0614 -0.0709  0.0192
 8975TIP3    H126889   5.384   1.909   1.530 -0.1052 -0.2265 -0.0551
 8975TIP3    H226890   5.284   1.928   1.418  1.1704 -1.0544 -1.3716
 8976TIP3   OH226891   6.004   5.033   2.527 -0.3528 -0.4469  0.1237
 8976TIP3    H126892   5.946   4.992   2.591 -0.1881 -1.6982 -0.4868
 8976TIP3    H226893   5.967   5.007   2.442 -0.6942  1.3500 -0.3203
 8977TIP3   OH226894   1.487   5.940   5.531 -0.3095 -0.1418 -0.1779
 8977TIP3    H126895   1.493   6.030   5.501  0.7285 -0.3801 -0.7548
 8977TIP3    H226896   1.398   5.913   5.509  0.0703  0.0338 -2.1328
 8978TIP3   OH226897   2.883   2.718   0.150 -0.3042 -0.1230 -0.4121
 8978TIP3    H126898   2.846   2.709   0.063 -2.7570 -0.2091  0.5734
 8978TIP3    H226899   2.883   2.812   0.167 -0.0656 -0.1242 -0.3967
 8979TIP3   OH226900   4.469   3.581   5.345  0.0950  0.2016  0.1188
 8979TIP3    H126901   4.556   3.615   5.323 -0.0265  2.1824  2.2948
 8979TIP3    H226902   4.485   3.519   5.416 -0.1167 -0.8875 -0.7725
 8980TIP3   OH226903   6.034   2.152   0.966 -0.0283  0.3316  0.0785
 8980TIP3    H126904   5.974   2.086   1.001  0.6747 -1.1289 -1.3551
 8980TIP3    H226905   5.990   2.235   0.983 -1.3908 -0.5479  1.0822
 8981TIP3   OH226906   4.067   2.680   5.856 -0.1558 -0.4907  0.5022
 8981TIP3    H126907   4.104   2.728   5.930  1.7661 -0.0608 -0.6784
 8981TIP3    H226908   4.004   2.740   5.817  1.6226  0.8271 -0.4638
 8982TIP3   OH226909   1.957   1.258   5.347 -0.6510 -0.2930  0.8934
 8982TIP3    H126910   1.936   1.347   5.376  0.1160  0.9673 -1.9888
 8982TIP3    H226911   1.874   1.212   5.349 -1.0719  0.4656  2.4146
 8983TIP3   OH226912   3.880   6.531   3.886  0.4127  0.3447 -0.3549
 8983TIP3    H126913   3.921   6.503   3.968  1.3408  1.0777 -0.5488
 8983TIP3    H226914   3.897   6.460   3.825  0.9122  0.3974 -0.2788
 8984TIP3   OH226915   1.853   0.168   5.541  0.1614 -0.4208  0.1836
 8984TIP3    H126916   1.811   0.157   5.455  0.4512 -0.7917  0.0873
 8984TIP3    H226917   1.800   0.234   5.584 -0.2941 -0.5953 -0.0901
 8985TIP3   OH226918   6.508   2.924   4.781  0.9219  0.9343  0.0895
 8985TIP3    H126919   6.584   2.966   4.741  0.7869 -0.0513 -1.2888
 8985TIP3    H226920   6.536   2.902   4.870  1.6991  1.9876  0.1233
 8986TIP3   OH226921   1.449   5.981   1.984 -0.0653  0.6467 -0.5001
 8986TIP3    H126922   1.510   5.922   2.028 -0.7137  0.7690  0.5987
 8986TIP3    H226923   1.407   5.927   1.917  0.2518  0.1869 -0.3318
 8987TIP3   OH226924   4.748   5.069   1.272 -0.0253  0.1195 -0.1714
 8987TIP3    H126925   4.817   5.060   1.338  0.0001 -0.8419 -0.3192
 8987TIP3    H226926   4.666   5.068   1.323 -0.0358 -1.2627 -0.1861
 8988TIP3   OH226927   5.328   4.034   5.739  0.4773 -0.2566 -0.1952
 8988TIP3    H126928   5.348   3.997   5.825  0.8589  0.9554  0.2676
 8988TIP3    H226929   5.250   3.987   5.709 -0.5212  0.2587  1.4600
 8989TIP3   OH226930   5.352   1.594   0.416 -0.1237  0.1663  0.9158
 8989TIP3    H126931   5.359   1.499   0.422 -0.4423  0.1686  1.3605
 8989TIP3    H226932   5.334   1.611   0.323 -0.6632 -0.2476  0.9404
 8990TIP3   OH226933   4.704   1.528   3.814 -0.3929 -0.3945  0.2498
 8990TIP3    H126934   4.751   1.520   3.898  0.8128 -0.0362 -0.3679
 8990TIP3    H226935   4.755   1.476   3.753  0.3306  1.5251 -0.8714
 8991TIP3   OH226936   7.086   0.494   2.198 -0.0309 -0.4789  0.1515
 8991TIP3    H126937   7.024   0.441   2.148  1.0538  0.1168 -1.9595
 8991TIP3    H226938   7.044   0.508   2.282 -1.9669 -1.5546 -0.5799
 8992TIP3   OH226939   5.994   1.272   3.775  0.1866  0.3469  0.4760
 8992TIP3    H126940   6.057   1.250   3.706  0.2311 -1.1279  0.9421
 8992TIP3    H226941   6.044   1.263   3.856 -0.4056 -0.0353  0.8058
 8993TIP3   OH226942   0.287   0.799   5.855  0.4003  0.5167  0.5984
 8993TIP3    H126943   0.350   0.763   5.792 -1.3919 -2.8887  0.4838
 8993TIP3    H226944   0.341   0.835   5.925  2.4571  0.2143 -0.7526
 8994TIP3   OH226945   3.627   4.332   3.311 -0.1955 -0.1001 -0.0623
 8994TIP3    H126946   3.666   4.385   3.381 -0.7382 -1.3358  1.2367
 8994TIP3    H226947   3.540   4.370   3.298  0.0237  0.3284 -0.3008
 8995TIP3   OH226948   3.274   2.762   1.500  0.2517 -0.1102  0.2489
 8995TIP3    H126949   3.345   2.776   1.562  0.7003 -1.3625  0.0519
 8995TIP3    H226950   3.208   2.713   1.549 -1.0629  2.0386  0.7856
 8996TIP3   OH226951   1.397   1.847   1.225 -0.1860 -0.3435 -0.3539
 8996TIP3    H126952   1.455   1.884   1.292  0.7495 -1.3033 -0.6061
 8996TIP3    H226953   1.331   1.915   1.211  0.6795  0.6476  0.1924
 8997TIP3   OH226954   5.480   1.405   5.805  0.0011  0.4508  0.2524
 8997TIP3    H126955   5.485   1.309   5.813 -0.5863  0.3777 -0.1931
 8997TIP3    H226956   5.519   1.437   5.887 -1.0799 -0.1959  1.0577
 8998TIP3   OH226957   7.103   3.211   1.792 -0.4492  0.7865  0.3429
 8998TIP3    H126958   7.092   3.193   1.885 -0.4411  2.2583  0.6568
 8998TIP3    H226959   7.084   3.128   1.749 -2.6057  0.5939  1.5196
 8999TIP3   OH226960   0.380   4.440   5.024  0.0665 -0.5227 -0.2620
 8999TIP3    H126961   0.402   4.416   5.114  0.3581  1.1470  0.1408
 8999TIP3    H226962   0.296   4.484   5.031 -0.9162 -2.1680 -1.1103
 9000TIP3   OH226963   0.806   1.002   2.440  0.3190 -0.0398  0.5846
 9000TIP3    H126964   0.726   1.016   2.490 -0.1192 -0.2297 -0.0454
 9000TIP3    H226965   0.828   1.089   2.406 -0.5219 -0.2401 -0.5487
 9001TIP3   OH226966   2.072   5.021   2.044 -0.8071  0.5499 -0.6464
 9001TIP3    H126967   1.990   4.995   2.085 -0.2223 -0.4964 -0.0882
 9001TIP3    H226968   2.109   4.939   2.010  1.5615  0.3187  2.0289
 9002TIP3   OH226969   2.992   5.763   1.685  0.1494  0.2088  0.5173
 9002TIP3    H126970   2.975   5.675   1.653 -0.3569 -0.0841  1.5508
 9002TIP3    H226971   2.906   5.796   1.712  0.6430  0.1614  2.2335
 9003TIP3   OH226972   2.412   3.729   1.163 -0.3079 -0.2885 -0.3507
 9003TIP3    H126973   2.393   3.655   1.105  1.2309 -0.8438 -0.1883
 9003TIP3    H226974   2.458   3.792   1.108 -2.0951  0.8359 -0.6281
 9004TIP3   OH226975   1.696   2.797   4.732  0.1102 -0.0307 -0.1285
 9004TIP3    H126976   1.787   2.822   4.719  0.2825 -0.1494  0.8125
 9004TIP3    H226977   1.672   2.831   4.818 -1.1792  1.2378 -0.9397
 9005TIP3   OH226978   5.645   1.012   5.267  0.3146  0.3035  0.0746
 9005TIP3    H126979   5.712   0.953   5.233  0.2926 -0.6279  1.5308
 9005TIP3    H226980   5.681   1.043   5.351 -0.5062  0.8549  0.2383
 9006TIP3   OH226981   7.204   3.553   0.508 -0.2228  0.1001 -0.1742
 9006TIP3    H126982   7.265   3.541   0.581  0.2427  1.0974 -0.3714
 9006TIP3    H226983   7.119   3.565   0.549  0.1273  1.2738  0.2713
 9007TIP3   OH226984   3.403   0.079   1.289 -0.1299 -0.3097 -0.0390
 9007TIP3    H126985   3.423   0.018   1.217  1.0063 -0.5600  0.4692
 9007TIP3    H226986   3.436   0.164   1.258  0.1542 -0.3718  0.0924
 9008TIP3   OH226987   4.844   3.970   2.330  0.2866  0.6230 -0.2541
 9008TIP3    H126988   4.815   3.921   2.253 -1.7800 -1.0713  1.4504
 9008TIP3    H226989   4.890   3.905   2.383 -0.4331  1.1018  0.9994
 9009TIP3   OH226990   3.825   1.530   4.830 -0.1498 -0.0693  0.0942
 9009TIP3    H126991   3.824   1.582   4.749  0.4961 -1.1906 -0.6611
 9009TIP3    H226992   3.855   1.443   4.802 -0.1603 -0.5443  1.5039
 9010TIP3   OH226993   5.199   6.194   1.202 -0.0357 -0.2354  0.0281
 9010TIP3    H126994   5.176   6.102   1.183  2.1296 -0.7536 -0.3358
 9010TIP3    H226995   5.215   6.233   1.116 -1.4118  0.6596  0.1471
 9011TIP3   OH226996   1.311   5.861   1.741  0.4953  0.2525 -0.3364
 9011TIP3    H126997   1.229   5.899   1.710  0.4398  1.0089  0.7061
 9011TIP3    H226998   1.373   5.876   1.670 -0.6277 -1.8217 -1.8780
 9012TIP3   OH226999   6.159   1.037   2.320 -0.1700 -0.0985  0.1375
 9012TIP3    H127000   6.227   0.972   2.300  0.4651  0.7741 -0.6676
 9012TIP3    H227001   6.180   1.068   2.408  0.8645  0.5915 -0.3309
 9013TIP3   OH227002   2.372   3.505   3.823  0.0138  0.7083 -0.6202
 9013TIP3    H127003   2.391   3.505   3.917 -1.6223  0.7102 -0.2553
 9013TIP3    H227004   2.454   3.532   3.782  1.2632 -0.8928  0.6785
 9014TIP3   OH227005   2.942   6.406   1.137  0.0066  0.1404 -0.0482
 9014TIP3    H127006   2.972   6.493   1.164 -0.8379  0.0280  1.3295
 9014TIP3    H227007   2.866   6.422   1.082  0.3610  0.2942 -0.4986
 9015TIP3   OH227008   2.005   6.519   1.664 -0.1734  0.1960  0.5945
 9015TIP3    H127009   1.950   6.527   1.586  0.6214  0.1519  0.0152
 9015TIP3    H227010   2.094   6.506   1.630  0.3898  1.4699  1.4872
 9016TIP3   OH227011   3.504   0.902   1.086  0.0733  0.1085 -0.0673
 9016TIP3    H127012   3.471   0.812   1.079 -0.3863  0.2523  0.2364
 9016TIP3    H227013   3.580   0.895   1.144 -0.0596 -0.0534  0.0867
 9017TIP3   OH227014   5.852   4.524   2.401  0.3571  0.0867 -0.3335
 9017TIP3    H127015   5.855   4.608   2.448  0.9668 -0.0029 -0.2036
 9017TIP3    H227016   5.935   4.482   2.423 -0.5560 -1.2057  0.8007
 9018TIP3   OH227017   6.926   3.164   4.426 -0.4127 -0.5471 -0.1070
 9018TIP3    H127018   6.909   3.241   4.372  0.6179  1.3198  2.0309
 9018TIP3    H227019   6.874   3.178   4.505  0.3164 -1.6975  0.6166
 9019TIP3   OH227020   1.109   3.393   2.965  0.1052  0.1562 -1.1145
 9019TIP3    H127021   1.049   3.459   2.998  1.0368  0.8544 -0.7836
 9019TIP3    H227022   1.115   3.410   2.871 -0.3173 -0.0022 -1.1700
 9020TIP3   OH227023   2.654   0.803   4.633  0.3723 -0.3645 -0.8928
 9020TIP3    H127024   2.748   0.792   4.622  0.6638 -0.2868  1.2161
 9020TIP3    H227025   2.623   0.718   4.661 -0.3965 -0.6662 -2.5156
 9021TIP3   OH227026   1.126   2.888   0.264 -0.4671 -0.4305 -0.1651
 9021TIP3    H127027   1.146   2.828   0.336  2.6218  1.0282  0.3879
 9021TIP3    H227028   1.180   2.855   0.192  0.9363  1.3067  0.0214
 9022TIP3   OH227029   3.935   1.142   0.172  0.1208  0.2560  0.3034
 9022TIP3    H127030   3.865   1.206   0.162  0.9911  1.1340 -0.2463
 9022TIP3    H227031   3.926   1.084   0.096  0.5735  0.9426 -0.2797
 9023TIP3   OH227032   3.112   6.251   5.231 -0.7319  0.3419  0.0538
 9023TIP3    H127033   3.116   6.345   5.246 -1.5580  0.4626 -0.4189
 9023TIP3    H227034   3.156   6.238   5.147  3.3097 -0.2581  1.9724
 9024TIP3   OH227035   3.739   2.399   0.147  0.5532  0.1563 -0.1027
 9024TIP3    H127036   3.811   2.377   0.087  1.7460 -0.3976  1.4405
 9024TIP3    H227037   3.675   2.329   0.133  1.3599 -0.6486  0.1069
 9025TIP3   OH227038   3.774   1.039   4.554 -0.0344 -0.2610 -0.1653
 9025TIP3    H127039   3.793   1.120   4.506 -0.6278 -0.0007  0.0409
 9025TIP3    H227040   3.690   1.054   4.596  0.8601 -0.1539  1.6898
 9026TIP3   OH227041   1.189   4.388   0.844  0.6147  0.2716  0.3623
 9026TIP3    H127042   1.124   4.375   0.912  0.8001  1.3667  0.7775
 9026TIP3    H227043   1.247   4.457   0.878  0.6394  0.9342 -0.9352
 9027TIP3   OH227044   5.929   2.769   5.611 -0.1750 -0.2261 -0.0271
 9027TIP3    H127045   5.967   2.843   5.659  0.9034 -0.7817  0.0065
 9027TIP3    H227046   5.867   2.809   5.550 -1.1371  0.5447  1.3840
 9028TIP3   OH227047   2.907   4.246   2.355  0.0270  0.3485 -0.1396
 9028TIP3    H127048   2.991   4.203   2.340 -0.2369 -0.8544  1.5077
 9028TIP3    H227049   2.897   4.245   2.451 -2.1716 -0.1393 -0.3393
 9029TIP3   OH227050   4.756   5.723   4.095 -0.4805  0.5995  0.3726
 9029TIP3    H127051   4.684   5.726   4.158 -1.0174 -1.1360 -0.0936
 9029TIP3    H227052   4.713   5.711   4.011  0.3429 -0.7600  0.1188
 9030TIP3   OH227053   3.510   2.306   5.491  0.8161  0.3328  0.3315
 9030TIP3    H127054   3.492   2.380   5.433  0.2253 -0.0402  0.0269
 9030TIP3    H227055   3.606   2.297   5.490  0.7964  0.0870 -0.9147
 9031TIP3   OH227056   3.644   1.502   5.217 -0.2453 -0.0312 -0.4034
 9031TIP3    H127057   3.723   1.467   5.176 -1.8970 -1.3358 -2.7143
 9031TIP3    H227058   3.591   1.533   5.143 -1.5878  1.5152  1.1354
 9032TIP3   OH227059   0.310   3.758   0.127 -0.0481  0.0778  0.4080
 9032TIP3    H127060   0.364   3.735   0.052 -0.8618 -1.3205  0.2163
 9032TIP3    H227061   0.314   3.681   0.185 -0.3308  0.6888  1.2693
 9033TIP3   OH227062   3.872   5.976   1.813 -0.4740 -0.9294  0.4889
 9033TIP3    H127063   3.860   6.069   1.833 -1.2243 -1.4438  2.7495
 9033TIP3    H227064   3.785   5.937   1.827 -0.1693 -1.9685 -0.4204
 9034TIP3   OH227065   5.206   4.688   2.163  0.0619 -0.4121 -0.1672
 9034TIP3    H127066   5.250   4.604   2.155 -1.0175 -1.0234  0.0426
 9034TIP3    H227067   5.177   4.691   2.254 -0.5735 -0.1651 -0.3716
 9035TIP3   OH227068   6.028   4.537   3.529 -0.0767 -0.3129 -0.3698
 9035TIP3    H127069   5.998   4.485   3.604 -0.2341 -0.9366 -0.8563
 9035TIP3    H227070   6.119   4.512   3.517 -0.3176 -0.9343 -0.9715
 9036TIP3   OH227071   6.560   5.620   0.226  0.1490  0.5081  0.4556
 9036TIP3    H127072   6.547   5.714   0.215 -0.0634  0.4652  0.3264
 9036TIP3    H227073   6.519   5.582   0.148  1.2303  0.3793 -0.0771
 9037TIP3   OH227074   4.914   6.497   3.180  0.0421 -0.2837  0.0522
 9037TIP3    H127075   4.993   6.445   3.197  0.3745 -0.1030 -0.9012
 9037TIP3    H227076   4.934   6.583   3.217 -0.3744 -0.6995  1.3171
 9038TIP3   OH227077   1.881   2.352   4.497  0.1404 -0.1403  0.5773
 9038TIP3    H127078   1.947   2.413   4.463 -1.0554  1.5444  1.1841
 9038TIP3    H227079   1.815   2.347   4.428  1.0900 -2.2643 -0.2688
 9039TIP3   OH227080   3.499   5.490   2.125 -0.9058 -0.5634 -0.3534
 9039TIP3    H127081   3.580   5.500   2.175 -1.7379 -0.4099  1.0095
 9039TIP3    H227082   3.507   5.554   2.054  0.0766 -0.4111 -0.1187
 9040TIP3   OH227083   7.040   2.336   0.310  0.4036 -0.1485 -0.1245
 9040TIP3    H127084   7.091   2.324   0.229  0.9851 -1.1422  0.3554
 9040TIP3    H227085   7.001   2.250   0.325 -0.7212  0.3728 -0.0046
 9041TIP3   OH227086   4.759   1.334   3.022  0.1377  0.2300 -0.8466
 9041TIP3    H127087   4.790   1.342   2.932 -0.9792 -2.9016 -1.6334
 9041TIP3    H227088   4.830   1.288   3.067 -0.7037 -1.3955 -1.0990
 9042TIP3   OH227089   3.727   4.648   5.305 -0.3562 -0.1977 -0.4675
 9042TIP3    H127090   3.678   4.713   5.253  0.4074  0.2228 -0.6815
 9042TIP3    H227091   3.755   4.583   5.241 -0.7984 -0.5457 -0.3118
 9043TIP3   OH227092   2.738   4.107   2.987  0.0003  0.5270  0.1016
 9043TIP3    H127093   2.700   4.194   3.001  0.5532  0.6710  0.8098
 9043TIP3    H227094   2.833   4.121   2.998  0.9421  1.0649 -5.4912
 9044TIP3   OH227095   5.829   1.189   0.232 -0.0836  0.0424  0.3333
 9044TIP3    H127096   5.917   1.157   0.213  0.0114  0.2696  0.3966
 9044TIP3    H227097   5.811   1.157   0.320 -0.1912 -0.2789  0.1975
 9045TIP3   OH227098   0.079   6.308   2.477  0.2819 -0.0792 -0.6807
 9045TIP3    H127099  -0.003   6.276   2.438  1.5838 -1.3698 -2.5177
 9045TIP3    H227100   0.123   6.229   2.508  0.1452  0.7586  1.8138
 9046TIP3   OH227101   3.919   6.783   3.800 -0.0333  0.6017  0.3799
 9046TIP3    H127102   3.992   6.803   3.857  1.3605 -1.9444 -0.3634
 9046TIP3    H227103   3.895   6.693   3.822 -2.7359  1.2265  0.3301
 9047TIP3   OH227104   3.277   5.256   5.513 -0.2360 -0.3977  0.2390
 9047TIP3    H127105   3.256   5.308   5.590  1.4979  0.3457  0.2633
 9047TIP3    H227106   3.270   5.165   5.542 -0.4124 -0.1366  1.0286
 9048TIP3   OH227107   2.601   5.817   1.551 -0.1706 -0.3016  0.2670
 9048TIP3    H127108   2.513   5.837   1.519 -0.9327 -2.8593  0.5309
 9048TIP3    H227109   2.587   5.784   1.640  1.0630 -0.6038  0.3660
 9049TIP3   OH227110   6.212   5.554   5.417  0.3769  0.5311  0.3393
 9049TIP3    H127111   6.141   5.582   5.360  0.0097 -0.6220  0.2094
 9049TIP3    H227112   6.171   5.491   5.477  1.2368  0.0381  0.4195
 9050TIP3   OH227113   5.858   2.053   4.700 -0.3443 -0.1174  0.3879
 9050TIP3    H127114   5.782   1.997   4.686 -0.6492  0.2208  0.6605
 9050TIP3    H227115   5.836   2.135   4.656 -0.2263  0.0515  0.6403
 9051TIP3   OH227116   6.930   2.478   4.862 -0.4746 -0.1176 -0.3093
 9051TIP3    H127117   6.999   2.540   4.840 -1.9312  1.0669 -1.6969
 9051TIP3    H227118   6.977   2.399   4.889  1.4070  0.9690 -0.2390
 9052TIP3   OH227119   4.894   1.288   2.411  0.0828  0.7788 -0.4647
 9052TIP3    H127120   4.967   1.323   2.462 -0.3666  0.6893  0.2519
 9052TIP3    H227121   4.831   1.360   2.406  0.0072  0.7004 -0.6648
 9053TIP3   OH227122   3.145   5.659   0.626 -0.3992 -0.3948 -0.1855
 9053TIP3    H127123   3.134   5.744   0.670  3.8247  0.0670  0.4593
 9053TIP3    H227124   3.107   5.672   0.539 -0.4607  1.9589  0.1269
 9054TIP3   OH227125   3.100   4.168   2.062 -0.0459  0.4308  0.3338
 9054TIP3    H127126   3.131   4.150   2.150  0.0315  0.5555  0.3321
 9054TIP3    H227127   3.168   4.224   2.024 -0.2794  0.7121  0.3330
 9055TIP3   OH227128   1.053   4.072   0.099  0.7396 -0.0999 -0.4330
 9055TIP3    H127129   0.983   4.040   0.157  2.1099 -0.9519  0.8204
 9055TIP3    H227130   1.056   4.010   0.027  0.3153 -0.1503 -0.4080
 9056TIP3   OH227131   0.443   3.519   1.120 -0.9142  0.2883 -0.2371
 9056TIP3    H127132   0.474   3.606   1.143  1.3835 -0.7480  0.9198
 9056TIP3    H227133   0.481   3.461   1.186  0.0621 -1.9406 -2.5847
 9057TIP3   OH227134   2.136   0.063   3.440 -0.0963  0.0651 -0.4798
 9057TIP3    H127135   2.149   0.104   3.525  0.6105  1.1819 -1.1007
 9057TIP3    H227136   2.205  -0.002   3.433  1.7785  2.0122 -1.3757
 9058TIP3   OH227137   4.575   0.354   3.066 -0.3028  0.5696  0.5120
 9058TIP3    H127138   4.646   0.417   3.053  0.4097  0.0662  1.6932
 9058TIP3    H227139   4.551   0.326   2.978  0.6516  1.1009  0.0586
 9059TIP3   OH227140   2.697   6.235   2.788  0.5963 -0.3172 -0.3451
 9059TIP3    H127141   2.747   6.306   2.748  0.3715 -0.1557 -0.3359
 9059TIP3    H227142   2.763   6.184   2.836  0.8356 -0.3862 -0.7337
 9060TIP3   OH227143   5.229   3.973   3.338  0.5742  0.4381  0.1986
 9060TIP3    H127144   5.187   4.045   3.290  0.4871  0.2765  0.0343
 9060TIP3    H227145   5.255   4.013   3.421  2.0771  1.1156 -0.5515
 9061TIP3   OH227146   1.047   2.232   1.699  0.1333 -0.3098  0.0155
 9061TIP3    H127147   0.971   2.229   1.640  0.0101 -1.6018  0.2316
 9061TIP3    H227148   1.009   2.235   1.787  0.3324  0.0040  0.0927
 9062TIP3   OH227149   2.464   3.071   2.376  0.0071 -0.0835  0.3606
 9062TIP3    H127150   2.411   3.034   2.305  0.7390 -1.1419  0.3424
 9062TIP3    H227151   2.450   3.166   2.370 -1.0273 -0.2681 -0.3154
 9063TIP3   OH227152   4.392   1.737   5.486 -0.1896  0.6715  0.0289
 9063TIP3    H127153   4.459   1.754   5.552  0.4509  1.4936 -0.8018
 9063TIP3    H227154   4.324   1.803   5.504 -0.4571  0.2934  0.4316
 9064TIP3   OH227155   5.445   2.670   5.753  0.3249  0.1312  0.7978
 9064TIP3    H127156   5.482   2.633   5.673 -0.8482 -1.0045  0.7582
 9064TIP3    H227157   5.522   2.695   5.805  1.3201 -3.6344  1.4512
 9065TIP3   OH227158   2.813   4.438   1.106  0.1543 -0.1354  0.0857
 9065TIP3    H127159   2.806   4.521   1.153  0.4121 -0.1665  0.1789
 9065TIP3    H227160   2.741   4.385   1.140 -1.0167  0.6164 -1.1258
 9066TIP3   OH227161   7.229   1.229   3.818  0.4227  0.2033 -0.4726
 9066TIP3    H127162   7.134   1.225   3.810  0.0039  1.7862  2.2617
 9066TIP3    H227163   7.254   1.304   3.764 -0.1401  0.8744  0.1805
 9067TIP3   OH227164   4.264   0.365   0.515  0.0649  0.4611 -0.4880
 9067TIP3    H127165   4.221   0.432   0.569 -0.7278 -1.2259  1.0662
 9067TIP3    H227166   4.331   0.328   0.571 -0.3817 -0.9411 -0.8438
 9068TIP3   OH227167   4.653   1.366   0.982 -0.3938 -0.0540  0.3799
 9068TIP3    H127168   4.599   1.406   1.051 -0.7894 -1.4917  0.9576
 9068TIP3    H227169   4.714   1.310   1.029 -0.7385 -1.1445 -0.4251
 9069TIP3   OH227170   6.951   0.921   3.247  0.4092 -0.3876 -0.2436
 9069TIP3    H127171   6.878   0.968   3.287 -1.8894 -1.7071 -2.5535
 9069TIP3    H227172   6.965   0.845   3.303 -0.2339 -0.3027  0.0407
 9070TIP3   OH227173   6.005   4.050   0.941  0.0957 -0.5229  0.7946
 9070TIP3    H127174   6.054   4.127   0.911 -0.3572 -0.3208  0.5608
 9070TIP3    H227175   6.057   3.976   0.912  0.3890 -0.3060  0.7637
 9071TIP3   OH227176   2.946   0.301   2.940  0.4100 -0.3370  0.2537
 9071TIP3    H127177   3.018   0.268   2.993  0.0094 -0.1121  0.9526
 9071TIP3    H227178   2.947   0.247   2.861  2.4099  0.7690 -0.5505
 9072TIP3   OH227179   5.222   1.523   2.731  0.3390  0.6149  0.0816
 9072TIP3    H127180   5.305   1.571   2.723 -0.1154  1.4055  0.0536
 9072TIP3    H227181   5.229   1.478   2.816  0.7935  0.6747  0.0824
 9073TIP3   OH227182   3.714   1.610   3.259  0.2799 -0.3147 -0.0900
 9073TIP3    H127183   3.808   1.627   3.245  0.5878 -0.8943  1.1237
 9073TIP3    H227184   3.690   1.550   3.189  0.9668 -0.6460 -0.0515
 9074TIP3   OH227185   5.756   3.266   4.800  0.1096  0.3899  0.3225
 9074TIP3    H127186   5.847   3.237   4.795 -0.0085 -0.0211  0.5175
 9074TIP3    H227187   5.709   3.212   4.737  0.2052  1.4417 -0.6793
 9075TIP3   OH227188   4.972   0.570   2.626 -0.0213 -0.1895  0.4382
 9075TIP3    H127189   4.964   0.627   2.550  0.9642  0.2765  0.6575
 9075TIP3    H227190   4.970   0.481   2.590  1.6478  0.0287 -0.3124
 9076TIP3   OH227191   2.502   0.118   3.256  0.2041  0.1529 -0.5722
 9076TIP3    H127192   2.548   0.055   3.312  0.1823  0.5065 -0.1520
 9076TIP3    H227193   2.554   0.198   3.263 -0.2210  0.4193 -0.4583
 9077TIP3   OH227194   1.010   2.543   1.179  0.2433  0.6498  0.6391
 9077TIP3    H127195   0.954   2.543   1.257  0.1459 -0.5833  0.5796
 9077TIP3    H227196   1.055   2.459   1.181 -1.1340 -0.2343 -1.5927
 9078TIP3   OH227197   2.363   4.567   5.635 -0.0753  0.0437  0.4163
 9078TIP3    H127198   2.311   4.579   5.714 -1.3912  2.3052 -0.6857
 9078TIP3    H227199   2.436   4.628   5.645  0.7790 -0.9903  0.6549
 9079TIP3   OH227200   3.130   1.766   0.074  0.1439 -0.0226 -0.1952
 9079TIP3    H127201   3.146   1.717   0.155  0.4814 -1.1058 -0.8945
 9079TIP3    H227202   3.186   1.843   0.080  2.5365 -1.6276 -0.7182
 9080TIP3   OH227203   1.971   5.945   4.096 -0.1319  0.4484  0.1746
 9080TIP3    H127204   2.061   5.974   4.078 -0.1230 -0.1780 -0.8607
 9080TIP3    H227205   1.933   6.016   4.147  1.1691  0.4109  1.2765
 9081TIP3   OH227206   3.446   2.656   1.076 -0.3766 -0.0311  0.0109
 9081TIP3    H127207   3.414   2.740   1.108 -1.8733 -0.5898  0.0998
 9081TIP3    H227208   3.405   2.592   1.135 -0.8493 -0.9142 -1.2431
 9082TIP3   OH227209   4.726   2.137   2.325 -0.4665 -0.4293  0.9273
 9082TIP3    H127210   4.674   2.078   2.381  0.9940 -0.6068  2.1552
 9082TIP3    H227211   4.810   2.145   2.370 -0.6357  2.7307  0.8688
 9083TIP3   OH227212   0.562   4.897   4.623  0.0796  0.1404 -0.0538
 9083TIP3    H127213   0.557   4.993   4.622 -0.7141  0.0941 -0.5240
 9083TIP3    H227214   0.488   4.868   4.570 -0.5281 -0.7628  1.2393
 9084TIP3   OH227215   3.343   4.581   5.208  0.1699 -0.0864  0.4666
 9084TIP3    H127216   3.370   4.672   5.214 -1.6072  0.7206 -2.1802
 9084TIP3    H227217   3.410   4.539   5.153  0.0172  0.0772  0.1552
 9085TIP3   OH227218   4.982   0.291   2.485  0.0358  0.2608  0.3233
 9085TIP3    H127219   5.060   0.272   2.434 -0.1966  1.9553 -0.7468
 9085TIP3    H227220   4.913   0.303   2.420 -0.7219  0.5087  1.1555
 9086TIP3   OH227221   1.553   1.458   2.468 -0.1085  0.2288 -0.3062
 9086TIP3    H127222   1.639   1.476   2.504  0.9834 -1.9849 -1.5552
 9086TIP3    H227223   1.503   1.422   2.541  0.2850  0.7782  0.2418
 9087TIP3   OH227224   3.704   6.105   2.778  0.0323 -0.2089  0.0606
 9087TIP3    H127225   3.722   6.101   2.872  0.7673 -0.2612 -0.0757
 9087TIP3    H227226   3.790   6.102   2.737 -0.1293  1.6895 -0.5562
 9088TIP3   OH227227   4.110   3.711   1.286  0.3264  0.6971  0.9392
 9088TIP3    H127228   4.192   3.664   1.270 -0.7187 -1.1514  0.7138
 9088TIP3    H227229   4.126   3.799   1.253  1.5547 -0.2045 -1.0589
 9089TIP3   OH227230   4.363   5.872   3.207  0.0892 -0.6124 -0.2288
 9089TIP3    H127231   4.305   5.798   3.217 -0.5549 -0.2742 -1.3129
 9089TIP3    H227232   4.328   5.939   3.266  1.5094 -1.6029  1.8676
 9090TIP3   OH227233   1.636   4.422   5.312 -0.3514  0.3777 -0.2963
 9090TIP3    H127234   1.609   4.504   5.353  0.0135  0.3399  0.0261
 9090TIP3    H227235   1.604   4.428   5.222 -0.1001  0.9816 -0.3479
 9091TIP3   OH227236   4.552   1.264   0.358 -0.9299 -0.1307  0.2358
 9091TIP3    H127237   4.476   1.243   0.413 -1.3339 -1.4448 -0.7937
 9091TIP3    H227238   4.549   1.201   0.287  0.9676  0.0043 -0.0089
 9092TIP3   OH227239   1.474   6.010   3.339 -0.0490 -0.0514  0.3670
 9092TIP3    H127240   1.503   6.050   3.421 -1.0436  0.3044  0.5630
 9092TIP3    H227241   1.543   5.948   3.317  0.0991 -0.3855  1.6568
 9093TIP3   OH227242   5.176   1.628   5.065 -0.0156  0.1104  0.1267
 9093TIP3    H127243   5.239   1.630   5.137 -1.4176  2.2705  1.3892
 9093TIP3    H227244   5.221   1.672   4.993  0.0145  1.5928  1.0007
 9094TIP3   OH227245   5.366   4.186   5.263 -0.0145 -0.6420  0.2134
 9094TIP3    H127246   5.288   4.160   5.312 -0.6093 -0.3924 -0.5924
 9094TIP3    H227247   5.408   4.104   5.239  0.1887 -0.7709  0.9777
 9095TIP3   OH227248   6.826   5.642   3.607 -0.1296  0.5498  0.2055
 9095TIP3    H127249   6.757   5.646   3.674 -0.7985  1.9477 -0.5374
 9095TIP3    H227250   6.779   5.653   3.524  0.7629 -0.5479 -0.4647
 9096TIP3   OH227251   4.517   4.039   4.801 -0.2540  0.5463  0.7302
 9096TIP3    H127252   4.577   4.100   4.844 -0.7049  1.0008  0.7298
 9096TIP3    H227253   4.452   4.019   4.868  0.2492 -0.4628  0.9432
 9097TIP3   OH227254   0.016   2.820   5.084  0.1647 -0.1082  0.2076
 9097TIP3    H127255  -0.062   2.853   5.039  0.1624 -0.3560  0.0270
 9097TIP3    H227256   0.050   2.896   5.132 -1.2540 -0.4340  1.8331
 9098TIP3   OH227257   6.135   0.402   0.480 -0.2526  0.7724  0.4583
 9098TIP3    H127258   6.108   0.443   0.562 -0.3619  1.7680 -0.0697
 9098TIP3    H227259   6.224   0.435   0.465 -0.7982  1.8289 -0.6040
 9099TIP3   OH227260   3.482   6.114   1.319 -0.3890  0.0782 -0.0198
 9099TIP3    H127261   3.387   6.122   1.309 -0.4496 -1.7012 -1.5188
 9099TIP3    H227262   3.513   6.204   1.332 -2.4543  0.4810  2.9121
 9100TIP3   OH227263   4.114   6.591   3.052 -0.7045 -0.4492 -0.1877
 9100TIP3    H127264   4.200   6.610   3.013 -0.4757  1.0979  1.0202
 9100TIP3    H227265   4.132   6.579   3.145 -2.0665  2.3948  0.5433
 9101TIP3   OH227266   2.391   5.474   0.592 -0.4885 -0.0842  1.1333
 9101TIP3    H127267   2.430   5.388   0.605  1.7115  0.6342 -0.0483
 9101TIP3    H227268   2.353   5.470   0.504  0.1351  0.3115  0.8398
 9102TIP3   OH227269   6.578   0.205   0.562  0.3829  0.5857 -0.5792
 9102TIP3    H127270   6.633   0.127   0.562 -0.8576 -0.3424  0.8557
 9102TIP3    H227271   6.625   0.267   0.618  0.7042  0.3638 -0.6031
 9103TIP3   OH227272   0.217   4.626   0.501  0.0682 -0.1144 -0.2283
 9103TIP3    H127273   0.165   4.661   0.573  0.6544  0.6137 -0.1519
 9103TIP3    H227274   0.239   4.702   0.447 -1.6163 -0.8057 -2.0359
 9104TIP3   OH227275   6.266   6.074   0.261  0.4691  0.0122  0.5024
 9104TIP3    H127276   6.291   5.988   0.294 -0.4579 -0.5804 -0.2849
 9104TIP3    H227277   6.171   6.073   0.260  0.4325  0.2049 -1.5808
 9105TIP3   OH227278   4.770   4.024   0.255 -0.1027 -0.5157  0.6151
 9105TIP3    H127279   4.848   4.073   0.233  0.3381 -1.7072 -0.6298
 9105TIP3    H227280   4.796   3.969   0.329 -0.1083 -0.0742  0.9450
 9106TIP3   OH227281   4.767   5.612   5.857 -0.4273  0.2693  0.6371
 9106TIP3    H127282   4.677   5.636   5.880 -1.0953 -1.6020  0.1840
 9106TIP3    H227283   4.809   5.593   5.941 -1.3121 -1.5005  0.7296
 9107TIP3   OH227284   6.459   2.818   5.446 -0.4001 -0.1151 -1.1483
 9107TIP3    H127285   6.411   2.740   5.472  0.2381 -0.1869 -0.0961
 9107TIP3    H227286   6.546   2.786   5.421  0.0080  0.2659 -0.2989
 9108TIP3   OH227287   1.417   5.336   3.781  0.4375  0.3052 -0.3491
 9108TIP3    H127288   1.379   5.421   3.800 -1.2971 -0.5873  0.4649
 9108TIP3    H227289   1.468   5.349   3.701  0.9270  2.2704  0.2301
 9109TIP3   OH227290   6.173   1.756   4.322 -0.0348 -0.0079 -0.2532
 9109TIP3    H127291   6.203   1.670   4.292  0.9156  0.8430 -1.9010
 9109TIP3    H227292   6.159   1.806   4.242 -2.2324  0.8876  0.6024
 9110TIP3   OH227293   1.103   2.530   0.095  0.5767  0.0656 -0.2301
 9110TIP3    H127294   1.108   2.584   0.174  0.2986 -1.3765  0.8263
 9110TIP3    H227295   1.009   2.519   0.079  0.6207 -0.4810 -0.1476
 9111TIP3   OH227296   0.134   1.186   0.869  0.7135 -0.3363 -0.3481
 9111TIP3    H127297   0.085   1.268   0.870 -0.5169 -1.0459 -0.3752
 9111TIP3    H227298   0.206   1.200   0.930 -1.0771 -0.1746  1.8430
 9112TIP3   OH227299   0.044   1.559   1.390 -0.0028  0.0070  0.2511
 9112TIP3    H127300   0.089   1.575   1.473  3.5664  1.8551 -1.7682
 9112TIP3    H227301  -0.040   1.603   1.400  0.1275 -0.1990  2.9987
 9113TIP3   OH227302   3.571   3.413   1.557  0.6588  0.5092  0.2828
 9113TIP3    H127303   3.565   3.429   1.463  0.8412  1.0690  0.3623
 9113TIP3    H227304   3.532   3.327   1.569  1.8804 -0.1803 -0.4909
 9114TIP3   OH227305   2.433   1.371   4.975 -0.0724  0.5836  0.1660
 9114TIP3    H127306   2.372   1.443   4.961  1.2268  1.4274 -1.3237
 9114TIP3    H227307   2.387   1.294   4.941 -1.0855  0.8389  0.9078
 9115TIP3   OH227308   6.513   3.115   5.743  0.2271 -0.1278  0.4118
 9115TIP3    H127309   6.490   3.125   5.651 -0.0931  0.7085  0.5683
 9115TIP3    H227310   6.604   3.145   5.748 -0.2475  1.3858  0.6136
 9116TIP3   OH227311   4.715   3.334   2.936  0.4581 -0.8617  0.1824
 9116TIP3    H127312   4.743   3.413   2.889  0.3447 -1.8132 -1.5607
 9116TIP3    H227313   4.746   3.262   2.881  0.5509 -2.0482  1.7344
 9117TIP3   OH227314   6.957   4.278   0.111 -0.1331  0.1457  0.3620
 9117TIP3    H127315   6.972   4.272   0.205 -1.4992  0.0982  0.5897
 9117TIP3    H227316   6.882   4.336   0.101 -0.3380 -0.2641 -0.6648
 9118TIP3   OH227317   5.838   2.817   1.555  0.0424  0.1956  0.1784
 9118TIP3    H127318   5.788   2.899   1.554 -0.8690 -0.3373  0.8263
 9118TIP3    H227319   5.844   2.795   1.648 -0.3482 -0.8534 -0.0406
 9119TIP3   OH227320   2.311   4.490   2.713  0.1892  0.0686 -0.2803
 9119TIP3    H127321   2.267   4.443   2.642 -1.6100  1.0279  0.1670
 9119TIP3    H227322   2.359   4.560   2.669  0.5671 -0.4404 -0.6933
 9120TIP3   OH227323   0.732   0.825   3.818  0.5651  0.5427 -0.2608
 9120TIP3    H127324   0.738   0.891   3.887  2.2494  0.7097 -0.5278
 9120TIP3    H227325   0.722   0.876   3.738 -0.4932  0.3791 -0.2419
 9121TIP3   OH227326   4.866   0.403   0.542  0.3436 -0.0453 -0.0899
 9121TIP3    H127327   4.816   0.467   0.490 -0.9217 -0.7478  0.2333
 9121TIP3    H227328   4.946   0.450   0.566 -0.9725  1.7760  0.9795
 9122TIP3   OH227329   1.935   5.149   1.773 -0.0593  0.1734  0.0434
 9122TIP3    H127330   2.028   5.171   1.770 -0.2668  0.9400 -1.1986
 9122TIP3    H227331   1.890   5.234   1.771 -0.8269 -0.2370 -1.7834
 9123TIP3   OH227332   4.161   1.025   4.468 -0.1800  0.2674  0.4666
 9123TIP3    H127333   4.228   0.962   4.442 -0.7423  0.1916 -0.8722
 9123TIP3    H227334   4.083   1.000   4.417 -0.6756  1.4856  0.5909
 9124TIP3   OH227335   0.289   2.792   3.356 -0.1406 -0.7420  0.0921
 9124TIP3    H127336   0.353   2.724   3.375  0.8040 -0.0028 -0.3576
 9124TIP3    H227337   0.285   2.795   3.260 -1.0117 -0.9313  0.1189
 9125TIP3   OH227338   3.489   6.598   3.667 -0.5280  0.5628 -0.0554
 9125TIP3    H127339   3.523   6.597   3.757  3.3382  0.9046 -1.3484
 9125TIP3    H227340   3.472   6.690   3.649 -1.1631  0.5092  0.2167
 9126TIP3   OH227341   5.680   4.818   1.310 -0.0833 -0.3227 -0.0700
 9126TIP3    H127342   5.766   4.841   1.343 -1.3281  0.9051  2.5981
 9126TIP3    H227343   5.648   4.897   1.267 -0.0142 -0.6755 -0.7856
 9127TIP3   OH227344   5.135   4.899   5.717 -0.1713  0.3245  0.5889
 9127TIP3    H127345   5.206   4.848   5.757 -0.6952 -1.9483 -1.2097
 9127TIP3    H227346   5.069   4.906   5.786  0.5020 -0.2046  1.3091
 9128TIP3   OH227347   6.865   0.928   5.301 -0.3227 -0.4197 -0.6209
 9128TIP3    H127348   6.793   0.973   5.345  1.6229  1.6159  0.7098
 9128TIP3    H227349   6.899   0.993   5.239  1.3723 -0.6841 -0.0153
 9129TIP3   OH227350   1.784   1.571   5.202  0.2089 -0.0857  0.0687
 9129TIP3    H127351   1.771   1.476   5.201  2.5586 -0.4922  1.0116
 9129TIP3    H227352   1.799   1.592   5.295  1.5504  0.8761 -0.3282
 9130TIP3   OH227353   4.749   0.419   3.391 -0.5534 -0.3077  0.0337
 9130TIP3    H127354   4.835   0.399   3.428 -0.9482 -0.1466  1.0586
 9130TIP3    H227355   4.720   0.498   3.437  0.4900  2.1788 -3.1274
 9131TIP3   OH227356   1.810   2.158   3.402  0.0103  0.2306  0.3159
 9131TIP3    H127357   1.825   2.065   3.386 -1.6802  0.0937 -0.6640
 9131TIP3    H227358   1.897   2.194   3.417  1.3028 -0.7008 -3.7192
 9132TIP3   OH227359   6.028   1.649   1.271  0.6838  0.5768  0.2295
 9132TIP3    H127360   6.085   1.586   1.227 -1.1048 -0.2238 -1.0547
 9132TIP3    H227361   6.054   1.734   1.233  0.0129  0.0402 -1.5336
 9133TIP3   OH227362   0.551   2.225   5.021 -0.5093  0.2646 -0.3576
 9133TIP3    H127363   0.545   2.305   5.073  2.4121 -0.4288  1.2520
 9133TIP3    H227364   0.642   2.198   5.028 -1.4591 -3.5154 -0.3998
 9134TIP3   OH227365   4.462   1.188   5.292  0.4433  0.2853 -0.5431
 9134TIP3    H127366   4.462   1.100   5.330  2.8650  0.0450 -0.9539
 9134TIP3    H227367   4.391   1.186   5.227  0.6164 -1.4523 -0.7250
 9135TIP3   OH227368   0.091   3.495   2.255 -0.1044  0.7658  0.1718
 9135TIP3    H127369   0.105   3.497   2.349  0.6900  1.3933  0.0439
 9135TIP3    H227370   0.133   3.413   2.226  1.4137  1.5341  0.1041
 9136TIP3   OH227371   6.215   6.813   2.119 -0.0541 -0.4560  0.3275
 9136TIP3    H127372   6.191   6.862   2.198  0.7172 -0.2635  0.4509
 9136TIP3    H227373   6.186   6.724   2.136 -2.7022  0.1712 -0.4348
 9137TIP3   OH227374   4.352   4.951   5.013 -0.0261 -0.1507 -0.1039
 9137TIP3    H127375   4.383   4.863   4.992  0.1268  0.3143 -2.0422
 9137TIP3    H227376   4.426   5.008   4.991 -0.3867  0.5195  0.4088
 9138TIP3   OH227377   3.845   3.291   1.714 -0.0049  0.0629 -0.0311
 9138TIP3    H127378   3.830   3.277   1.620 -1.3384  1.5600 -0.0919
 9138TIP3    H227379   3.820   3.382   1.728 -2.9772 -0.9652  2.3365
 9139TIP3   OH227380   2.018   3.888   4.095 -0.3623  0.7206 -0.3476
 9139TIP3    H127381   2.049   3.889   4.004 -2.7151  1.6409 -1.2280
 9139TIP3    H227382   1.979   3.975   4.108 -0.3390  0.4982  1.4551
 9140TIP3   OH227383   6.365   3.948   4.139 -0.0857  0.3493  0.6929
 9140TIP3    H127384   6.397   3.952   4.229 -0.7169  0.7199  0.9032
 9140TIP3    H227385   6.297   3.881   4.141 -1.0300  1.2890  0.7935
 9141TIP3   OH227386   2.553   5.724   0.751 -0.5613 -0.3776 -0.7471
 9141TIP3    H127387   2.477   5.675   0.782 -1.0520  0.6091 -0.3624
 9141TIP3    H227388   2.617   5.656   0.728 -0.7545 -1.1915  0.9500
 9142TIP3   OH227389   4.869   4.278   0.450 -0.1756 -0.1287  0.4350
 9142TIP3    H127390   4.893   4.349   0.510  2.6876  0.5596 -1.3113
 9142TIP3    H227391   4.852   4.203   0.506  1.1537  0.7911  2.1578
 9143TIP3   OH227392   0.648   4.485   0.375 -0.4786  0.4914  0.6803
 9143TIP3    H127393   0.709   4.424   0.416 -0.3540  1.0817  1.4040
 9143TIP3    H227394   0.561   4.449   0.393 -0.3940  0.3419  0.7937
 9144TIP3   OH227395   5.702   6.192   2.298  0.5961  0.2011 -0.4290
 9144TIP3    H127396   5.770   6.240   2.345  2.3185  0.3582 -2.8674
 9144TIP3    H227397   5.640   6.259   2.270  0.4454  0.3192  0.1588
 9145TIP3   OH227398   6.085   0.917   0.689  0.1328 -0.3540 -0.1995
 9145TIP3    H127399   6.017   0.984   0.700  0.5422  0.3167 -1.5654
 9145TIP3    H227400   6.050   0.858   0.622  0.7174 -0.2371 -0.6115
 9146TIP3   OH227401   1.001   6.743   1.503  0.0587  0.3823  0.5428
 9146TIP3    H127402   0.942   6.801   1.551  1.1931  2.6531 -0.6393
 9146TIP3    H227403   1.001   6.777   1.413  1.1297 -1.2094 -0.1152
 9147TIP3   OH227404   6.191   0.364   3.030 -0.2956 -0.1140  0.0749
 9147TIP3    H127405   6.101   0.358   2.999  0.0936 -0.5585 -1.0368
 9147TIP3    H227406   6.209   0.457   3.034 -0.8023 -0.0221  0.3138
 9148TIP3   OH227407   5.123   3.958   4.876 -0.6779  0.1385 -0.3054
 9148TIP3    H127408   5.192   3.982   4.939  0.3377  2.4147 -2.1441
 9148TIP3    H227409   5.123   3.862   4.876  1.1348  0.0711  1.1733
 9149TIP3   OH227410   2.350   3.162   4.159  0.4322  0.1252 -0.2550
 9149TIP3    H127411   2.289   3.230   4.188  1.5425  0.7683  0.6496
 9149TIP3    H227412   2.436   3.203   4.163  0.9193 -0.6486 -1.8568
 9150TIP3   OH227413   2.076   4.995   0.268 -0.1155  0.0505 -0.1724
 9150TIP3    H127414   2.078   4.981   0.173  0.3356  1.7794 -0.4504
 9150TIP3    H227415   2.140   4.933   0.302  0.2837 -0.0561 -1.0882
 9151TIP3   OH227416   6.018   6.522   3.654 -0.3318 -0.1341 -0.1574
 9151TIP3    H127417   5.968   6.546   3.576  1.9994  0.8374 -1.4686
 9151TIP3    H227418   5.996   6.431   3.670 -1.5369 -0.0992 -1.4154
 9152TIP3   OH227419   3.304   3.551   3.228 -0.4532 -0.3243  0.1946
 9152TIP3    H127420   3.268   3.636   3.200 -1.2688  0.3180  2.9430
 9152TIP3    H227421   3.397   3.556   3.204 -0.6247  1.0682 -0.2966
 9153TIP3   OH227422   2.355   5.104   1.371 -0.0668  0.0836  0.1385
 9153TIP3    H127423   2.416   5.100   1.445 -0.5864  0.1321  0.5728
 9153TIP3    H227424   2.392   5.171   1.313 -0.2352  0.8303  0.8783
 9154TIP3   OH227425   3.508   1.515   3.486  1.0619 -0.4077 -0.3560
 9154TIP3    H127426   3.557   1.511   3.404  1.2487  1.0443 -0.3288
 9154TIP3    H227427   3.426   1.470   3.467  1.4297 -0.7753 -1.0982
 9155TIP3   OH227428   6.054   1.185   4.368  0.1283  0.6545  0.1166
 9155TIP3    H127429   6.144   1.154   4.380  0.5335  1.6458 -0.2462
 9155TIP3    H227430   6.032   1.160   4.279  0.1613  0.6957  0.0968
 9156TIP3   OH227431   1.173   3.230   3.186  0.0539 -0.1857  0.2788
 9156TIP3    H127432   1.135   3.276   3.261 -0.7464  0.8725 -0.7478
 9156TIP3    H227433   1.146   3.281   3.110  3.1891  0.4158 -0.5806
 9157TIP3   OH227434   0.891   2.493   4.661  1.0294  1.1586 -0.1023
 9157TIP3    H127435   0.919   2.410   4.701  1.9336  1.0739 -0.8724
 9157TIP3    H227436   0.825   2.527   4.721  0.6625 -0.1065  0.2503
 9158TIP3   OH227437   3.677   2.543   3.663  0.3149  0.1077 -0.1037
 9158TIP3    H127438   3.678   2.453   3.696  1.3199 -0.0024 -0.4148
 9158TIP3    H227439   3.658   2.597   3.740 -0.8840 -0.3987 -0.0210
 9159TIP3   OH227440   5.848   6.007   2.912 -0.6381  0.3116  0.6004
 9159TIP3    H127441   5.821   6.002   2.820  1.2942  0.5027 -0.0068
 9159TIP3    H227442   5.770   6.040   2.957 -1.5512  0.4602 -0.9920
 9160TIP3   OH227443   5.396   3.635   1.395  0.5956 -0.1890 -0.6795
 9160TIP3    H127444   5.448   3.620   1.474  2.8258  1.6808 -1.6797
 9160TIP3    H227445   5.311   3.595   1.415  0.7864  0.8216  2.9232
 9161TIP3   OH227446   4.917   1.411   1.295 -0.2873  0.1697 -0.0303
 9161TIP3    H127447   4.960   1.375   1.217 -0.2805 -0.5233  0.2873
 9161TIP3    H227448   4.828   1.430   1.266  0.3623  2.2220 -0.8739
 9162TIP3   OH227449   0.791   4.360   1.412 -0.1462 -0.1818 -0.2625
 9162TIP3    H127450   0.812   4.316   1.495  1.4854 -1.3553 -1.2416
 9162TIP3    H227451   0.738   4.297   1.363  1.7222 -0.9271 -1.4367
 9163TIP3   OH227452   5.965   1.446   5.426  0.3602 -0.5334 -0.0205
 9163TIP3    H127453   5.963   1.352   5.441  3.6921 -0.5018  1.4530
 9163TIP3    H227454   5.896   1.481   5.483  0.2122 -1.9547  0.7026
 9164TIP3   OH227455   2.553   6.739   2.145 -0.0238 -0.6926  0.0702
 9164TIP3    H127456   2.524   6.649   2.127 -1.2244 -0.3588  0.2550
 9164TIP3    H227457   2.491   6.794   2.098  1.4912  0.0453 -1.1453
 9165TIP3   OH227458   1.174   0.198   0.155  0.5424  0.0271  0.0114
 9165TIP3    H127459   1.146   0.215   0.245 -4.2523 -1.2665 -0.9211
 9165TIP3    H227460   1.175   0.102   0.148  1.5013  0.0957 -1.1891
 9166TIP3   OH227461   3.493   5.039   1.187 -0.3814  0.2851  0.2739
 9166TIP3    H127462   3.573   5.039   1.239 -0.6753  1.1354  0.7422
 9166TIP3    H227463   3.513   4.981   1.113  0.2418 -0.4657  1.0105
 9167TIP3   OH227464   5.409   5.933   5.092 -0.4231 -0.3911 -0.2867
 9167TIP3    H127465   5.467   6.000   5.130 -1.1488  0.2019 -0.2185
 9167TIP3    H227466   5.321   5.967   5.105 -0.7344 -0.5656 -1.7721
 9168TIP3   OH227467   3.843   6.282   3.773 -0.2609  0.0696 -0.2107
 9168TIP3    H127468   3.777   6.263   3.840  0.5736 -2.2706  0.0402
 9168TIP3    H227469   3.917   6.226   3.796  0.5072  0.0946 -2.4120
 9169TIP3   OH227470   6.972   6.317   0.674 -0.3954 -0.0182  0.2035
 9169TIP3    H127471   6.894   6.357   0.712  0.3832  1.2673  0.5164
 9169TIP3    H227472   6.957   6.320   0.580 -0.4153  0.9349  0.2236
 9170TIP3   OH227473   6.602   4.959   0.410 -0.0556 -0.5560 -0.1779
 9170TIP3    H127474   6.586   4.893   0.477 -0.8326  0.4614  0.6672
 9170TIP3    H227475   6.536   5.027   0.426 -0.6863 -0.5740 -2.3634
 9171TIP3   OH227476   1.480   2.142   3.171  0.4307 -0.3097  0.2294
 9171TIP3    H127477   1.386   2.140   3.189  0.6282 -0.3180  1.3451
 9171TIP3    H227478   1.511   2.220   3.217  1.0088 -0.4474  0.0782
 9172TIP3   OH227479   0.450   2.138   2.109 -0.5241 -0.1274 -0.3973
 9172TIP3    H127480   0.515   2.076   2.077  0.8760 -0.3276  2.5330
 9172TIP3    H227481   0.376   2.084   2.135 -0.4860 -0.2633 -0.5680
 9173TIP3   OH227482   3.138   4.920   5.250  0.2197  0.0404  0.3855
 9173TIP3    H127483   3.141   4.838   5.202  0.3890 -0.2748  0.9284
 9173TIP3    H227484   3.090   4.899   5.330 -0.7595  0.7465  0.0050
 9174TIP3   OH227485   2.474   5.833   4.266 -0.0136 -0.5239  0.2422
 9174TIP3    H127486   2.404   5.830   4.331  1.4631 -0.1152  1.9166
 9174TIP3    H227487   2.547   5.786   4.307  0.8780 -0.5024 -1.2465
 9175TIP3   OH227488   2.424   6.347   0.783  0.2319  0.4971  0.0319
 9175TIP3    H127489   2.503   6.298   0.806  1.2326  1.7760 -0.5808
 9175TIP3    H227490   2.420   6.418   0.846 -0.8601  0.0324  0.5190
 9176TIP3   OH227491   1.639   4.522   4.163  0.2571 -0.0576  0.0602
 9176TIP3    H127492   1.589   4.459   4.214  0.5569 -0.3813 -0.0468
 9176TIP3    H227493   1.701   4.470   4.111  0.2799  0.2954 -0.2815
 9177TIP3   OH227494   1.239   2.883   3.743 -0.1893 -0.3526 -0.2615
 9177TIP3    H127495   1.185   2.805   3.736  0.3628 -0.6680 -1.2528
 9177TIP3    H227496   1.187   2.944   3.796  0.3963 -2.2341  2.7108
 9178TIP3   OH227497   5.397   0.914   5.544 -0.4071 -0.3149  0.0430
 9178TIP3    H127498   5.470   0.926   5.482 -0.5562  1.4147  0.1735
 9178TIP3    H227499   5.323   0.891   5.488 -0.1133 -0.6425 -0.2251
 9179TIP3   OH227500   2.255   4.161   2.834 -0.7765  0.1462  0.1328
 9179TIP3    H127501   2.159   4.168   2.830 -0.6864  0.9330 -1.8278
 9179TIP3    H227502   2.282   4.148   2.743  0.9044 -1.8611  0.8458
 9180TIP3   OH227503   4.181   2.374   0.288  0.2551 -0.4288  0.6283
 9180TIP3    H127504   4.121   2.440   0.253 -1.4491 -1.6067  1.1823
 9180TIP3    H227505   4.212   2.327   0.210  2.4192  1.6641  0.1044
 9181TIP3   OH227506   5.787   2.291   4.565 -0.3600 -0.3088 -0.5529
 9181TIP3    H127507   5.750   2.379   4.575 -2.2294 -1.2333  1.6742
 9181TIP3    H227508   5.740   2.254   4.491 -0.6813  0.0626 -0.5386
 9182TIP3   OH227509   5.852   3.306   2.330  0.3818  0.1798 -0.0627
 9182TIP3    H127510   5.772   3.253   2.329  0.5200 -0.0708  0.9588
 9182TIP3    H227511   5.916   3.253   2.281  0.7650 -1.0500  1.6664
 9183TIP3   OH227512   1.465   3.303   0.906  0.2402  0.8202 -0.3601
 9183TIP3    H127513   1.494   3.302   0.997  1.4477 -1.8261 -0.6993
 9183TIP3    H227514   1.380   3.348   0.909 -1.5166 -2.1806  2.7046
 9184TIP3   OH227515   5.185   6.457   2.011  0.3995 -0.2323  0.4660
 9184TIP3    H127516   5.217   6.453   2.101  0.9298 -0.2723  0.2757
 9184TIP3    H227517   5.103   6.507   2.017  1.2392  1.1709  0.7516
 9185TIP3   OH227518   0.058   6.420   0.101  0.2984  0.0981 -0.3408
 9185TIP3    H127519   0.022   6.355   0.040 -3.1221  1.9742 -0.5617
 9185TIP3    H227520   0.113   6.476   0.046 -0.7045  0.2762 -1.1881
 9186TIP3   OH227521   6.857   5.175   3.719 -0.7507  0.1075 -0.0958
 9186TIP3    H127522   6.802   5.232   3.665 -0.8285 -1.0928 -1.3422
 9186TIP3    H227523   6.846   5.207   3.808 -1.0494  1.8160 -0.7182
 9187TIP3   OH227524   2.505   3.756   3.887 -0.3098 -0.3230  0.0594
 9187TIP3    H127525   2.598   3.740   3.899 -0.3325 -0.3341  0.2154
 9187TIP3    H227526   2.467   3.750   3.975 -0.8920 -3.1430 -0.2988
 9188TIP3   OH227527   2.784   2.694   5.223 -0.1689 -0.7170  0.0964
 9188TIP3    H127528   2.742   2.768   5.179  1.0321 -0.6738 -1.0453
 9188TIP3    H227529   2.723   2.670   5.294  0.0108  2.2262  1.4108
 9189TIP3   OH227530   4.962   5.200   2.570 -0.2840  0.1812  0.1414
 9189TIP3    H127531   4.881   5.244   2.544 -1.2687 -0.5233  1.8341
 9189TIP3    H227532   4.969   5.126   2.509 -0.0559  1.1319 -1.0059
 9190TIP3   OH227533   2.477   1.282   3.610  0.0916 -0.4060  0.1741
 9190TIP3    H127534   2.441   1.232   3.684 -0.6707 -0.6786 -0.3660
 9190TIP3    H227535   2.542   1.223   3.572  1.2356  0.1365  1.2310
 9191TIP3   OH227536   5.441   0.674   4.683 -0.1090 -0.3016 -0.3116
 9191TIP3    H127537   5.534   0.681   4.664  0.2671  2.9347  1.9202
 9191TIP3    H227538   5.433   0.597   4.739  1.1808 -0.6721 -0.6225
 9192TIP3   OH227539   4.754   0.726   2.012  0.1085 -0.8119 -0.1138
 9192TIP3    H127540   4.802   0.643   2.012  1.1259 -0.2905 -2.1297
 9192TIP3    H227541   4.720   0.734   1.923  0.5743  1.1948 -0.1686
 9193TIP3   OH227542   0.897   4.937   5.218 -0.0780 -0.7460  0.4841
 9193TIP3    H127543   0.855   4.944   5.132  0.0098 -0.4875  0.4604
 9193TIP3    H227544   0.887   5.024   5.257 -1.4809 -1.2766  1.3805
 9194TIP3   OH227545   2.452   5.809   0.501  0.1539 -0.4171 -0.2812
 9194TIP3    H127546   2.485   5.783   0.587  0.1290 -0.2046 -0.2065
 9194TIP3    H227547   2.440   5.904   0.508  0.8035 -0.2948 -0.7371
 9195TIP3   OH227548   2.915   5.754   0.173 -0.1713 -0.2536 -0.4572
 9195TIP3    H127549   2.955   5.708   0.100 -0.9618 -2.9144  0.6798
 9195TIP3    H227550   2.915   5.846   0.146 -0.3698 -1.0941 -3.7569
 9196TIP3   OH227551   3.096   6.277   1.423 -0.1314 -0.2336  0.7839
 9196TIP3    H127552   3.068   6.329   1.499 -0.7040  0.9399 -0.1931
 9196TIP3    H227553   3.015   6.239   1.389 -0.1389  0.6289 -0.2119
 9197TIP3   OH227554   4.441   1.022   2.995 -0.0549 -0.4887  0.4526
 9197TIP3    H127555   4.372   1.006   3.060  0.7958 -0.7019  1.3260
 9197TIP3    H227556   4.490   0.940   2.991 -0.5052 -0.7187 -0.9973
 9198TIP3   OH227557   2.039   1.953   1.731  0.6877 -0.2786  0.2143
 9198TIP3    H127558   2.055   2.048   1.729  1.0217 -0.3468 -1.3631
 9198TIP3    H227559   2.125   1.914   1.717  0.4351 -0.8152  0.1632
 9199TIP3   OH227560   6.229   0.922   2.830  0.6964  0.4859 -0.1678
 9199TIP3    H127561   6.277   0.905   2.911 -0.6015 -0.3374  0.4744
 9199TIP3    H227562   6.139   0.897   2.851 -0.2258  2.7709 -1.0323
 9200TIP3   OH227563   3.120   3.056   5.733 -0.7289 -0.0240 -0.0375
 9200TIP3    H127564   3.165   3.042   5.650 -1.0169  0.0117 -0.2009
 9200TIP3    H227565   3.029   3.036   5.715 -0.9675  0.9633  0.0071
 9201TIP3   OH227566   6.704   1.606   5.054  0.0383  0.7528  0.3411
 9201TIP3    H127567   6.613   1.604   5.027  0.7258  1.3010 -2.2969
 9201TIP3    H227568   6.719   1.698   5.078 -0.0158  0.7305  0.4617
 9202TIP3   OH227569   6.399   2.101   1.131  0.4107  0.1817 -0.8691
 9202TIP3    H127570   6.335   2.117   1.201  0.6717  0.0396 -0.5959
 9202TIP3    H227571   6.484   2.118   1.172  0.5361  0.6826 -1.3159
 9203TIP3   OH227572   3.088   0.130   0.376  0.7885  0.2965 -0.5619
 9203TIP3    H127573   3.039   0.117   0.457 -0.5707  2.4433 -0.9512
 9203TIP3    H227574   3.063   0.056   0.320  0.6940 -0.4699  0.4793
 9204TIP3   OH227575   2.126   3.630   3.828  0.2410  0.6258  0.1711
 9204TIP3    H127576   2.067   3.559   3.851  0.4871  0.2534 -0.3299
 9204TIP3    H227577   2.211   3.588   3.813  0.6962  1.1802  1.1017
 9205TIP3   OH227578   1.469   5.047   1.786  0.0341  0.0542 -0.4508
 9205TIP3    H127579   1.492   5.138   1.765  0.2114 -0.0810 -0.8318
 9205TIP3    H227580   1.536   4.994   1.744 -0.7244 -0.3183 -1.2324
 9206TIP3   OH227581   4.504   4.694   0.276  0.1476 -0.5008 -0.4096
 9206TIP3    H127582   4.464   4.724   0.195 -0.4343  0.7713  0.3291
 9206TIP3    H227583   4.577   4.754   0.291  0.4129 -0.8905 -0.1066
 9207TIP3   OH227584   1.819   2.224   1.224  0.2135  0.0199 -0.2486
 9207TIP3    H127585   1.806   2.145   1.172  3.8451 -0.6529 -0.4257
 9207TIP3    H227586   1.809   2.194   1.315 -0.8239 -0.0478 -0.3764
 9208TIP3   OH227587   1.392   1.254   1.980 -0.2174  0.1456  0.2336
 9208TIP3    H127588   1.481   1.268   1.947  0.2317  0.8355  1.6455
 9208TIP3    H227589   1.405   1.214   2.066 -1.1917  1.9360  1.2587
 9209TIP3   OH227590   5.406   1.512   4.084 -0.3736 -0.0167  0.1004
 9209TIP3    H127591   5.357   1.588   4.053 -0.0052  0.1755 -0.0190
 9209TIP3    H227592   5.380   1.501   4.175 -0.2916  0.3655  0.1724
 9210TIP3   OH227593   0.565   4.783   5.639 -0.2270 -0.2682  0.0575
 9210TIP3    H127594   0.498   4.850   5.647 -2.2469 -1.9594 -1.7716
 9210TIP3    H227595   0.555   4.729   5.717 -1.2002 -0.6774 -0.3474
 9211TIP3   OH227596   4.177   6.230   4.867  0.1856  0.2021  0.0294
 9211TIP3    H127597   4.188   6.226   4.962 -1.5717  1.7836  0.3673
 9211TIP3    H227598   4.110   6.165   4.847 -0.3995  0.7761  0.0824
 9212TIP3   OH227599   5.455   0.036   0.348 -0.5091 -0.3661 -0.1210
 9212TIP3    H127600   5.537  -0.012   0.358 -0.5153 -0.0989  1.5261
 9212TIP3    H227601   5.482   0.127   0.332 -0.4773 -0.2458  0.6029
 9213TIP3   OH227602   6.059   4.856   5.828  0.4556 -0.7794 -0.3219
 9213TIP3    H127603   6.041   4.893   5.742 -0.5831 -1.4561 -0.4166
 9213TIP3    H227604   5.976   4.816   5.855  0.2039  0.9154  1.7482
 9214TIP3   OH227605   2.026   3.200   1.425  0.1568  0.1887  0.2282
 9214TIP3    H127606   2.093   3.254   1.466  1.3768 -2.0118  1.3510
 9214TIP3    H227607   2.055   3.190   1.334 -0.1732  1.4658 -0.0426
 9215TIP3   OH227608   0.861   1.636   3.273 -0.1561  0.2092  0.1000
 9215TIP3    H127609   0.931   1.695   3.300  1.5500 -1.2163 -0.9730
 9215TIP3    H227610   0.886   1.550   3.308 -0.8769 -0.5178 -1.0817
 9216TIP3   OH227611   2.999   2.797   5.347  0.2604 -0.2702  0.3743
 9216TIP3    H127612   2.907   2.788   5.324  0.3484 -1.0917  0.3205
 9216TIP3    H227613   3.045   2.746   5.280  0.7614  0.2137  0.3454
 9217TIP3   OH227614   6.776   5.837   4.396  0.2852 -0.1718 -0.1519
 9217TIP3    H127615   6.810   5.883   4.319  0.1822  0.8387  0.3918
 9217TIP3    H227616   6.850   5.785   4.427  0.1755 -1.0304 -1.2292
 9218TIP3   OH227617   7.179   5.073   1.505 -0.3418  0.3278  0.3553
 9218TIP3    H127618   7.085   5.069   1.489  0.0296  0.9412 -2.4139
 9218TIP3    H227619   7.218   5.011   1.444  1.2118  2.4133 -0.9458
 9219TIP3   OH227620   5.212   4.401   4.795 -0.1458 -0.5164 -0.0963
 9219TIP3    H127621   5.291   4.364   4.756  0.0907 -0.7596  0.6043
 9219TIP3    H227622   5.141   4.344   4.765 -0.3206  0.6626 -2.1134
 9220TIP3   OH227623   3.799   2.317   5.483  0.7927 -0.4811  0.2342
 9220TIP3    H127624   3.887   2.324   5.445  0.7301  0.8751  0.3005
 9220TIP3    H227625   3.798   2.383   5.553 -0.6383  0.3273 -0.5055
 9221TIP3   OH227626   0.324   0.233   0.356  0.1366  0.0030 -0.0677
 9221TIP3    H127627   0.262   0.305   0.360 -0.3457 -0.3739 -0.6401
 9221TIP3    H227628   0.275   0.157   0.388 -0.1188 -0.5696 -1.7663
 9222TIP3   OH227629   4.211   4.869   1.391  0.3933  0.3705  0.5281
 9222TIP3    H127630   4.176   4.957   1.401 -2.4471 -0.6207  0.3995
 9222TIP3    H227631   4.199   4.848   1.299  0.4638 -0.3597  0.6769
 9223TIP3   OH227632   5.267   3.098   2.089 -0.2625  0.3803  0.2195
 9223TIP3    H127633   5.193   3.088   2.148  0.4194 -0.4816  0.9615
 9223TIP3    H227634   5.334   3.143   2.140  0.3034 -0.2931  0.1004
 9224TIP3   OH227635   1.736   5.921   2.876 -0.0787  0.1448 -0.1670
 9224TIP3    H127636   1.704   5.955   2.960 -0.5348  1.9875 -1.0248
 9224TIP3    H227637   1.831   5.936   2.880 -0.1339  0.4972 -0.0803
 9225TIP3   OH227638   4.495   1.699   1.075 -0.0972  0.2015 -0.1223
 9225TIP3    H127639   4.429   1.747   1.125 -0.8995 -0.5906 -0.4041
 9225TIP3    H227640   4.453   1.679   0.992  0.1848 -1.0754  0.0227
 9226TIP3   OH227641   0.490   6.177   0.449 -0.1726 -0.0097  0.1305
 9226TIP3    H127642   0.518   6.244   0.511 -0.6653  0.4347 -0.1276
 9226TIP3    H227643   0.572   6.146   0.410  0.0002  0.9761 -0.3030
 9227TIP3   OH227644   3.833   3.970   0.417  0.2129 -0.4276 -0.1973
 9227TIP3    H127645   3.817   3.882   0.449 -1.7160  0.1512  0.5530
 9227TIP3    H227646   3.915   3.963   0.369  0.0989 -2.6196 -0.1773
 9228TIP3   OH227647   5.984   2.114   0.025 -0.9215  0.1616 -0.0747
 9228TIP3    H127648   5.911   2.126   0.086 -0.8430 -1.3796  0.3797
 9228TIP3    H227649   5.951   2.052  -0.040 -0.8064  1.3425 -1.3046
 9229TIP3   OH227650   2.256   6.709   0.987  0.8401  0.0178 -0.2688
 9229TIP3    H127651   2.243   6.777   0.920 -0.1347  0.3203  0.2158
 9229TIP3    H227652   2.194   6.640   0.964  0.7401 -0.0266  0.1314
 9230TIP3   OH227653   5.014   4.354   5.643 -0.0167  0.5026  0.2950
 9230TIP3    H127654   5.062   4.436   5.652  0.5477  0.2681 -0.4555
 9230TIP3    H227655   4.929   4.380   5.607  0.6179  0.6597 -1.1621
 9231TIP3   OH227656   2.144   4.663   5.425  0.2087  0.4430  0.0416
 9231TIP3    H127657   2.159   4.572   5.450  0.8429  0.6746  0.5337
 9231TIP3    H227658   2.080   4.695   5.488 -0.3096  0.2348 -0.3700
 9232TIP3   OH227659   3.321   0.358   3.871 -0.4186  0.0972  0.4080
 9232TIP3    H127660   3.335   0.419   3.943 -2.3368  0.3768  0.6080
 9232TIP3    H227661   3.245   0.393   3.825 -1.3152 -1.8848  0.2779
 9233TIP3   OH227662   5.330   0.441   4.841  0.4398  0.4369  0.8322
 9233TIP3    H127663   5.271   0.379   4.798  0.4606  0.3462  0.9341
 9233TIP3    H227664   5.272   0.509   4.876  0.3130 -0.1034  1.6915
 9234TIP3   OH227665   4.891   3.625   5.073  0.0039 -0.0675 -0.0369
 9234TIP3    H127666   4.838   3.681   5.130 -0.2597  0.5172 -0.8401
 9234TIP3    H227667   4.906   3.678   4.995  1.0916 -0.5308 -0.1575
 9235TIP3   OH227668   6.551   5.251   2.788  0.0619  0.5422  0.9590
 9235TIP3    H127669   6.566   5.204   2.870  1.9054 -0.1124  0.2787
 9235TIP3    H227670   6.634   5.295   2.770 -1.6232  4.4616  1.7443
 9236TIP3   OH227671   0.687   1.215   2.643 -0.1327  0.0642  0.2850
 9236TIP3    H127672   0.740   1.226   2.564  0.4811 -1.5445  0.4266
 9236TIP3    H227673   0.719   1.282   2.703  0.0808  0.6589 -0.4844
 9237TIP3   OH227674   3.994   5.584   1.559  0.2465  0.2143  0.2075
 9237TIP3    H127675   3.925   5.645   1.586 -0.3720  0.0368 -0.9091
 9237TIP3    H227676   4.074   5.621   1.596 -0.5883 -0.3791  2.8356
 9238TIP3   OH227677   0.113   4.195   3.735  0.4553  0.1106 -0.1590
 9238TIP3    H127678   0.142   4.221   3.822  1.2704  1.4452 -0.7886
 9238TIP3    H227679   0.019   4.182   3.744  0.3217  1.4244  0.6865
 9239TIP3   OH227680   6.959   1.229   4.728 -0.2833  0.1059 -0.3534
 9239TIP3    H127681   6.990   1.175   4.654 -0.8997 -0.6135 -0.1021
 9239TIP3    H227682   7.006   1.194   4.804 -0.0429  0.4999 -0.3178
 9240TIP3   OH227683   1.696   6.143   1.725  0.0447  0.3558  0.2676
 9240TIP3    H127684   1.710   6.069   1.785 -0.6664 -0.5977 -0.6910
 9240TIP3    H227685   1.606   6.171   1.743  0.8965  2.2735  1.9444
 9241TIP3   OH227686   5.796   3.191   5.191  0.0841 -0.2051  0.1037
 9241TIP3    H127687   5.874   3.203   5.137  0.1241  0.6411  0.3422
 9241TIP3    H227688   5.723   3.189   5.129  0.1032  1.0183  0.0100
 9242TIP3   OH227689   6.422   6.654   1.422  0.2390 -0.0616  0.0269
 9242TIP3    H127690   6.379   6.647   1.507  0.0734 -1.1669 -0.1325
 9242TIP3    H227691   6.431   6.564   1.392 -0.4673  0.3399 -1.5067
 9243TIP3   OH227692   6.399   2.737   4.230 -0.4809  0.2360 -0.0346
 9243TIP3    H127693   6.406   2.768   4.320  0.7689 -0.5824  0.1704
 9243TIP3    H227694   6.384   2.816   4.178  0.5480  0.9319  0.7027
 9244TIP3   OH227695   1.898   0.504   4.711 -0.1137  0.4917  0.0626
 9244TIP3    H127696   1.944   0.444   4.653  0.5887  1.4058 -0.3410
 9244TIP3    H227697   1.808   0.506   4.677 -0.1908 -0.4540  0.1926
 9245TIP3   OH227698   6.767   4.711   1.721  0.0752  0.0254  0.1268
 9245TIP3    H127699   6.740   4.726   1.812  0.0218 -0.3134  0.1701
 9245TIP3    H227700   6.748   4.793   1.676  2.9538  1.3396  1.0740
 9246TIP3   OH227701   3.060   2.463   2.813  0.0640  0.3631 -0.4191
 9246TIP3    H127702   3.114   2.461   2.734 -0.6629 -1.2886 -0.9303
 9246TIP3    H227703   3.071   2.376   2.852  0.5008  1.1902  1.3912
 9247TIP3   OH227704   4.154   2.302   0.552  1.2930  0.0777  0.1065
 9247TIP3    H127705   4.079   2.242   0.551  1.1919  0.2010 -1.4533
 9247TIP3    H227706   4.184   2.305   0.461  2.5219  0.8813  0.5122
 9248TIP3   OH227707   6.658   1.005   5.693  0.1912 -0.2055  0.5835
 9248TIP3    H127708   6.587   0.949   5.724 -0.3649  0.1002 -0.1243
 9248TIP3    H227709   6.676   1.064   5.767 -0.8664  0.2695  0.4681
 9249TIP3   OH227710   2.244   5.575   1.567  0.4318  0.9589  0.4274
 9249TIP3    H127711   2.153   5.548   1.581  0.9719 -0.2950  1.7830
 9249TIP3    H227712   2.265   5.629   1.644  1.4142 -0.4104  1.1495
 9250TIP3   OH227713   1.203   6.216   1.397  0.1225 -0.7422 -0.2742
 9250TIP3    H127714   1.158   6.268   1.465 -0.7871 -1.5642 -0.2248
 9250TIP3    H227715   1.146   6.223   1.320  1.5301  0.8260 -1.2432
 9251TIP3   OH227716   3.946   5.289   5.172 -0.1640  0.1167  0.4343
 9251TIP3    H127717   4.036   5.258   5.163  0.0359  0.8217 -0.0289
 9251TIP3    H227718   3.953   5.370   5.222 -0.4593  0.5554 -0.2122
 9252TIP3   OH227719   3.484   5.227   4.250 -0.1308  0.0035 -0.2483
 9252TIP3    H127720   3.569   5.263   4.273 -0.7184  2.2966 -1.4294
 9252TIP3    H227721   3.453   5.185   4.330  1.0519  1.2675  0.9131
 9253TIP3   OH227722   6.735   2.266   5.318 -0.5260 -0.6105  0.1276
 9253TIP3    H127723   6.750   2.240   5.227  0.6495  1.5320 -0.3717
 9253TIP3    H227724   6.810   2.322   5.339 -2.0425  0.9816  1.5637
 9254TIP3   OH227725   6.516   1.399   1.921 -0.1212  0.5955  0.4671
 9254TIP3    H127726   6.526   1.421   1.828  0.6692  0.0858  0.4222
 9254TIP3    H227727   6.582   1.332   1.937  0.2229  1.1631  1.5644
 9255TIP3   OH227728   5.770   0.790   1.063 -0.0012 -0.1474 -0.3784
 9255TIP3    H127729   5.785   0.736   1.141 -0.6999  0.7251  0.3693
 9255TIP3    H227730   5.857   0.823   1.040  0.0160  0.8024  0.9446
 9256TIP3   OH227731   5.810   6.548   4.762 -0.4526 -0.1207 -0.8868
 9256TIP3    H127732   5.791   6.642   4.767 -1.0716 -0.2934  1.2302
 9256TIP3    H227733   5.902   6.543   4.736  0.3133  1.1989  1.2560
 9257TIP3   OH227734   4.448   5.025   3.183 -0.0274  0.5194  0.0063
 9257TIP3    H127735   4.461   4.992   3.094  1.1989 -1.1111  0.7328
 9257TIP3    H227736   4.469   5.118   3.177  1.6109  0.1173 -1.1215
 9258TIP3   OH227737   6.142   4.582   5.517 -0.0821 -0.4450  0.0700
 9258TIP3    H127738   6.114   4.509   5.572  1.1793 -1.3031 -0.3941
 9258TIP3    H227739   6.199   4.543   5.452 -0.9761  0.6678 -1.4408
 9259TIP3   OH227740   0.620   1.256   2.999  0.1940 -0.1536  0.3659
 9259TIP3    H127741   0.569   1.334   3.020  1.8274  0.8074  0.9441
 9259TIP3    H227742   0.593   1.191   3.064 -2.2220 -0.6249 -0.9784
 9260TIP3   OH227743   1.425   2.822   5.199 -0.6537 -0.2349 -0.4951
 9260TIP3    H127744   1.376   2.767   5.260 -0.1730  0.0263  0.1437
 9260TIP3    H227745   1.511   2.779   5.191  0.5439  1.4899  1.7275
 9261TIP3   OH227746   4.205  -0.020   3.455  0.2613  0.1819 -0.2952
 9261TIP3    H127747   4.287   0.030   3.457 -0.7307  1.8562  0.9717
 9261TIP3    H227748   4.139   0.044   3.427 -1.2043 -0.0758  2.2398
 9262TIP3   OH227749   6.631   6.829   2.732  0.3356 -0.3101 -0.1180
 9262TIP3    H127750   6.564   6.761   2.727 -1.0918  1.0236  0.1700
 9262TIP3    H227751   6.711   6.786   2.701 -0.6299 -1.9561 -0.4436
 9263TIP3   OH227752   1.003   4.715   3.531  0.1867  1.0211 -0.1394
 9263TIP3    H127753   1.055   4.659   3.589 -1.2297 -0.7676 -0.5320
 9263TIP3    H227754   1.042   4.802   3.541  2.7729 -0.0847  0.1163
 9264TIP3   OH227755   6.718   4.641   0.744 -0.0672 -0.1038  0.3954
 9264TIP3    H127756   6.724   4.562   0.798 -1.0498  0.5675  1.5101
 9264TIP3    H227757   6.717   4.607   0.654 -0.7303 -1.3799  0.8556
 9265TIP3   OH227758   2.462   4.639   2.133  0.1798 -0.0423  0.1959
 9265TIP3    H127759   2.434   4.690   2.209  0.5610  1.1696 -0.4631
 9265TIP3    H227760   2.553   4.665   2.118  0.3917 -0.9321 -0.1429
 9266TIP3   OH227761   6.904   3.850   3.803  0.0754 -0.3525 -0.4595
 9266TIP3    H127762   6.898   3.792   3.879 -0.0058 -0.1254 -0.2890
 9266TIP3    H227763   6.892   3.938   3.840 -1.9330 -0.3532 -0.9631
 9267TIP3   OH227764   0.520   3.226   5.098  0.2270  0.5054 -0.5322
 9267TIP3    H127765   0.500   3.301   5.042  1.1348  0.2572 -1.2062
 9267TIP3    H227766   0.549   3.266   5.181 -0.9198  0.8691 -0.2913
 9268TIP3   OH227767   7.148   0.109   5.476 -0.2725  0.4365 -0.4847
 9268TIP3    H127768   7.168   0.088   5.384  0.8049 -1.2378  0.0903
 9268TIP3    H227769   7.208   0.180   5.498  0.2958  0.0408 -0.7413
 9269TIP3   OH227770   1.343   2.802   0.702 -0.0880  0.0674 -0.2887
 9269TIP3    H127771   1.280   2.769   0.766  1.1149 -0.9070  0.4341
 9269TIP3    H227772   1.406   2.852   0.753 -0.8460  1.9834 -1.1509
 9270TIP3   OH227773   1.184   0.248   3.756  0.1856 -0.0188  0.8162
 9270TIP3    H127774   1.174   0.173   3.813  1.8471 -0.3909  0.6513
 9270TIP3    H227775   1.140   0.222   3.674 -2.0000  0.4363  1.7629
 9271TIP3   OH227776   1.672   1.088   4.413 -0.0233 -0.1445 -0.5567
 9271TIP3    H127777   1.734   1.032   4.366  0.9146  1.1528 -0.8867
 9271TIP3    H227778   1.614   1.122   4.345 -0.6938 -0.8037 -0.3354
 9272TIP3   OH227779   0.616   5.398   4.490  0.1051  0.0265 -0.2485
 9272TIP3    H127780   0.628   5.476   4.545  1.1628  0.0747 -0.5258
 9272TIP3    H227781   0.540   5.419   4.436 -0.7299  0.1264  0.9260
 9273TIP3   OH227782   0.366   2.032   1.731  0.0549  0.2076 -0.2058
 9273TIP3    H127783   0.399   2.120   1.750 -0.1273 -0.2723  2.8065
 9273TIP3    H227784   0.277   2.032   1.766  0.8118 -1.7782  1.9334
 9274TIP3   OH227785   2.523   1.873   3.975  0.1778  0.0927  0.4288
 9274TIP3    H127786   2.580   1.873   4.052  1.4619 -1.4893 -0.4572
 9274TIP3    H227787   2.578   1.905   3.905 -0.3052 -0.5453 -0.2607
 9275TIP3   OH227788   3.844   1.490   5.731 -0.1224  0.1517 -0.1682
 9275TIP3    H127789   3.814   1.417   5.785 -0.2223  0.2056 -0.1496
 9275TIP3    H227790   3.866   1.451   5.647  0.0563  0.0634 -0.0810
 9276TIP3   OH227791   1.863   5.881   5.289 -0.3527 -0.1780  0.1789
 9276TIP3    H127792   1.882   5.900   5.381  0.2749  0.3109 -0.0499
 9276TIP3    H227793   1.776   5.918   5.275 -0.8383 -1.0302  0.8013
 9277TIP3   OH227794   5.404   5.600   4.911  0.0247  0.5816  0.0501
 9277TIP3    H127795   5.316   5.586   4.946  0.4750  0.1789  1.0857
 9277TIP3    H227796   5.451   5.518   4.931  0.7603  0.9648 -0.0528
 9278TIP3   OH227797   6.121   3.858   2.222  0.1119 -0.2370 -0.1062
 9278TIP3    H127798   6.114   3.808   2.303  0.9512 -0.6489 -0.2735
 9278TIP3    H227799   6.108   3.949   2.248 -0.4409 -0.4403  0.3543
 9279TIP3   OH227800   1.582   4.975   5.076  0.2382  0.3757  0.0804
 9279TIP3    H127801   1.537   4.961   4.992  1.1906 -1.3483 -0.1893
 9279TIP3    H227802   1.647   5.043   5.057  0.5475 -0.1070 -0.6408
 9280TIP3   OH227803   4.169   0.234   0.791  0.0854 -0.0320 -0.4737
 9280TIP3    H127804   4.124   0.224   0.875 -1.5620 -1.0055 -1.4276
 9280TIP3    H227805   4.259   0.257   0.815  0.9678 -4.6419  1.7429
 9281TIP3   OH227806   4.935   5.174   3.093 -0.0168 -0.2314 -0.1115
 9281TIP3    H127807   4.877   5.119   3.146  1.8623 -1.3787  0.9006
 9281TIP3    H227808   4.953   5.122   3.015  0.1598 -0.1778 -0.1069
 9282TIP3   OH227809   0.535   1.912   4.136  0.1700 -0.2335 -0.0368
 9282TIP3    H127810   0.618   1.901   4.183  0.8168 -0.5846 -1.2329
 9282TIP3    H227811   0.468   1.888   4.200  0.9300  0.6926  1.1606
 9283TIP3   OH227812   1.369   2.178   2.585  0.2082  0.2775  0.6423
 9283TIP3    H127813   1.314   2.232   2.641  0.4828 -0.6398  1.8288
 9283TIP3    H227814   1.454   2.175   2.629  0.1827 -1.1671  0.6612
 9284TIP3   OH227815   0.639   0.545   1.272 -0.1151 -0.1420  0.4010
 9284TIP3    H127816   0.624   0.635   1.302  2.2876  0.7758 -0.8758
 9284TIP3    H227817   0.553   0.505   1.275 -0.9804  1.5931  2.8289
 9285TIP3   OH227818   5.781   0.480   2.436 -0.1487 -0.0687 -0.1207
 9285TIP3    H127819   5.724   0.545   2.396 -0.7497  0.1386  1.0282
 9285TIP3    H227820   5.724   0.404   2.451  0.1428 -0.2535  0.0656
 9286TIP3   OH227821   0.402   2.385   3.040 -0.5884  0.0882  0.0112
 9286TIP3    H127822   0.433   2.468   3.075 -0.6915  0.6385 -1.1530
 9286TIP3    H227823   0.308   2.385   3.061 -0.4038 -0.2178  0.9032
 9287TIP3   OH227824   3.551   2.898   5.745 -0.4576  0.2471 -0.1677
 9287TIP3    H127825   3.583   2.956   5.814 -1.6322  1.2448 -0.4237
 9287TIP3    H227826   3.619   2.901   5.677 -0.3539  1.0689 -0.0331
 9288TIP3   OH227827   3.483   3.339   0.247  0.2789 -0.0691 -0.2335
 9288TIP3    H127828   3.507   3.431   0.250  0.9100 -0.2027 -0.8097
 9288TIP3    H227829   3.501   3.306   0.335  2.1550 -0.1272 -0.6034
 9289TIP3   OH227830   6.128   2.997  -0.015  0.1209 -0.2513  0.7192
 9289TIP3    H127831   6.218   3.011   0.013  1.0315 -1.4638 -1.2997
 9289TIP3    H227832   6.076   3.060   0.035  2.2255  1.2894  1.0877
 9290TIP3   OH227833   3.950   0.564   0.197  0.1483  0.1174  0.1462
 9290TIP3    H127834   4.042   0.587   0.206 -0.4259  1.9979  2.2215
 9290TIP3    H227835   3.937   0.490   0.256  0.1061  0.6374  0.8000
 9291TIP3   OH227836   5.557   3.056   3.678  0.1888 -0.4138  0.4633
 9291TIP3    H127837   5.558   3.078   3.585  2.3644 -1.1787  0.2414
 9291TIP3    H227838   5.501   2.979   3.684  1.8429 -1.7872 -0.6475
 9292TIP3   OH227839   3.618   2.210   0.836  0.5606 -0.2295 -0.1734
 9292TIP3    H127840   3.565   2.286   0.861  1.3315  0.9433 -1.8922
 9292TIP3    H227841   3.674   2.194   0.911  0.6032  1.1162  0.1017
 9293TIP3   OH227842   5.846   3.991   5.459  0.1240  0.0836  0.4811
 9293TIP3    H127843   5.770   3.978   5.402  0.0793 -0.1001  0.5824
 9293TIP3    H227844   5.876   3.903   5.481 -1.7599 -0.0065  3.2647
 9294TIP3   OH227845   1.134   6.346   1.630  0.3602 -0.0520  0.2280
 9294TIP3    H127846   1.185   6.337   1.711  0.0125 -0.1481  0.4372
 9294TIP3    H227847   1.162   6.430   1.594  0.9633 -0.2848  0.1310
 9295TIP3   OH227848   1.120   6.164   2.104 -0.6170 -0.2627  0.1581
 9295TIP3    H127849   1.097   6.139   2.194  1.3717 -3.2040 -0.0413
 9295TIP3    H227850   1.056   6.119   2.049  0.0345 -1.0063 -0.0047
 9296TIP3   OH227851   0.921   2.033   0.496 -0.0514 -0.1451  0.4789
 9296TIP3    H127852   0.880   2.071   0.573 -1.3076  2.3669 -1.2858
 9296TIP3    H227853   0.863   1.962   0.471  0.1692 -0.7457  1.6131
 9297TIP3   OH227854   2.214   0.627   1.384 -0.7494 -0.1249  0.2026
 9297TIP3    H127855   2.142   0.585   1.430 -0.3388  0.0476  1.0150
 9297TIP3    H227856   2.191   0.720   1.382 -0.6087 -0.0855  0.3636
 9298TIP3   OH227857   0.667   0.960   2.754  0.3472  0.2362 -0.2255
 9298TIP3    H127858   0.725   0.971   2.830 -0.2918 -2.5206  0.7735
 9298TIP3    H227859   0.643   1.050   2.729  1.5171  1.2798  2.0702
 9299TIP3   OH227860   4.662   0.653   1.121 -0.2380 -0.0258 -0.4856
 9299TIP3    H127861   4.638   0.586   1.056 -2.1578  0.6512 -0.5236
 9299TIP3    H227862   4.640   0.736   1.079 -2.4485  0.3974  1.3446
 9300TIP3   OH227863   2.127   6.124   1.233 -0.0457 -0.1013 -0.3234
 9300TIP3    H127864   2.037   6.089   1.235 -0.2317  0.2974 -1.1288
 9300TIP3    H227865   2.116   6.219   1.241  0.3216 -0.0758 -0.1281
 9301TIP3   OH227866   4.937   1.144   3.099 -0.3837 -0.1076 -0.2258
 9301TIP3    H127867   4.919   1.064   3.147 -1.4444  0.1552 -0.1756
 9301TIP3    H227868   5.015   1.123   3.046 -0.5945 -1.1272 -0.1503
 9302TIP3   OH227869   1.494   0.782   0.579  0.0658  0.1246 -0.4499
 9302TIP3    H127870   1.568   0.829   0.618 -0.0285 -1.4749  1.9020
 9302TIP3    H227871   1.417   0.822   0.618 -0.0861 -0.8343  0.2600
 9303TIP3   OH227872   2.641   5.147   3.919  0.6104  0.0605  0.0362
 9303TIP3    H127873   2.568   5.209   3.921 -1.3395 -2.0632  2.2149
 9303TIP3    H227874   2.680   5.153   4.007  1.0185 -1.0552 -0.0438
 9304TIP3   OH227875   3.462   4.680   1.627  0.1658 -0.1765 -0.0234
 9304TIP3    H127876   3.520   4.740   1.674  0.9664 -1.5145  0.7723
 9304TIP3    H227877   3.511   4.655   1.549  0.9223 -1.6880  0.8932
 9305TIP3   OH227878   7.088   5.682   5.055 -0.3258 -0.0314  0.6391
 9305TIP3    H127879   7.168   5.695   5.004 -0.5811  0.5893  0.3992
 9305TIP3    H227880   7.045   5.767   5.056 -0.6140 -0.1793  1.4035
 9306TIP3   OH227881   4.218   0.520   5.111 -0.0790  0.3895  0.4002
 9306TIP3    H127882   4.201   0.439   5.159  1.5304  0.0408  0.4048
 9306TIP3    H227883   4.177   0.507   5.026  2.4488 -1.5892 -0.6319
 9307TIP3   OH227884   3.811   0.830   0.216  0.3033  0.1922 -0.6755
 9307TIP3    H127885   3.840   0.743   0.187 -2.1638 -1.1797  0.5362
 9307TIP3    H227886   3.814   0.884   0.137  0.0858 -1.5412 -1.9424
 9308TIP3   OH227887   6.391   6.559   3.094  0.2300 -0.2054  0.1387
 9308TIP3    H127888   6.457   6.496   3.122  0.0322 -0.9166 -0.9536
 9308TIP3    H227889   6.308   6.519   3.120  0.0511 -0.8249 -1.3212
 9309TIP3   OH227890   1.169   5.680   0.107  0.0926  0.2289  0.1081
 9309TIP3    H127891   1.175   5.735   0.029 -0.3005  0.2501  0.0914
 9309TIP3    H227892   1.190   5.592   0.075  2.0574  0.5460  0.3820
 9310TIP3   OH227893   0.864   6.305   4.785 -0.4889  0.6670 -0.3456
 9310TIP3    H127894   0.936   6.317   4.723  0.6467 -1.5798  0.4157
 9310TIP3    H227895   0.899   6.335   4.869 -0.2244 -0.8243  0.1118
 9311TIP3   OH227896   5.053   2.358   3.921 -0.0604 -0.1278 -0.2037
 9311TIP3    H127897   5.090   2.410   3.992 -1.9461 -0.8363  1.3895
 9311TIP3    H227898   5.032   2.422   3.853  0.2361  0.8044  0.5543
 9312TIP3   OH227899   5.208   5.018   3.259 -0.5563  0.4169 -0.3617
 9312TIP3    H127900   5.293   4.998   3.298  0.0370 -0.5014 -1.9967
 9312TIP3    H227901   5.154   4.941   3.277 -0.2850 -0.0034 -1.2775
 9313TIP3   OH227902   1.228   2.110   3.781  0.0745  0.1908  0.1991
 9313TIP3    H127903   1.304   2.059   3.809  2.1227  2.1126 -1.5082
 9313TIP3    H227904   1.245   2.131   3.689 -2.2067  1.2682 -0.0455
 9314TIP3   OH227905   6.773   2.416   2.510  0.0129 -0.1889 -0.1238
 9314TIP3    H127906   6.769   2.321   2.525 -0.9906 -0.0851  0.3673
 9314TIP3    H227907   6.860   2.431   2.475  1.7299 -0.7538  3.4961
 9315TIP3   OH227908   2.469   4.171   2.593  0.2543 -0.3379  0.3365
 9315TIP3    H127909   2.459   4.253   2.545  1.0406  0.4027  1.4082
 9315TIP3    H227910   2.396   4.117   2.563 -0.4686  0.8675 -0.1383
 9316TIP3   OH227911   4.952   3.371   2.155 -0.1798 -0.7921 -0.4864
 9316TIP3    H127912   4.966   3.361   2.060  1.6408 -2.2171 -0.1429
 9316TIP3    H227913   4.970   3.284   2.190  1.3221  0.2057  1.3816
 9317TIP3   OH227914   4.016   5.960   2.347 -0.5766  0.0273 -0.7662
 9317TIP3    H127915   4.007   5.920   2.260  1.1039 -2.6127  0.1555
 9317TIP3    H227916   4.110   5.970   2.359 -0.7545 -0.0431  0.8839
 9318TIP3   OH227917   7.138   0.612   1.480 -0.1190  0.2088 -0.0858
 9318TIP3    H127918   7.061   0.617   1.423 -1.3116 -0.4581  1.3699
 9318TIP3    H227919   7.132   0.526   1.521 -2.0042  2.1310  4.4363
 9319TIP3   OH227920   4.092   0.142   0.201  0.2570  0.2793 -0.1567
 9319TIP3    H127921   4.110   0.098   0.118 -1.1759 -1.0685  0.2086
 9319TIP3    H227922   4.137   0.227   0.193 -1.6969  1.1916 -3.2619
 9320TIP3   OH227923   3.519   1.762   3.711  0.1552  0.3537  0.1938
 9320TIP3    H127924   3.444   1.799   3.663  1.0431  0.3467 -1.2571
 9320TIP3    H227925   3.591   1.822   3.692  0.7269 -0.1106  0.8744
 9321TIP3   OH227926   6.133   3.692   0.318  0.1301  0.3346 -0.8066
 9321TIP3    H127927   6.131   3.787   0.317  2.1368  0.5251  1.5719
 9321TIP3    H227928   6.224   3.670   0.299  0.4999 -0.8703  1.9104
 9322TIP3   OH227929   1.859   6.069   4.922  0.5660  0.8126 -0.1542
 9322TIP3    H127930   1.780   6.104   4.961 -0.0753 -0.7251 -0.0151
 9322TIP3    H227931   1.861   6.107   4.834 -0.2637  0.9439 -0.1201
 9323TIP3   OH227932   0.801   3.969   1.415 -0.1029 -0.1532  0.1134
 9323TIP3    H127933   0.731   4.029   1.391  0.8032  0.7959 -0.2190
 9323TIP3    H227934   0.810   3.911   1.339  0.3239  0.5494 -0.3872
 9324TIP3   OH227935   4.531   2.822   2.106 -0.3410 -0.0305 -0.1447
 9324TIP3    H127936   4.517   2.734   2.141  3.5039 -0.9031 -0.4550
 9324TIP3    H227937   4.470   2.877   2.156 -1.9768 -2.6130  0.9232
 9325TIP3   OH227938   4.314   2.583   5.792 -0.0067  0.5104  0.5091
 9325TIP3    H127939   4.224   2.614   5.780 -0.0584  0.3509  0.4861
 9325TIP3    H227940   4.330   2.526   5.717 -0.2675 -0.3403  1.0748
 9326TIP3   OH227941   2.170   4.977   4.021  0.2560 -0.9707  0.4282
 9326TIP3    H127942   2.254   4.954   3.982 -0.6818 -0.5463 -2.0268
 9326TIP3    H227943   2.193   5.013   4.107  2.7359  0.4597 -0.7091
 9327TIP3   OH227944   7.006   1.152   1.146  0.0225  0.3123 -0.5436
 9327TIP3    H127945   6.961   1.213   1.205  1.6105  1.7238 -0.7217
 9327TIP3    H227946   6.957   1.156   1.064  1.0442  2.7236 -1.1213
 9328TIP3   OH227947   2.820   1.246   5.753  0.6360 -0.3794  0.4172
 9328TIP3    H127948   2.892   1.183   5.748  0.2869 -0.7828  0.2968
 9328TIP3    H227949   2.741   1.191   5.755  0.2387  0.0608 -1.1083
 9329TIP3   OH227950   3.819   2.180   3.233 -0.1526 -0.4099 -0.1772
 9329TIP3    H127951   3.767   2.240   3.179 -0.9243 -1.7841 -1.0312
 9329TIP3    H227952   3.893   2.232   3.264 -1.5561  1.3718  0.3318
 9330TIP3   OH227953   4.283   0.731   5.254  0.2276 -0.2693  0.4047
 9330TIP3    H127954   4.320   0.776   5.178 -1.9149  0.5859 -0.2224
 9330TIP3    H227955   4.255   0.646   5.220  0.3625 -0.3618  0.5275
 9331TIP3   OH227956   5.723   3.702   0.098 -0.3895 -0.3671  0.3462
 9331TIP3    H127957   5.747   3.614   0.126  0.4099  0.2853  1.8511
 9331TIP3    H227958   5.781   3.721   0.025 -1.2116 -1.4098 -0.6105
 9332TIP3   OH227959   4.447   3.384   0.239 -0.0103 -0.4719  0.0511
 9332TIP3    H127960   4.425   3.299   0.202 -0.6321 -0.3563  0.1511
 9332TIP3    H227961   4.475   3.436   0.163 -2.1625  0.0529 -0.4368
 9333TIP3   OH227962   6.018   5.669   5.228 -0.4331 -0.6310 -0.5924
 9333TIP3    H127963   5.962   5.612   5.174  1.2715 -2.3608 -0.6500
 9333TIP3    H227964   6.073   5.716   5.164 -0.6049 -0.2660 -0.4735
 9334TIP3   OH227965   1.323   0.574   5.861  0.1299 -0.0188  0.2306
 9334TIP3    H127966   1.379   0.635   5.909  0.9537 -0.6504  0.1129
 9334TIP3    H227967   1.234   0.604   5.877  0.3372 -0.5000  2.5940
 9335TIP3   OH227968   0.829   2.802   1.699  0.1343  0.4145 -0.5812
 9335TIP3    H127969   0.794   2.849   1.623  0.8020  2.4378  0.2654
 9335TIP3    H227970   0.834   2.711   1.672 -1.9777  0.6770 -2.0816
 9336TIP3   OH227971   4.277   2.737   0.934  0.4438  0.2366  0.0624
 9336TIP3    H127972   4.291   2.682   0.857  2.8694 -1.3594  1.5144
 9336TIP3    H227973   4.203   2.793   0.910 -0.3334 -1.7060 -2.5567
 9337TIP3   OH227974   2.806   4.669   1.267 -0.7841  0.5574  0.2587
 9337TIP3    H127975   2.899   4.656   1.283  0.0987  0.4931 -3.8899
 9337TIP3    H227976   2.786   4.754   1.305  1.7182  1.8394 -1.0644
 9338TIP3   OH227977   2.070   6.172   5.055 -0.6475 -0.0052  0.5727
 9338TIP3    H127978   1.989   6.144   5.011  0.6424  0.0189 -2.0536
 9338TIP3    H227979   2.112   6.091   5.082 -0.3675 -0.1990 -0.4024
 9339TIP3   OH227980   3.194   1.100   2.299  0.9233 -0.5429  0.1010
 9339TIP3    H127981   3.118   1.058   2.341  0.6045 -0.9107 -0.8224
 9339TIP3    H227982   3.163   1.187   2.274  1.0821 -0.3629  0.5167
 9340TIP3   OH227983   1.638   6.649   2.731  0.0359 -0.1834  0.4663
 9340TIP3    H127984   1.675   6.562   2.743 -1.6119 -0.6776  2.7159
 9340TIP3    H227985   1.556   6.647   2.781 -1.2233  1.9331 -1.3333
 9341TIP3   OH227986   6.804   1.276   2.353  0.2209 -0.0535  0.1384
 9341TIP3    H127987   6.897   1.298   2.361 -0.0968  1.9545 -1.0338
 9341TIP3    H227988   6.797   1.237   2.265 -0.1022  0.1109  0.0911
 9342TIP3   OH227989   5.349   3.876   1.881 -0.3773  0.0375  0.9092
 9342TIP3    H127990   5.407   3.948   1.857 -0.9991  0.0283 -0.7916
 9342TIP3    H227991   5.267   3.919   1.906 -1.3511 -0.0256 -1.8085
 9343TIP3   OH227992   4.809   0.836   0.272 -0.1418  0.0540 -0.0448
 9343TIP3    H127993   4.895   0.794   0.276  0.4192  1.0853 -0.8916
 9343TIP3    H227994   4.769   0.802   0.192  0.3750  1.2014 -0.8155
 9344TIP3   OH227995   2.799   1.089   0.189  0.0341 -0.1335  0.2489
 9344TIP3    H127996   2.778   1.015   0.132  0.5353 -0.9990  1.1478
 9344TIP3    H227997   2.873   1.058   0.241 -1.3357  0.0735  2.4121
 9345TIP3   OH227998   4.177   1.015   1.112 -0.2242  0.2802 -0.0793
 9345TIP3    H127999   4.200   1.011   1.019 -1.1784  0.1398 -0.3183
 9345TIP3    H228000   4.151   0.926   1.135 -0.1851  0.3582  0.2727
 9346TIP3   OH228001   6.389   1.218   3.374 -0.0855 -0.5386  0.0260
 9346TIP3    H128002   6.461   1.254   3.427 -0.0104  0.0089 -0.4340
 9346TIP3    H228003   6.342   1.295   3.342  0.1299 -0.8327 -1.0550
 9347TIP3   OH228004   1.812   5.270   3.940  0.4547 -0.2340  0.7964
 9347TIP3    H128005   1.865   5.339   3.901  0.3609 -0.1210  0.8685
 9347TIP3    H228006   1.863   5.190   3.925  0.5844 -0.1444  0.7526
 9348TIP3   OH228007   3.270   3.268   3.876  0.4713 -0.0896  0.4393
 9348TIP3    H128008   3.268   3.268   3.780  2.7996  1.1544  0.3244
 9348TIP3    H228009   3.261   3.360   3.900 -1.3470 -0.5028  1.5261
 9349TIP3   OH228010   0.483   4.992   2.170 -0.5011  0.3890 -0.8305
 9349TIP3    H128011   0.573   4.990   2.138 -0.0337 -0.7046  0.4594
 9349TIP3    H228012   0.489   5.030   2.257 -0.8204 -2.2427  0.4534
 9350TIP3   OH228013   2.832   6.245   4.962 -0.0705  0.3901 -0.4307
 9350TIP3    H128014   2.821   6.244   4.867 -0.0514  1.8883 -0.4614
 9350TIP3    H228015   2.896   6.175   4.980  0.0500  0.2129 -1.5217
 9351TIP3   OH228016   2.753   0.706   3.435 -0.7600 -0.3088 -0.8308
 9351TIP3    H128017   2.737   0.784   3.383 -0.0901  0.0192 -0.5538
 9351TIP3    H228018   2.671   0.656   3.429 -0.6524 -0.3372 -2.2781
 9352TIP3   OH228019   3.956   0.657   4.176  0.2102  0.4581  0.0700
 9352TIP3    H128020   3.884   0.663   4.239 -1.1933  0.8590 -1.4961
 9352TIP3    H228021   4.028   0.617   4.225 -1.1538 -0.1983  1.6233
 9353TIP3   OH228022   2.710   6.606   0.304 -0.4638  0.2724  0.3829
 9353TIP3    H128023   2.769   6.639   0.236  0.2531 -0.6361  0.5482
 9353TIP3    H228024   2.731   6.513   0.311 -1.0337  0.2041  1.3472
 9354TIP3   OH228025   3.434   4.492   3.819 -0.0576  0.0798 -0.2134
 9354TIP3    H128026   3.505   4.509   3.881 -0.6305  0.8759  0.2424
 9354TIP3    H228027   3.366   4.449   3.870 -0.7770  1.2805 -0.1245
 9355TIP3   OH228028   3.617   6.050   0.132  0.5187 -0.0070 -0.0775
 9355TIP3    H128029   3.635   5.960   0.102  2.5659  0.3517 -0.0710
 9355TIP3    H228030   3.613   6.101   0.052 -2.3593 -0.2844 -0.2235
 9356TIP3   OH228031   1.283   3.607   2.651 -0.3844  0.1997  0.2830
 9356TIP3    H128032   1.234   3.657   2.586  1.2937  0.3576 -0.9416
 9356TIP3    H228033   1.327   3.674   2.704 -0.6406  0.0486  0.6924
 9357TIP3   OH228034   5.567   5.368   2.159  0.3218  0.0662 -0.2882
 9357TIP3    H128035   5.484   5.321   2.161 -0.8240  1.9230  2.5255
 9357TIP3    H228036   5.631   5.304   2.127 -1.1904 -3.2540  2.6612
 9358TIP3   OH228037   1.379   4.366   3.757 -0.3630 -0.4237 -0.1512
 9358TIP3    H128038   1.429   4.300   3.804 -1.2819 -1.0968 -0.0842
 9358TIP3    H228039   1.437   4.394   3.686  0.3839 -0.6354  0.3613
 9359TIP3   OH228040   0.860   0.426   5.040  0.3085 -0.0252  0.0214
 9359TIP3    H128041   0.901   0.440   5.125 -0.6878  1.6024  0.2750
 9359TIP3    H228042   0.932   0.425   4.978  0.9566 -0.1970  0.7690
 9360TIP3   OH228043   3.933   5.774   0.267 -0.1751 -0.4209  0.0686
 9360TIP3    H128044   3.884   5.828   0.329 -0.3247 -0.7013  0.1935
 9360TIP3    H228045   4.025   5.798   0.281 -0.3175  0.5717 -0.6079
 9361TIP3   OH228046   4.206   0.032   2.304  0.0900  0.1323  0.6299
 9361TIP3    H128047   4.199   0.065   2.394 -0.5408  2.6752 -0.2591
 9361TIP3    H228048   4.252   0.101   2.257  2.2923 -2.0570 -0.6329
 9362TIP3   OH228049   3.782   4.451   2.476  0.2446 -0.1218  0.2372
 9362TIP3    H128050   3.808   4.435   2.385  1.2932 -1.0779  0.6728
 9362TIP3    H228051   3.852   4.411   2.528  0.5692  1.9085  1.4695
 9363TIP3   OH228052   1.493   4.684   3.177  1.0645 -0.1007  0.7172
 9363TIP3    H128053   1.534   4.635   3.249  1.2021 -1.1168 -0.0344
 9363TIP3    H228054   1.566   4.717   3.125  0.9560 -0.5154  0.2952
 9364TIP3   OH228055   5.268   5.645   2.415 -0.5227  0.2871  0.1952
 9364TIP3    H128056   5.325   5.625   2.341 -1.0205 -1.3253  0.1909
 9364TIP3    H228057   5.311   5.716   2.461  1.2567 -0.5706 -0.0651
 9365TIP3   OH228058   0.278   4.777   0.895 -0.1701  0.2003  0.2992
 9365TIP3    H128059   0.271   4.770   0.800 -1.0873  1.5572  0.2447
 9365TIP3    H228060   0.198   4.823   0.922  0.4202  0.4839  1.6478
 9366TIP3   OH228061   2.546   4.155   0.558  0.4051  0.0327 -0.2421
 9366TIP3    H128062   2.484   4.106   0.504  1.1743 -0.4807 -0.6765
 9366TIP3    H228063   2.548   4.108   0.641  0.1993  0.0578 -0.2227
 9367TIP3   OH228064   6.910   1.869   1.674 -0.3539 -0.1901  0.2580
 9367TIP3    H128065   6.974   1.911   1.617  0.8108 -0.9869  0.9355
 9367TIP3    H228066   6.844   1.834   1.614 -1.1129  2.0875 -0.3643
 9368TIP3   OH228067   1.087   4.128   1.364  0.1946  0.1793  0.2363
 9368TIP3    H128068   0.993   4.136   1.346  0.4252  0.5171 -0.9287
 9368TIP3    H228069   1.093   4.058   1.429 -0.9410  0.8850  1.1568
 9369TIP3   OH228070   2.652   3.884   4.340  0.3823  0.4425 -0.9059
 9369TIP3    H128071   2.672   3.955   4.401 -0.4731 -0.1932  0.1505
 9369TIP3    H228072   2.614   3.927   4.263 -1.0352  1.0785  0.1147
 9370TIP3   OH228073   4.616   3.818   0.669  0.0145  0.0751 -0.4575
 9370TIP3    H128074   4.637   3.736   0.713  1.5867  0.8777  0.3684
 9370TIP3    H228075   4.522   3.813   0.652  0.0141 -1.7056 -0.0688
 9371TIP3   OH228076   3.524   5.975   5.657 -0.7676 -0.1828  0.3893
 9371TIP3    H128077   3.516   5.994   5.750 -2.6483  0.1347  0.1963
 9371TIP3    H228078   3.523   5.880   5.651  1.7429 -0.3220  0.8174
 9372TIP3   OH228079   4.920   6.174   1.522  0.4912  0.2171  0.0133
 9372TIP3    H128080   5.012   6.183   1.500  0.5454 -0.8930 -0.2382
 9372TIP3    H228081   4.917   6.105   1.588 -0.1897  0.0308 -0.2043
 9373TIP3   OH228082   1.202   4.562   3.040  0.2309  0.3033 -0.6407
 9373TIP3    H128083   1.268   4.576   3.108  1.2263 -0.6491 -1.3707
 9373TIP3    H228084   1.244   4.593   2.960 -0.1544 -0.4265 -1.1370
 9374TIP3   OH228085   2.351   2.137   5.880 -0.1521 -0.3305 -0.1717
 9374TIP3    H128086   2.306   2.056   5.854 -0.9337  0.3236 -0.9187
 9374TIP3    H228087   2.281   2.195   5.908  0.5766 -0.7282  2.8524
 9375TIP3   OH228088   1.640   0.167   3.674 -0.1660  0.3996  0.3798
 9375TIP3    H128089   1.608   0.249   3.638 -2.1883 -1.0997 -1.5152
 9375TIP3    H228090   1.652   0.110   3.598 -0.2381 -1.4937  1.7066
 9376TIP3   OH228091   1.194   1.928   1.985 -0.3252  0.0906 -0.0235
 9376TIP3    H128092   1.250   1.864   2.028  2.3160  1.9807 -0.4183
 9376TIP3    H228093   1.144   1.968   2.056 -1.0569 -1.4424  0.3705
 9377TIP3   OH228094   5.770   4.571   0.356  0.0242  0.6732 -0.3932
 9377TIP3    H128095   5.851   4.616   0.331  0.6606  0.5028  1.2071
 9377TIP3    H228096   5.749   4.607   0.442  0.2718 -1.6731  0.7300
 9378TIP3   OH228097   6.687   4.795   3.745  0.2187  0.0028  0.8118
 9378TIP3    H128098   6.597   4.799   3.712  0.5538 -1.8186 -0.5167
 9378TIP3    H228099   6.715   4.705   3.726  3.4113  1.3260 -1.8648
 9379TIP3   OH228100   6.124   1.470   4.299 -0.3176  0.0341 -0.6176
 9379TIP3    H128101   6.194   1.475   4.364 -1.1226 -0.5273  0.3130
 9379TIP3    H228102   6.081   1.387   4.317 -0.5778 -0.1211 -1.8644
 9380TIP3   OH228103   0.965   2.489   4.945 -0.7801  0.2170  0.1860
 9380TIP3    H128104   0.882   2.526   4.915  0.3638  2.6157 -0.2731
 9380TIP3    H228105   1.019   2.566   4.967  1.8844 -1.1678 -1.0719
 9381TIP3   OH228106   3.106   4.371   5.432 -0.4385 -0.2874 -0.4150
 9381TIP3    H128107   3.178   4.392   5.490 -0.4186 -0.3912 -0.4021
 9381TIP3    H228108   3.122   4.281   5.405 -0.5095 -0.2778 -0.4903
 9382TIP3   OH228109   4.715   1.572   1.184 -0.6139  0.6011 -0.3020
 9382TIP3    H128110   4.778   1.644   1.189  0.4328  0.0435 -3.2443
 9382TIP3    H228111   4.642   1.607   1.133  0.3213 -0.5439 -2.5949
 9383TIP3   OH228112   0.418   1.034   0.347  0.7708  0.2770 -0.0306
 9383TIP3    H128113   0.465   0.957   0.314  1.9806  1.2277 -0.6369
 9383TIP3    H228114   0.337   1.037   0.296 -1.1905 -2.6724  2.5587
 9384TIP3   OH228115   4.511   5.264   4.028  0.1506 -0.2277 -0.1890
 9384TIP3    H128116   4.485   5.189   4.080  2.0013 -0.6966  0.1424
 9384TIP3    H228117   4.457   5.259   3.949 -0.9027 -0.9387  0.5524
 9385TIP3   OH228118   6.477   3.208   5.182  0.0274 -0.2924  0.4530
 9385TIP3    H128119   6.425   3.168   5.112  1.4572  2.2510 -2.2929
 9385TIP3    H228120   6.431   3.289   5.202  1.6704  0.9303 -0.4846
 9386TIP3   OH228121   4.435   0.684   5.683  0.3831 -0.0428 -0.3290
 9386TIP3    H128122   4.403   0.766   5.720 -0.0531  0.3928 -1.6128
 9386TIP3    H228123   4.362   0.650   5.633  0.3517 -1.5695  0.7069
 9387TIP3   OH228124   7.001   0.240   0.889 -0.0227 -0.2372 -0.5942
 9387TIP3    H128125   6.984   0.286   0.971  0.1821 -2.1171  0.5784
 9387TIP3    H228126   6.925   0.260   0.834 -1.5589 -1.1050  1.0894
 9388TIP3   OH228127   5.021   1.336   3.283 -0.9726  0.6765 -0.6539
 9388TIP3    H128128   5.117   1.335   3.285 -0.9204 -0.5425  2.2578
 9388TIP3    H228129   4.998   1.283   3.207  0.6717  0.1135 -0.8040
 9389TIP3   OH228130   3.293   5.353   2.500 -0.6098  0.2537  0.1818
 9389TIP3    H128131   3.314   5.352   2.594  2.3440 -0.0879 -0.3955
 9389TIP3    H228132   3.210   5.305   2.494 -0.9791  0.4301  2.6116
 9390TIP3   OH228133   6.377   0.765   1.565  0.1182  0.3577 -0.2200
 9390TIP3    H128134   6.441   0.834   1.546  1.7946 -1.1836 -0.4500
 9390TIP3    H228135   6.421   0.708   1.627 -1.4844 -0.1958  0.4701
 9391TIP3   OH228136   6.440   5.369   3.663  0.7620 -0.0013 -0.9750
 9391TIP3    H128137   6.370   5.368   3.597  1.3180  0.2285 -1.5803
 9391TIP3    H228138   6.451   5.462   3.684  0.2468 -0.1136 -0.1813
 9392TIP3   OH228139   0.368   6.549   3.867 -0.2327 -0.1581 -0.0318
 9392TIP3    H128140   0.426   6.624   3.855 -1.0460  0.7327  1.3251
 9392TIP3    H228141   0.424   6.479   3.901 -0.0005  0.8343  1.7315
 9393TIP3   OH228142   1.078   3.157   1.966  0.1376  0.1327  0.1733
 9393TIP3    H128143   1.038   3.105   2.036 -0.3385  1.8573  1.2333
 9393TIP3    H228144   1.006   3.212   1.933  0.6994  0.3666 -0.6792
 9394TIP3   OH228145   4.455   1.749   1.708  0.5516  0.0998  0.1397
 9394TIP3    H128146   4.535   1.702   1.731  1.6506  1.5527 -0.5600
 9394TIP3    H228147   4.478   1.800   1.631 -1.2014  0.2089 -0.3637
 9395TIP3   OH228148   6.569   1.309   3.040  0.9090 -0.2781 -0.1105
 9395TIP3    H128149   6.655   1.345   3.057  0.4551  0.7293  0.1158
 9395TIP3    H228150   6.518   1.382   3.004  0.2794 -0.9662 -0.6430
 9396TIP3   OH228151   4.758   4.508   3.088  0.5121  0.2848  0.3466
 9396TIP3    H128152   4.842   4.502   3.042  0.2865 -2.5364  0.1286
 9396TIP3    H228153   4.727   4.418   3.092 -3.2983  1.3825 -0.9603
 9397TIP3   OH228154   0.962   3.538   4.968 -0.4726 -0.0126  0.7501
 9397TIP3    H128155   0.970   3.633   4.958  1.2518 -0.2094  0.0943
 9397TIP3    H228156   1.049   3.509   4.995 -0.9113 -1.4550  0.6867
 9398TIP3   OH228157   6.424   2.921   3.075  0.3996 -0.0741  0.2043
 9398TIP3    H128158   6.378   2.885   2.999  0.4067 -0.5721  0.4358
 9398TIP3    H228159   6.514   2.932   3.045 -0.2302  2.9194 -0.9599
 9399TIP3   OH228160   0.646   5.350   5.057  0.7276  0.5795 -0.1826
 9399TIP3    H128161   0.633   5.358   4.962  0.9259  1.9134 -0.1231
 9399TIP3    H228162   0.559   5.335   5.092  0.7812 -1.0051 -0.6449
 9400TIP3   OH228163   5.871   6.432   3.924  0.0285  0.5723  0.3579
 9400TIP3    H128164   5.863   6.417   4.018 -0.8930  0.8637  0.3383
 9400TIP3    H228165   5.949   6.485   3.914  1.2549 -1.0559  0.7749
 9401TIP3   OH228166   2.732   2.288   3.587 -0.3266 -0.7399  0.2111
 9401TIP3    H128167   2.720   2.309   3.494 -1.6590 -0.0654  0.5094
 9401TIP3    H228168   2.800   2.349   3.616  0.3043 -1.1450 -0.3668
 9402TIP3   OH228169   0.955   4.686   1.968  0.1535 -0.0124 -0.4005
 9402TIP3    H128170   0.864   4.657   1.973  0.4553 -0.9978 -0.3648
 9402TIP3    H228171   0.977   4.714   2.057  0.0882 -0.4216 -0.2551
 9403TIP3   OH228172   6.458   5.947   2.003  0.2305  0.4374  0.1593
 9403TIP3    H128173   6.375   5.898   2.011  1.5373 -1.8861  0.4958
 9403TIP3    H228174   6.474   5.950   1.909  1.7463 -2.9036  0.1767
 9404TIP3   OH228175   4.178   0.657   5.613 -0.3668  0.0777  0.6025
 9404TIP3    H128176   4.132   0.690   5.691 -0.7011 -1.2431  0.9868
 9404TIP3    H228177   4.120   0.678   5.540 -0.0044  1.4186  0.6607
 9405TIP3   OH228178   4.667   6.447   0.639  0.1488  0.4768 -0.1539
 9405TIP3    H128179   4.669   6.417   0.548  1.2415  0.6301 -0.2018
 9405TIP3    H228180   4.708   6.376   0.688  0.2990  0.7402  0.1037
 9406TIP3   OH228181   2.890   1.648   4.332 -0.3937  0.6413 -0.4106
 9406TIP3    H128182   2.945   1.618   4.260  0.8009 -1.5223  1.2404
 9406TIP3    H228183   2.948   1.648   4.408 -1.9078  1.4902  0.8134
 9407TIP3   OH228184   2.962   0.436   1.357  0.0859 -0.2387  0.7667
 9407TIP3    H128185   3.025   0.470   1.294 -0.6760 -0.0980  0.0548
 9407TIP3    H228186   2.878   0.437   1.310 -0.3557 -0.9109  1.5092
 9408TIP3   OH228187   3.448   6.565   0.250  0.0779 -0.6493 -0.6825
 9408TIP3    H128188   3.476   6.479   0.282  1.4007 -0.6336 -1.6989
 9408TIP3    H228189   3.527   6.602   0.211 -0.8952  0.3252 -1.7806
 9409TIP3   OH228190   3.911   4.582   2.943  0.3188  0.1706 -0.0625
 9409TIP3    H128191   3.887   4.490   2.955  1.3762 -0.2292 -0.8377
 9409TIP3    H228192   3.848   4.630   2.996  0.5108 -1.0737  1.3862
 9410TIP3   OH228193   6.883   0.895   1.558  0.2680 -0.1763 -0.2557
 9410TIP3    H128194   6.918   0.841   1.487 -2.5747 -1.0415 -1.1194
 9410TIP3    H228195   6.887   0.984   1.524 -0.2403 -0.4886 -1.1604
 9411TIP3   OH228196   1.097   1.712   1.730  0.1439 -0.0291 -0.0789
 9411TIP3    H128197   1.122   1.803   1.741  0.3841 -0.2442  1.2245
 9411TIP3    H228198   1.171   1.671   1.685 -0.0037  0.4203 -0.7501
 9412TIP3   OH228199   6.958   3.296   4.174 -0.0012  0.8033 -0.3477
 9412TIP3    H128200   6.997   3.210   4.154 -0.6160  0.6233 -0.7979
 9412TIP3    H228201   7.017   3.359   4.132  0.6262  0.6290  0.2478
 9413TIP3   OH228202   6.079   2.204   3.273 -0.6989  0.1159 -0.9530
 9413TIP3    H128203   6.057   2.185   3.364  0.2276  1.2758 -0.4505
 9413TIP3    H228204   6.011   2.265   3.244 -0.3624  0.6276 -0.6704
 9414TIP3   OH228205   0.950   5.146   3.394  0.2503 -0.8999 -0.2392
 9414TIP3    H128206   0.955   5.240   3.373  0.0332 -0.5321  1.2381
 9414TIP3    H228207   1.039   5.114   3.378  0.4571 -0.3284 -0.2977
 9415TIP3   OH228208   3.391   0.953   2.452  0.4328 -0.5524  0.1250
 9415TIP3    H128209   3.339   0.959   2.532  0.0737 -0.8668 -0.0803
 9415TIP3    H228210   3.326   0.937   2.383  0.5888  0.9477 -0.4212
 9416TIP3   OH228211   1.081   5.759   2.818 -0.4317  0.0632 -0.4374
 9416TIP3    H128212   1.142   5.701   2.864  0.3162  0.1059 -1.3481
 9416TIP3    H228213   0.995   5.720   2.832 -0.1869 -0.0928  0.7276
 9417TIP3   OH228214   3.411   4.824   4.355 -0.2876  0.3973 -0.5231
 9417TIP3    H128215   3.464   4.819   4.435 -3.0860  1.0161  1.4948
 9417TIP3    H228216   3.378   4.735   4.342 -1.1158  0.6254 -0.0334
 9418TIP3   OH228217   1.243   6.086   5.282 -0.1717 -0.0290  0.1608
 9418TIP3    H128218   1.181   6.068   5.211 -0.8234 -1.9254  1.1383
 9418TIP3    H228219   1.322   6.039   5.257 -0.5719 -1.1307  0.8836
 9419TIP3   OH228220   4.352   2.163   3.904 -0.6634  0.2289 -0.3496
 9419TIP3    H128221   4.353   2.174   3.809 -1.5748  0.2178 -0.3714
 9419TIP3    H228222   4.298   2.085   3.919  0.1288 -0.2328  0.1413
 9420TIP3   OH228223   0.182   4.636   4.638 -0.1861  0.1090  0.1152
 9420TIP3    H128224   0.224   4.552   4.655 -0.7315 -0.3565 -0.7997
 9420TIP3    H228225   0.226   4.669   4.560  0.2153  0.8209  0.6259
 9421TIP3   OH228226   0.672   3.432   0.633 -0.1697 -0.2660  0.1174
 9421TIP3    H128227   0.681   3.512   0.583 -1.3488  0.2087  0.6093
 9421TIP3    H228228   0.759   3.394   0.635  0.7041  1.6600  0.9655
 9422TIP3   OH228229   0.544   0.273   2.993 -0.0696  0.3374 -0.1353
 9422TIP3    H128230   0.521   0.183   2.969  0.6974  0.1007 -0.0175
 9422TIP3    H228231   0.618   0.294   2.936  0.0805  0.7097  0.1958
 9423TIP3   OH228232   3.088   0.970   4.723  0.2255 -0.2868 -0.0188
 9423TIP3    H128233   3.046   0.986   4.639  1.7768 -0.8709 -0.9494
 9423TIP3    H228234   3.016   0.948   4.782 -0.7986 -1.0243 -1.4756
 9424TIP3   OH228235   2.149   5.215   5.381  0.1230  0.1759  0.3849
 9424TIP3    H128236   2.095   5.142   5.411  0.3735 -0.9951 -1.7836
 9424TIP3    H228237   2.233   5.176   5.359  0.1247  0.9946 -1.2290
 9425TIP3   OH228238   2.480   6.527   5.193 -0.3940 -0.6817 -0.2820
 9425TIP3    H128239   2.503   6.609   5.150 -0.7578  0.0332  0.8498
 9425TIP3    H228240   2.564   6.481   5.204  0.2240  0.7413  1.4551
 9426TIP3   OH228241   0.215   4.712   3.965  0.3255 -0.0410 -0.0520
 9426TIP3    H128242   0.275   4.655   4.013  0.2223 -1.0417 -1.0647
 9426TIP3    H228243   0.265   4.793   3.952  0.1091  0.5479  2.2979
 9427TIP3   OH228244   2.390   3.771   2.750 -0.2680  0.8990 -0.2946
 9427TIP3    H128245   2.483   3.748   2.741 -0.1851  1.4371 -0.8440
 9427TIP3    H228246   2.357   3.775   2.661 -0.8853  0.4821 -0.0955
 9428TIP3   OH228247  -0.016   0.531   5.006 -0.5741 -0.4081  0.3579
 9428TIP3    H128248   0.078   0.544   5.003 -0.8962  2.4380 -0.3318
 9428TIP3    H228249  -0.049   0.602   5.062 -2.3329 -1.2087  0.4217
 9429TIP3   OH228250   6.150   6.708   0.811 -0.3703  0.5320 -0.0574
 9429TIP3    H128251   6.067   6.686   0.854 -0.3631 -4.4356 -2.0000
 9429TIP3    H228252   6.127   6.730   0.721  0.3691 -0.4134 -0.4930
 9430TIP3   OH228253   4.847   0.426   5.777 -0.0325 -0.2939 -0.4255
 9430TIP3    H128254   4.935   0.461   5.769  0.3062 -1.2002 -0.7846
 9430TIP3    H228255   4.790   0.502   5.763  0.6750  0.5213  0.8970
 9431TIP3   OH228256   5.898   2.222   0.543 -0.2002 -0.1842 -0.2508
 9431TIP3    H128257   5.972   2.283   0.537  0.0918 -0.5132 -0.0234
 9431TIP3    H228258   5.826   2.268   0.500 -0.7142  1.4496  2.0938
 9432TIP3   OH228259   0.487   2.004   3.814 -0.6367  0.2568 -0.4379
 9432TIP3    H128260   0.514   1.938   3.877 -1.0962 -0.9147 -1.4235
 9432TIP3    H228261   0.569   2.035   3.775 -0.3974  0.5123  0.2582
 9433TIP3   OH228262   6.346   5.010   3.438  0.3877 -0.0711  0.1989
 9433TIP3    H128263   6.353   5.088   3.383 -1.3750  0.8979  1.2158
 9433TIP3    H228264   6.375   5.040   3.525  0.8812 -0.9002  0.3243
 9434TIP3   OH228265   3.949   3.419   0.597  0.4868  0.5587  0.0570
 9434TIP3    H128266   4.022   3.458   0.644  1.0894 -0.5848  0.1203
 9434TIP3    H228267   3.877   3.420   0.659  0.3363  1.9757 -0.1061
 9435TIP3   OH228268   1.035   2.454   0.695 -0.1848  0.6045  0.4743
 9435TIP3    H128269   0.989   2.398   0.632  1.9980 -0.9374  0.1245
 9435TIP3    H228270   1.023   2.409   0.779 -0.5316  0.9952  0.6352
 9436TIP3   OH228271   5.678   5.395   0.067 -0.4803  0.3090 -0.9604
 9436TIP3    H128272   5.760   5.381   0.020  1.4071  1.3558  1.7546
 9436TIP3    H228273   5.640   5.308   0.076  1.9373 -0.7080  0.3042
 9437TIP3   OH228274   5.078   0.194   0.701  0.2454  0.2881 -0.6364
 9437TIP3    H128275   5.081   0.283   0.665  2.3486 -0.4579 -2.5045
 9437TIP3    H228276   5.064   0.138   0.625 -1.6133 -1.0292  0.5759
 9438TIP3   OH228277   3.343   0.622   0.748  0.1863  0.4406  0.1359
 9438TIP3    H128278   3.428   0.595   0.713 -0.0505  0.8855 -0.7999
 9438TIP3    H228279   3.279   0.568   0.701 -0.0285 -0.3409  1.2786
 9439TIP3   OH228280   6.377   5.839   1.305 -0.2850 -0.2470 -0.1058
 9439TIP3    H128281   6.302   5.896   1.287 -0.3686  0.1355  1.3419
 9439TIP3    H228282   6.337   5.755   1.329 -0.2198 -0.2796 -0.1119
 9440TIP3   OH228283   0.729   1.819   3.751  0.0798  0.0902  0.1329
 9440TIP3    H128284   0.711   1.888   3.687 -0.7010  1.0919  1.4027
 9440TIP3    H228285   0.688   1.740   3.714  0.7883  0.3300 -1.2197
 9441TIP3   OH228286   3.800   3.395   4.949 -0.1399  0.1431  0.4208
 9441TIP3    H128287   3.722   3.401   4.895  0.2664 -1.7842 -0.4537
 9441TIP3    H228288   3.768   3.405   5.039 -1.3905 -0.5821  0.0746
 9442TIP3   OH228289   5.571   0.295   4.628 -0.4090 -0.1850  0.1032
 9442TIP3    H128290   5.501   0.335   4.577 -0.9244  0.2745  1.1332
 9442TIP3    H228291   5.652   0.327   4.588 -0.7837  2.1752  1.0394
 9443TIP3   OH228292   5.415   5.351   3.460 -0.8833 -0.3939 -0.1269
 9443TIP3    H128293   5.320   5.359   3.449 -0.5951  1.8023 -1.5580
 9443TIP3    H228294   5.426   5.270   3.511 -3.4616 -1.0503 -0.4629
 9444TIP3   OH228295   4.538   6.582   2.592 -0.1308 -0.5586 -0.2187
 9444TIP3    H128296   4.495   6.593   2.507 -1.1496 -0.2660  0.3141
 9444TIP3    H228297   4.579   6.496   2.588 -0.0707 -0.4963 -1.0447
 9445TIP3   OH228298   3.815   3.158   4.074  0.1240  0.2980 -0.0420
 9445TIP3    H128299   3.879   3.213   4.029 -0.4387  1.8670  0.9539
 9445TIP3    H228300   3.731   3.179   4.032  0.1356 -1.1855 -0.8477
 9446TIP3   OH228301   4.760   3.072   1.153  0.7938  0.3441 -0.0637
 9446TIP3    H128302   4.844   3.050   1.112  0.6750  0.4129 -0.3463
 9446TIP3    H228303   4.728   2.989   1.188  0.1098 -0.0440 -1.5588
 9447TIP3   OH228304   1.094   1.234   0.500 -0.1021 -0.4183  0.4715
 9447TIP3    H128305   1.154   1.307   0.516 -1.2134  0.5511  0.2784
 9447TIP3    H228306   1.137   1.158   0.541 -0.1776  0.8330  3.0032
 9448TIP3   OH228307   5.651   0.732   2.797 -0.5223 -0.9740 -0.1168
 9448TIP3    H128308   5.607   0.804   2.844 -0.0372 -1.3888  1.0031
 9448TIP3    H228309   5.650   0.760   2.705  0.4738  0.9099  0.3904
 9449TIP3   OH228310   4.669   2.032   0.603 -0.1032  0.5473 -0.0844
 9449TIP3    H128311   4.653   2.102   0.539  1.9837  1.7555  0.6363
 9449TIP3    H228312   4.620   2.060   0.681  0.1909  0.8669 -0.0130
 9450TIP3   OH228313   5.140   6.415   5.359  0.2161  0.2961  0.2194
 9450TIP3    H128314   5.079   6.472   5.312  0.7005 -0.3295 -1.2040
 9450TIP3    H228315   5.121   6.432   5.452 -2.2593 -0.0615 -0.1650
 9451TIP3   OH228316   6.101   0.663   5.424  0.5900  0.5160  0.4612
 9451TIP3    H128317   6.023   0.651   5.477  0.5900  0.4164  0.4376
 9451TIP3    H228318   6.080   0.623   5.340  0.0082  2.0503 -0.1549
 9452TIP3   OH228319   6.103   5.774   4.395  0.3993 -0.1670 -0.3684
 9452TIP3    H128320   6.117   5.810   4.307  0.0300  0.6915 -0.0888
 9452TIP3    H228321   6.188   5.785   4.439  0.8315 -1.3737 -0.8744
 9453TIP3   OH228322   3.632   1.644   1.348 -0.1581 -0.2087 -0.9120
 9453TIP3    H128323   3.662   1.673   1.262  0.7651 -2.0598 -1.2832
 9453TIP3    H228324   3.668   1.555   1.357 -0.7994 -0.3233  1.1017
 9454TIP3   OH228325   4.701   0.069   2.882 -0.1518  0.6175  0.3431
 9454TIP3    H128326   4.791   0.058   2.913  0.1580  0.5397 -0.5681
 9454TIP3    H228327   4.670  -0.021   2.868 -0.5894  0.6170  1.2321
 9455TIP3   OH228328   6.535   0.931   1.896  0.6771  0.3818 -0.4567
 9455TIP3    H128329   6.469   0.864   1.912  0.1699  1.1795  1.0348
 9455TIP3    H228330   6.592   0.893   1.829 -0.0045 -1.2346 -0.1809
 9456TIP3   OH228331   2.613   6.679   4.070 -0.4996  0.2125 -0.2039
 9456TIP3    H128332   2.644   6.706   4.157 -0.4789  1.7167 -0.6481
 9456TIP3    H228333   2.548   6.611   4.088 -0.7087  0.7008  1.0044
 9457TIP3   OH228334   6.916   3.329   3.156  0.0211  0.4287  0.4362
 9457TIP3    H128335   6.952   3.413   3.126  0.3914 -0.2904 -1.2548
 9457TIP3    H228336   6.823   3.335   3.136 -0.1387  0.8189  1.2681
 9458TIP3   OH228337   0.512   1.880   0.673 -0.0320  0.1422 -0.2458
 9458TIP3    H128338   0.436   1.935   0.691 -1.0990 -1.6671  0.9531
 9458TIP3    H228339   0.540   1.848   0.758  1.2019 -0.3760 -0.8153
 9459TIP3   OH228340   2.584   0.052   1.409 -0.5953 -0.2014 -0.1187
 9459TIP3    H128341   2.498   0.049   1.366  0.0084  0.3842 -1.4039
 9459TIP3    H228342   2.622   0.136   1.382  0.4090 -0.4780  0.3877
 9460TIP3   OH228343   1.547   3.170   5.104 -0.1389 -0.3501  0.8409
 9460TIP3    H128344   1.508   3.123   5.178  1.2670  2.8735  3.9029
 9460TIP3    H228345   1.502   3.254   5.102  1.5365  0.5878 -0.3892
 9461TIP3   OH228346   2.330   3.641   5.542  0.2346 -0.0249  0.0586
 9461TIP3    H128347   2.324   3.558   5.494 -0.0532 -0.3174  0.5993
 9461TIP3    H228348   2.318   3.617   5.633 -0.0668  0.6413  0.1993
 9462TIP3   OH228349   4.780   2.073   5.894 -0.0019 -0.5923  0.2417
 9462TIP3    H128350   4.715   2.082   5.824 -1.1428 -2.3248  1.0169
 9462TIP3    H228351   4.862   2.055   5.848 -0.2645  0.5146 -0.7115
 9463TIP3   OH228352   0.138   3.429   0.705  0.5051  0.0838 -0.1862
 9463TIP3    H128353   0.157   3.336   0.715 -0.1165 -0.0844 -0.5348
 9463TIP3    H228354   0.131   3.462   0.794  2.3902  0.1620 -0.0214
 9464TIP3   OH228355   4.284   1.948   4.170  0.2538  0.3703 -0.2360
 9464TIP3    H128356   4.232   1.980   4.243 -0.0744  0.4705 -0.5112
 9464TIP3    H228357   4.370   1.989   4.181  0.1388  0.5580 -0.0336
 9465TIP3   OH228358   5.917   3.317   2.584 -0.3397 -0.3045  0.2250
 9465TIP3    H128359   5.913   3.332   2.490 -0.6287 -0.0262  0.2780
 9465TIP3    H228360   5.849   3.252   2.600 -0.2303 -0.4170  0.2269
 9466TIP3   OH228361   1.531   0.488   3.292 -0.5292  0.2059 -0.1681
 9466TIP3    H128362   1.550   0.465   3.383  0.0402 -1.3229 -0.6514
 9466TIP3    H228363   1.601   0.446   3.241 -1.0869  0.6655 -1.3503
 9467TIP3   OH228364   1.790   6.299   3.721  0.0772 -0.1035 -0.4368
 9467TIP3    H128365   1.737   6.350   3.659 -0.0393 -2.1557 -2.1464
 9467TIP3    H228366   1.747   6.313   3.806 -1.1989  0.9141 -1.2087
 9468TIP3   OH228367   1.793   4.949   1.930 -0.3436 -0.2887  0.1647
 9468TIP3    H128368   1.830   5.018   1.875 -1.1965  0.6852  0.7875
 9468TIP3    H228369   1.741   4.896   1.870 -0.4511  0.1731 -0.1565
 9469TIP3   OH228370   2.376   1.159   2.198 -0.3335 -0.2456  0.1233
 9469TIP3    H128371   2.346   1.218   2.267  0.2769  0.4002 -0.1571
 9469TIP3    H228372   2.320   1.082   2.207 -1.4763  0.5653  0.1768
 9470TIP3   OH228373   4.754   0.676   5.692 -0.0206  0.3259 -0.4315
 9470TIP3    H128374   4.792   0.757   5.725 -1.5169  0.8099  0.1589
 9470TIP3    H228375   4.710   0.700   5.611 -0.5469  0.1181 -0.2089
 9471TIP3   OH228376   5.606   2.155   5.530  0.6131  1.3806  0.0215
 9471TIP3    H128377   5.699   2.131   5.536  0.8291  1.4469 -2.2012
 9471TIP3    H228378   5.560   2.083   5.572  1.5704  0.1475 -0.9766
 9472TIP3   OH228379   6.259   1.174   1.221 -0.2905 -0.1863 -0.1282
 9472TIP3    H128380   6.234   1.086   1.248  0.9978 -0.5050  0.0966
 9472TIP3    H228381   6.354   1.171   1.215 -0.1115  1.5527  1.1550
 9473TIP3   OH228382   1.494   0.547   1.869 -0.0496 -0.1443 -0.0965
 9473TIP3    H128383   1.405   0.545   1.905  0.2732 -0.5221  0.7156
 9473TIP3    H228384   1.520   0.455   1.865  0.6400  0.0125  0.5408
 9474TIP3   OH228385   5.467   3.470   2.989  0.5066  0.2359  0.5128
 9474TIP3    H128386   5.452   3.515   3.071  0.0833  0.8599  0.1027
 9474TIP3    H228387   5.497   3.383   3.014 -0.2985  0.1847  1.3373
 9475TIP3   OH228388   1.017   6.240   0.273  0.7976 -0.1454 -0.6479
 9475TIP3    H128389   1.048   6.166   0.326 -0.3838 -0.8821 -0.9406
 9475TIP3    H228390   0.959   6.289   0.332  1.1037  0.2036 -0.6374
 9476TIP3   OH228391   6.779   3.395   1.212  0.4429 -0.6697 -0.3423
 9476TIP3    H128392   6.827   3.332   1.159 -2.2721 -2.2086 -1.1343
 9476TIP3    H228393   6.739   3.454   1.149  0.5545  0.0623  0.2511
 9477TIP3   OH228394   5.959   4.964   0.990 -0.0938  0.3661 -0.2265
 9477TIP3    H128395   6.017   5.003   0.925  0.5057 -2.0815 -1.3011
 9477TIP3    H228396   5.873   4.962   0.947 -0.2902  1.1099  0.1155
 9478TIP3   OH228397   2.626   4.650   2.569  0.2619  0.4585  0.0509
 9478TIP3    H128398   2.534   4.661   2.594  0.9717 -0.1409  3.3459
 9478TIP3    H228399   2.664   4.737   2.580  0.5313  0.2395  0.9085
 9479TIP3   OH228400   6.624   3.552   2.832  0.1752 -0.0015  0.0057
 9479TIP3    H128401   6.639   3.643   2.808 -0.5587 -0.0166 -0.5113
 9479TIP3    H228402   6.578   3.557   2.916  1.3666  0.0703  0.6804
 9480TIP3   OH228403   2.753   4.804   4.900 -0.7956 -0.0869 -0.2923
 9480TIP3    H128404   2.763   4.819   4.994 -1.4991  0.9876 -0.3766
 9480TIP3    H228405   2.768   4.890   4.860 -0.5382 -0.5249 -1.1708
 9481TIP3   OH228406   5.018   0.195   1.390 -0.3640 -0.8147 -0.0574
 9481TIP3    H128407   4.984   0.189   1.301 -0.4403 -3.0183  0.0651
 9481TIP3    H228408   4.952   0.245   1.437  0.2327  1.4184 -1.4396
 9482TIP3   OH228409   3.193   5.972   2.471  0.4708  0.0415 -0.4297
 9482TIP3    H128410   3.274   6.023   2.466  2.5161 -3.0205 -1.0953
 9482TIP3    H228411   3.197   5.930   2.557 -1.6572  1.5788  0.5126
 9483TIP3   OH228412   3.387   1.205   1.648 -0.3596 -0.2895 -0.1244
 9483TIP3    H128413   3.311   1.231   1.700 -0.3770  0.2526 -0.4131
 9483TIP3    H228414   3.459   1.256   1.684 -0.4627  0.4582 -0.9266
 9484TIP3   OH228415   0.416   3.155   1.059 -0.2785 -0.3871  0.6167
 9484TIP3    H128416   0.441   3.062   1.065 -0.8372 -0.5786  0.1293
 9484TIP3    H228417   0.491   3.197   1.018 -0.4797 -0.8419 -0.2566
 9485TIP3   OH228418   4.303   5.742   0.618 -0.0751 -0.5430 -0.0275
 9485TIP3    H128419   4.347   5.813   0.572 -1.2349  0.7966  0.8057
 9485TIP3    H228420   4.285   5.779   0.705 -2.6186 -1.0488 -0.2638
 9486TIP3   OH228421   0.346   1.105   1.291 -0.0977  0.1497 -0.4108
 9486TIP3    H128422   0.381   1.093   1.203 -0.4562 -0.3171 -0.4948
 9486TIP3    H228423   0.365   1.022   1.335  0.9465  0.7243  0.2590
 9487TIP3   OH228424   6.771   2.883   3.479 -0.3219  0.4837 -0.1576
 9487TIP3    H128425   6.685   2.921   3.494 -0.7320 -0.3062 -0.4154
 9487TIP3    H228426   6.833   2.944   3.519 -0.9209  1.5614 -0.8435
 9488TIP3   OH228427   2.402   3.559   0.406 -0.2689 -0.8364  0.1409
 9488TIP3    H128428   2.322   3.592   0.448  0.9690  0.4858  1.5805
 9488TIP3    H228429   2.473   3.607   0.449  1.4357 -3.0882  0.0248
 9489TIP3   OH228430   4.023   0.938   1.819  0.3631  0.3327  0.2875
 9489TIP3    H128431   3.960   1.006   1.844  1.6060  0.8668  2.1640
 9489TIP3    H228432   4.017   0.873   1.889  0.7529 -0.4076 -0.3499
 9490TIP3   OH228433   0.783   1.587   0.980 -0.2318  0.0477 -0.6994
 9490TIP3    H128434   0.852   1.521   0.977  0.0771  0.1264  2.0792
 9490TIP3    H228435   0.702   1.537   0.979 -0.0010 -0.5153  1.5231
 9491TIP3   OH228436   1.265   4.122   4.274 -0.2270  0.5929 -0.0856
 9491TIP3    H128437   1.302   4.097   4.189 -1.3268 -1.7708  0.0726
 9491TIP3    H228438   1.310   4.066   4.337  1.3672  3.0426  1.1669
 9492TIP3   OH228439   2.005   5.018   5.508 -0.0126 -0.0957  0.9270
 9492TIP3    H128440   1.949   4.940   5.515  0.0015 -0.1520  0.4494
 9492TIP3    H228441   2.038   5.031   5.597  1.1663 -1.5199  0.7481
 9493TIP3   OH228442   5.525   2.505   3.371 -0.1040 -0.3651  0.1619
 9493TIP3    H128443   5.450   2.495   3.428 -1.2701  1.9169 -0.8851
 9493TIP3    H228444   5.589   2.442   3.405 -0.7951  0.6693  3.7968
 9494TIP3   OH228445   0.668   3.812   2.268 -0.1687  0.6846 -0.6032
 9494TIP3    H128446   0.653   3.740   2.329  0.5253  0.0230 -1.1828
 9494TIP3    H228447   0.740   3.862   2.306 -1.3604  1.7498  0.3554
 9495TIP3   OH228448   3.737   3.793   5.579  0.1613 -0.0699  0.1750
 9495TIP3    H128449   3.786   3.855   5.525 -0.2772  2.0314  2.0293
 9495TIP3    H228450   3.649   3.830   5.584 -0.7948 -2.1006 -0.5026
 9496TIP3   OH228451   3.686   5.258   1.916  0.0796  0.4443  0.2507
 9496TIP3    H128452   3.724   5.174   1.891  0.9265  0.6791  0.6961
 9496TIP3    H228453   3.596   5.238   1.941  0.0359 -0.2033 -0.4057
 9497TIP3   OH228454   5.007   5.643   4.701 -0.5798 -0.3148  0.0510
 9497TIP3    H128455   4.984   5.689   4.782 -0.6017 -0.3842  0.0847
 9497TIP3    H228456   4.989   5.551   4.721 -2.5957 -0.1436 -0.7128
 9498TIP3   OH228457   3.281   2.074   0.327 -0.3010  0.3121  0.4967
 9498TIP3    H128458   3.325   2.097   0.409 -2.2103 -0.6583  1.8741
 9498TIP3    H228459   3.188   2.088   0.345 -0.7151  0.9330 -1.8238
 9499TIP3   OH228460   5.533   2.753   1.932 -0.5527 -0.2378  0.2697
 9499TIP3    H128461   5.625   2.761   1.958 -0.8273 -0.3897  1.3445
 9499TIP3    H228462   5.484   2.785   2.008 -1.3763  0.9158 -0.7125
 9500TIP3   OH228463   2.333   6.653   5.509 -0.1018 -0.7016  0.5513
 9500TIP3    H128464   2.415   6.641   5.557 -0.1342 -1.1115  0.5118
 9500TIP3    H228465   2.266   6.657   5.577  0.0441  0.6392  0.6455
 9501TIP3   OH228466   2.617   4.438   5.807 -0.4006  0.1684  0.1515
 9501TIP3    H128467   2.701   4.406   5.774 -0.4707  0.6351 -0.5104
 9501TIP3    H228468   2.553   4.376   5.772 -0.5576  1.0873 -1.2987
 9502TIP3   OH228469   6.953   2.816   3.957  0.4524  0.2608 -0.0376
 9502TIP3    H128470   6.865   2.822   3.918  0.2490  1.1023  0.5217
 9502TIP3    H228471   6.960   2.894   4.011  0.4911 -1.1243  2.0783
 9503TIP3   OH228472   6.205   6.417   2.918  0.2710 -0.4131  0.7413
 9503TIP3    H128473   6.271   6.348   2.918  0.5474 -0.1730  2.0777
 9503TIP3    H228474   6.153   6.401   2.997 -0.4197  0.2007  0.4288
 9504TIP3   OH228475   1.632   0.697   5.405 -1.0575 -0.2889  0.6509
 9504TIP3    H128476   1.670   0.651   5.330 -0.4451  1.2651 -0.0308
 9504TIP3    H228477   1.647   0.639   5.479  0.6188 -0.7466  0.0012
 9505TIP3   OH228478   4.272   3.871   2.458  0.0236  0.1430 -0.2095
 9505TIP3    H128479   4.336   3.805   2.485  0.3823  0.3491 -0.5513
 9505TIP3    H228480   4.238   3.906   2.541  0.1779 -0.1381 -0.0265
 9506TIP3   OH228481   0.179   1.501   1.152  0.1312 -0.0471 -0.4879
 9506TIP3    H128482   0.118   1.468   1.087  0.5495 -1.1818 -0.3338
 9506TIP3    H228483   0.124   1.527   1.226 -0.1329 -4.0616  1.0065
 9507TIP3   OH228484   5.997   5.461   5.853 -0.1740 -0.7003 -0.3249
 9507TIP3    H128485   5.975   5.502   5.936  1.9894 -1.6364  0.7806
 9507TIP3    H228486   6.008   5.535   5.792 -0.7924  0.0493  0.4473
 9508TIP3   OH228487   5.773   0.719   5.490 -0.7492 -0.7497  0.1592
 9508TIP3    H128488   5.814   0.786   5.433 -2.4208  0.0724 -0.1317
 9508TIP3    H228489   5.737   0.769   5.563 -1.1960 -1.4609  0.4295
 9509TIP3   OH228490   5.719   0.054   4.830  0.0009 -0.6529  0.7386
 9509TIP3    H128491   5.634   0.041   4.788 -0.6739  0.2313  1.7858
 9509TIP3    H228492   5.750  -0.034   4.849 -1.2415 -0.9579  1.4315
 9510TIP3   OH228493   2.233   5.348   0.939 -0.1642 -0.0714  0.3207
 9510TIP3    H128494   2.323   5.331   0.966 -0.5638  0.3599  2.0421
 9510TIP3    H228495   2.225   5.305   0.854  1.7122  0.0574  0.0395
 9511TIP3   OH228496   7.126   5.965   5.617 -0.0019 -0.7036  0.7946
 9511TIP3    H128497   7.217   5.994   5.618 -0.1276 -0.3185  1.2383
 9511TIP3    H228498   7.130   5.875   5.648  0.6069 -1.8716 -2.2774
 9512TIP3   OH228499   1.298   2.982   0.955 -0.3676  0.3735  0.1598
 9512TIP3    H128500   1.378   3.009   0.910 -0.5091 -0.3254 -0.5330
 9512TIP3    H228501   1.262   3.063   0.991  0.6947  0.6865  0.5705
 9513TIP3   OH228502   2.602   0.095   1.687  0.1602  0.0742 -0.3988
 9513TIP3    H128503   2.696   0.079   1.677  0.1697 -0.7224  0.7860
 9513TIP3    H228504   2.566   0.080   1.600  0.6035 -3.6258 -0.1160
 9514TIP3   OH228505   3.556   5.729   0.701 -0.2086  0.0105 -0.5897
 9514TIP3    H128506   3.517   5.816   0.705 -0.5367 -0.1338 -0.6716
 9514TIP3    H228507   3.566   5.703   0.793 -0.2994  0.0476 -0.5698
 9515TIP3   OH228508   1.683   2.260   2.178 -0.0814 -0.0816  0.2205
 9515TIP3    H128509   1.664   2.168   2.159  0.4383 -0.1402 -0.0289
 9515TIP3    H228510   1.752   2.284   2.116 -0.7432  0.6960 -0.2198
 9516TIP3   OH228511   6.931   1.217   0.228  0.5908 -0.0667  0.0939
 9516TIP3    H128512   6.954   1.234   0.320 -1.1264  1.3138  0.3244
 9516TIP3    H228513   6.875   1.291   0.204  1.3072 -0.2114 -2.2061
 9517TIP3   OH228514   2.450   3.939   4.806 -1.1523 -0.3389  0.2932
 9517TIP3    H128515   2.392   4.013   4.823 -0.9713 -0.2714  0.6192
 9517TIP3    H228516   2.479   3.910   4.892  0.5865  0.6601  0.1017
 9518TIP3   OH228517   3.337   1.978   0.954  0.7752  0.1443 -0.3619
 9518TIP3    H128518   3.373   2.040   1.017  0.8104 -1.9962  1.8662
 9518TIP3    H228519   3.414   1.940   0.912  0.7844  0.9209 -1.0674
 9519TIP3   OH228520   4.131   2.645   1.358  0.7357 -0.7212 -0.2542
 9519TIP3    H128521   4.196   2.683   1.298  0.0519 -0.9276 -1.1344
 9519TIP3    H228522   4.099   2.568   1.313 -0.3557 -0.4527  0.0365
 9520TIP3   OH228523   2.320   5.729   1.781  0.2834  0.2203  0.0433
 9520TIP3    H128524   2.376   5.789   1.831 -1.5523  1.3429  0.8863
 9520TIP3    H228525   2.306   5.655   1.839  2.9174 -1.3805 -1.1673
 9521TIP3   OH228526   2.169   2.045   3.362  0.4012 -0.2327 -0.1344
 9521TIP3    H128527   2.201   1.959   3.333  0.9885  0.1430 -0.6401
 9521TIP3    H228528   2.134   2.030   3.449 -2.4221 -1.6592 -1.3909
 9522TIP3   OH228529   1.952   5.733   0.030 -0.3479 -0.8738 -0.1978
 9522TIP3    H128530   1.944   5.707   0.122 -0.1907 -1.2791 -0.2985
 9522TIP3    H228531   1.862   5.740  -0.001 -0.4207 -0.2165  0.1263
 9523TIP3   OH228532   1.985   6.680   3.686  0.3544 -0.4535 -0.2018
 9523TIP3    H128533   1.961   6.660   3.595  0.5937 -0.2297 -0.3159
 9523TIP3    H228534   1.943   6.764   3.704 -1.8792 -1.7073  0.7602
 9524TIP3   OH228535   2.622   6.758   3.535 -0.5185  0.3389 -0.3929
 9524TIP3    H128536   2.560   6.715   3.595 -1.5056 -0.5818 -1.9985
 9524TIP3    H228537   2.566   6.802   3.471  0.5099  1.5008 -0.5167
 9525TIP3   OH228538   1.517   6.414   4.242  0.6175 -0.1558  0.0753
 9525TIP3    H128539   1.445   6.424   4.180 -1.1281 -1.6247  1.7390
 9525TIP3    H228540   1.514   6.493   4.295  1.3135  0.5227 -0.8528
 9526TIP3   OH228541   0.232   1.618   1.771 -0.5670  0.5077 -0.3703
 9526TIP3    H128542   0.277   1.537   1.746 -0.6510  0.6986 -1.1506
 9526TIP3    H228543   0.154   1.621   1.715 -0.1914  1.4845 -0.8628
 9527TIP3   OH228544   0.227   2.706   1.863  0.6601 -0.2249 -0.1835
 9527TIP3    H128545   0.162   2.736   1.800  1.0351  1.3297  0.1264
 9527TIP3    H228546   0.285   2.648   1.812  1.3691  1.5415 -1.4762
 9528TIP3   OH228547   2.728   5.669   3.624 -0.4628 -0.0762  0.3635
 9528TIP3    H128548   2.688   5.582   3.619 -1.6737  0.4436  0.7673
 9528TIP3    H228549   2.756   5.677   3.715 -0.7126  0.1032  0.4269
 9529TIP3   OH228550   0.597   3.182   2.382  0.3041 -0.4301 -0.0508
 9529TIP3    H128551   0.517   3.185   2.329  0.1104 -2.5329  0.0421
 9529TIP3    H228552   0.666   3.210   2.322 -0.2041 -0.6818 -0.7754
 9530TIP3   OH228553   0.856   2.980   2.121 -0.2205 -0.6532 -0.1358
 9530TIP3    H128554   0.887   2.950   2.206  0.9622  1.4935  0.2629
 9530TIP3    H228555   0.882   2.911   2.060 -0.9960 -2.1739  1.1979
 9531TIP3   OH228556   3.084   1.173   3.229 -0.3658 -0.5709 -0.1562
 9531TIP3    H128557   3.138   1.243   3.192  0.8262 -2.1645 -1.5775
 9531TIP3    H228558   3.004   1.174   3.176 -1.4658  1.2156  1.3890
 9532TIP3   OH228559   4.289   5.474   5.631 -0.3388 -0.2087 -0.5347
 9532TIP3    H128560   4.316   5.401   5.687  0.1327  0.9457  0.8077
 9532TIP3    H228561   4.339   5.462   5.550  0.2966 -0.9616 -0.0510
 9533TIP3   OH228562   1.399   5.005   5.542 -0.0508  0.0461  0.3708
 9533TIP3    H128563   1.306   4.987   5.557  0.0579  0.5472  1.8350
 9533TIP3    H228564   1.419   4.961   5.459 -1.1897 -1.4717  0.8556
 9534TIP3   OH228565   0.235   2.790   3.828 -0.2157 -0.2402 -0.2010
 9534TIP3    H128566   0.268   2.711   3.785  0.6417  0.3797 -0.6947
 9534TIP3    H228567   0.229   2.855   3.759 -1.9975 -0.1626 -0.0217
 9535TIP3   OH228568   5.706   3.932   4.618  0.1342  0.2073  0.4904
 9535TIP3    H128569   5.624   3.884   4.626 -0.5122  1.3202  0.6489
 9535TIP3    H228570   5.755   3.908   4.696 -0.0371 -0.4543  0.4001
 9536TIP3   OH228571   1.417   5.849   2.353  0.1218  0.2001  0.1138
 9536TIP3    H128572   1.354   5.901   2.304  0.9675  1.2075  0.0721
 9536TIP3    H228573   1.364   5.782   2.397 -1.0214  1.2390  0.3616
 9537TIP3   OH228574   3.886   0.147   3.036  0.4930 -0.0693  0.1603
 9537TIP3    H128575   3.973   0.134   2.997  0.6325 -0.0204  0.4524
 9537TIP3    H228576   3.862   0.236   3.010 -1.0984 -1.2676 -3.0884
 9538TIP3   OH228577   5.465   1.687   5.717  0.5283  0.3918 -0.5053
 9538TIP3    H128578   5.510   1.716   5.638 -1.1509 -0.9001 -2.0312
 9538TIP3    H228579   5.474   1.591   5.716 -0.3933  0.2795  0.2836
 9539TIP3   OH228580   2.650   1.530   0.303 -0.5096 -0.0991  0.3834
 9539TIP3    H128581   2.730   1.569   0.338 -1.0537  1.0907  0.3595
 9539TIP3    H228582   2.679   1.480   0.227  0.1917  0.4591  0.2724
 9540TIP3   OH228583   6.041   2.620   1.810 -0.3757 -0.1098  0.2790
 9540TIP3    H128584   6.019   2.710   1.787  1.5364  0.1963 -0.5874
 9540TIP3    H228585   6.126   2.627   1.853  0.3687 -1.5644 -0.8514
 9541TIP3   OH228586   4.631   0.089   5.392 -0.2403 -0.4457  0.1659
 9541TIP3    H128587   4.650  -0.002   5.416  3.0216 -0.1484 -0.7802
 9541TIP3    H228588   4.673   0.142   5.460 -0.9614  0.4044 -0.0200
 9542TIP3   OH228589   6.797   1.842   0.234  0.3738 -0.3200  0.0945
 9542TIP3    H128590   6.835   1.755   0.224  0.5444 -0.2066 -0.2973
 9542TIP3    H228591   6.703   1.828   0.235  0.4071 -0.6981  1.9685
 9543TIP3   OH228592   6.350   6.519   5.842  0.1877 -0.1713 -0.0759
 9543TIP3    H128593   6.309   6.444   5.886 -0.5809  0.5133  0.4125
 9543TIP3    H228594   6.382   6.483   5.759  0.4212 -1.1780  0.4358
 9544TIP3   OH228595   6.661   0.831   4.259 -0.1808  0.1075 -0.2526
 9544TIP3    H128596   6.743   0.831   4.308 -1.1013 -2.1902  1.4583
 9544TIP3    H228597   6.611   0.904   4.294  0.4165  0.4163 -0.0315
 9545TIP3   OH228598   1.223   3.206   1.077  0.0175 -0.5385  0.6819
 9545TIP3    H128599   1.200   3.298   1.066 -0.7408 -0.7150  0.7581
 9545TIP3    H228600   1.243   3.197   1.170 -0.7550 -0.6274  0.8494
 9546TIP3   OH228601   0.889   5.251   2.592 -0.5037  0.3311 -0.5353
 9546TIP3    H128602   0.888   5.323   2.654  0.6413  0.0219 -0.1202
 9546TIP3    H228603   0.829   5.277   2.523 -0.9410  1.1812  0.1509
 9547TIP3   OH228604   6.447   1.255   4.156 -0.2753  0.5213  0.2289
 9547TIP3    H128605   6.525   1.235   4.207 -1.0129  1.4465  1.8086
 9547TIP3    H228606   6.479   1.310   4.084  0.3765  2.2489  1.7513
 9548TIP3   OH228607   5.135   1.104   4.787  0.4263  0.2153 -0.6381
 9548TIP3    H128608   5.226   1.124   4.767  0.1077  1.7189 -0.7141
 9548TIP3    H228609   5.087   1.131   4.709  0.1082 -2.9043 -1.6547
 9549TIP3   OH228610   4.867   0.509   1.863  0.0396 -0.2811  0.0764
 9549TIP3    H128611   4.840   0.445   1.929 -0.2968 -0.6900 -0.4425
 9549TIP3    H228612   4.926   0.460   1.805 -1.9763 -0.8092 -1.6450
 9550TIP3   OH228613   6.490   3.717   3.053 -0.8502 -0.3986  0.4474
 9550TIP3    H128614   6.520   3.725   3.144  1.8021  0.2386 -0.4024
 9550TIP3    H228615   6.474   3.806   3.024  2.1332 -0.1467 -0.7950
 9551TIP3   OH228616   5.811   5.060   2.990  1.3029  0.1085 -0.0475
 9551TIP3    H128617   5.749   5.131   3.004  0.9112 -0.5705  1.9306
 9551TIP3    H228618   5.876   5.070   3.059  0.7830 -1.8960  0.8054
 9552TIP3   OH228619   4.888   3.142   0.038  0.3978 -0.3289  0.1551
 9552TIP3    H128620   4.848   3.056   0.022  1.8545 -1.1946  0.9876
 9552TIP3    H228621   4.941   3.158  -0.039  1.8340 -1.2184  0.9167
 9553TIP3   OH228622   3.129   0.447   3.687 -0.3558  0.3449 -0.4479
 9553TIP3    H128623   3.186   0.522   3.707 -0.0017  0.0508 -0.3438
 9553TIP3    H228624   3.052   0.486   3.647  0.1873  0.7113 -1.1719
 9554TIP3   OH228625   0.766   1.944   1.382 -0.3977 -0.6013 -0.1315
 9554TIP3    H128626   0.700   1.947   1.313 -1.2817 -0.2599  0.7024
 9554TIP3    H228627   0.738   2.011   1.444  1.9304  1.0774 -0.7789
 9555TIP3   OH228628   2.788   0.998   4.777  0.2113  0.2929 -0.1808
 9555TIP3    H128629   2.751   0.989   4.690 -0.3098 -0.5092  0.1102
 9555TIP3    H228630   2.726   1.053   4.824 -0.5645 -0.9096  0.2559
 9556TIP3   OH228631   3.453   5.566   2.593 -0.5262 -0.4722  0.1303
 9556TIP3    H128632   3.400   5.513   2.534  0.6837 -1.8443  0.2209
 9556TIP3    H228633   3.497   5.629   2.535 -0.6930 -0.6714 -0.2170
 9557TIP3   OH228634   1.896   1.356   3.371 -0.0493 -0.4871  0.2087
 9557TIP3    H128635   1.835   1.343   3.298  0.8784 -0.8807 -0.5259
 9557TIP3    H228636   1.874   1.287   3.433  0.0964 -1.0808 -0.3798
 9558TIP3   OH228637   6.684   2.593   4.765 -0.0439  0.7969 -0.3794
 9558TIP3    H128638   6.759   2.556   4.810 -1.9399 -1.5687  1.1042
 9558TIP3    H228639   6.705   2.585   4.672  1.2811 -0.4156 -0.0090
 9559TIP3   OH228640   6.658  -0.038   1.876  0.0530  0.3353  0.5867
 9559TIP3    H128641   6.676   0.004   1.792 -2.6649 -0.2234 -0.3602
 9559TIP3    H228642   6.655   0.035   1.939  3.1118  0.6547  0.4882
 9560TIP3   OH228643   3.163   0.969   5.811  0.1296 -0.2116 -0.4618
 9560TIP3    H128644   3.221   0.996   5.883  0.5790 -2.8485  0.3111
 9560TIP3    H228645   3.085   0.935   5.856 -0.6613  0.4029 -1.3571
 9561TIP3   OH228646   1.938   0.775   4.701  0.1554  0.5087 -0.3720
 9561TIP3    H128647   1.927   0.685   4.673 -2.9591  0.3937  0.8178
 9561TIP3    H228648   1.893   0.779   4.786  1.0622  2.9596  0.0713
 9562TIP3   OH228649   3.442   2.327   2.149  0.7257  0.4789  0.1447
 9562TIP3    H128650   3.368   2.376   2.185  1.0462  1.3356 -0.3380
 9562TIP3    H228651   3.518   2.381   2.168  1.3255 -0.6360  1.1027
 9563TIP3   OH228652   2.763   3.674   5.329  1.0594  0.1237 -0.1648
 9563TIP3    H128653   2.771   3.732   5.405 -1.0586 -0.8706  0.9087
 9563TIP3    H228654   2.676   3.693   5.294  1.2921 -0.7287 -1.2372
 9564TIP3   OH228655   6.410   0.187   3.654 -0.0725 -0.0428 -0.0375
 9564TIP3    H128656   6.418   0.093   3.672 -0.8790 -0.1018  0.0334
 9564TIP3    H228657   6.317   0.201   3.640  0.0754  0.7081 -0.3047
 9565TIP3   OH228658   5.610   0.553   1.502  0.3690 -0.2389 -0.7254
 9565TIP3    H128659   5.649   0.630   1.460  0.9028 -0.1253 -0.0295
 9565TIP3    H228660   5.521   0.580   1.524  0.4414  0.0645 -0.7990
 9566TIP3   OH228661   5.358   6.543   2.316 -0.6636  0.1458  0.1254
 9566TIP3    H128662   5.350   6.631   2.279 -1.5547  0.1523  0.3176
 9566TIP3    H228663   5.325   6.551   2.405  1.2730  0.0778  0.8910
 9567TIP3   OH228664   2.174   0.856   5.275 -0.2043  0.2359 -0.1134
 9567TIP3    H128665   2.226   0.777   5.286  0.5264  0.9400  1.8178
 9567TIP3    H228666   2.237   0.922   5.246 -0.5948  0.3997 -0.6047
 9568TIP3   OH228667   6.623   1.568   3.818  0.2049 -0.0506 -0.8689
 9568TIP3    H128668   6.652   1.653   3.850  0.7709 -0.6243  0.1807
 9568TIP3    H228669   6.665   1.504   3.876 -0.0768 -1.0579 -1.7370
 9569TIP3   OH228670   2.929   5.094   1.098  0.1650  0.3873 -0.4311
 9569TIP3    H128671   2.906   5.121   1.009  1.2249 -0.5380 -1.0044
 9569TIP3    H228672   2.846   5.098   1.146 -0.3803  1.0980 -1.3904
 9570TIP3   OH228673   2.972   2.535   2.372  0.8103  0.1406  0.4249
 9570TIP3    H128674   2.920   2.522   2.451  1.4451 -1.1462  0.6663
 9570TIP3    H228675   2.938   2.615   2.333 -2.2553 -1.2724 -0.0982
 9571TIP3   OH228676   1.138   4.905   1.412  0.4194 -0.1403 -0.1908
 9571TIP3    H128677   1.173   4.970   1.473 -2.0367  1.5463 -0.4596
 9571TIP3    H228678   1.111   4.832   1.468  0.4598  0.3223  0.4468
 9572TIP3   OH228679   4.630   1.050   1.688 -0.4912 -0.7164  0.5364
 9572TIP3    H128680   4.601   1.059   1.597  1.3726  0.6381  0.0133
 9572TIP3    H228681   4.595   1.128   1.731  0.5820 -0.1232  0.3772
 9573TIP3   OH228682   1.271   3.037   5.042 -0.2820  0.5467  0.4626
 9573TIP3    H128683   1.192   3.082   5.012 -0.8576 -0.4668  0.4189
 9573TIP3    H228684   1.307   2.996   4.963  0.8406  1.7840  0.2922
 9574TIP3   OH228685   4.132   4.438   5.911 -0.1926  0.1479  0.0809
 9574TIP3    H128686   4.198   4.370   5.897 -1.0057 -0.3207 -1.9291
 9574TIP3    H228687   4.160   4.510   5.855 -0.5794  0.5360  0.3872
 9575TIP3   OH228688   3.726   5.068   2.575  0.8179  0.2822 -0.7108
 9575TIP3    H128689   3.685   5.078   2.489  0.2992  2.8809 -0.2226
 9575TIP3    H228690   3.654   5.060   2.636  1.0746  1.7288 -0.1872
 9576TIP3   OH228691   2.623   2.881   5.842  0.3596  0.6204  0.0317
 9576TIP3    H128692   2.645   2.809   5.782 -1.1540 -0.0823  0.2760
 9576TIP3    H228693   2.656   2.959   5.798  2.6302 -0.2519  0.0626
 9577TIP3   OH228694   4.661   0.914   0.988  0.4313  0.5145 -0.0494
 9577TIP3    H128695   4.682   0.946   0.900 -0.1128  1.7371  0.2384
 9577TIP3    H228696   4.704   0.976   1.047  1.3743 -0.6974  0.5706
 9578TIP3   OH228697   2.552   2.252   2.964  0.0838  0.1944 -0.3292
 9578TIP3    H128698   2.541   2.320   3.031  0.3795  1.3986 -1.4777
 9578TIP3    H228699   2.646   2.249   2.948 -0.1232  1.2968 -2.0362
 9579TIP3   OH228700   3.345   5.082   2.985 -0.5143  0.2110 -0.1785
 9579TIP3    H128701   3.361   4.998   3.028 -1.4109  0.0328 -0.1593
 9579TIP3    H228702   3.292   5.131   3.048  1.0189  1.2762  0.3144
 9580TIP3   OH228703   1.723   3.865   2.736  0.0825 -0.3660 -0.0601
 9580TIP3    H128704   1.719   3.823   2.822 -2.3697  0.9703  0.5978
 9580TIP3    H228705   1.725   3.959   2.756 -1.3854 -0.0080 -1.4005
 9581TIP3   OH228706   0.675   0.044   2.077 -0.8782  0.3133  0.2769
 9581TIP3    H128707   0.618   0.052   2.000 -0.5474  1.1156  0.1043
 9581TIP3    H228708   0.615   0.044   2.151 -1.1425  0.5593  0.0676
 9582TIP3   OH228709   6.911   5.661   4.541 -0.2404 -0.2973 -0.0843
 9582TIP3    H128710   6.915   5.707   4.625 -0.0661 -0.3588 -0.0579
 9582TIP3    H228711   6.883   5.572   4.564 -1.0352 -0.0778 -0.1874
 9583TIP3   OH228712   3.360   0.218   5.138  0.1805 -0.0034 -0.5975
 9583TIP3    H128713   3.273   0.212   5.097 -0.6228 -0.7099  1.1327
 9583TIP3    H228714   3.420   0.187   5.070 -1.2993 -3.1715 -0.6254
 9584TIP3   OH228715   1.496   3.040   0.773  0.0504  0.2850 -0.6185
 9584TIP3    H128716   1.509   3.134   0.787  0.3072  0.0432  0.9619
 9584TIP3    H228717   1.548   3.020   0.695  0.6575  1.3059 -0.4985
 9585TIP3   OH228718   6.413   3.517   1.706 -0.0091  0.5851  0.5142
 9585TIP3    H128719   6.332   3.467   1.711 -0.0318  0.3549 -1.3927
 9585TIP3    H228720   6.472   3.462   1.654  1.9504  0.0368  3.0714
 9586TIP3   OH228721   1.735   0.383   3.155 -0.1733 -0.3636  0.3503
 9586TIP3    H128722   1.758   0.349   3.068  2.0465 -0.9325  1.0937
 9586TIP3    H228723   1.792   0.336   3.215  0.1457  1.8067  1.8593
 9587TIP3   OH228724   6.371   2.224   2.759  0.2176 -0.1104  0.3681
 9587TIP3    H128725   6.310   2.203   2.688  0.8870  1.2272 -0.6535
 9587TIP3    H228726   6.453   2.182   2.734  0.6124  0.8310  0.0403
 9588TIP3   OH228727   5.970   3.507   3.473  0.1097 -0.0860 -0.5378
 9588TIP3    H128728   6.012   3.458   3.403  2.3825 -1.0435  1.3559
 9588TIP3    H228729   6.034   3.574   3.497 -0.7731  0.4702  0.3568
 9589TIP3   OH228730   2.981   4.163   3.136 -0.0151 -0.2406 -0.0515
 9589TIP3    H128731   3.058   4.214   3.161  0.5544  0.2440 -2.5369
 9589TIP3    H228732   3.016   4.079   3.108 -0.9446 -2.2563  4.0372
 9590TIP3   OH228733   5.999   6.369   0.920  0.3345 -0.5367  0.1790
 9590TIP3    H128734   5.918   6.359   0.971  0.5814 -0.4858  0.5894
 9590TIP3    H228735   6.052   6.431   0.971 -1.0962  2.9749 -2.2395
 9591TIP3   OH228736   0.610   3.363   1.283 -0.6331 -0.0190  0.1682
 9591TIP3    H128737   0.686   3.346   1.227  1.0065  0.2413  2.2182
 9591TIP3    H228738   0.610   3.290   1.345 -0.7221  1.1277  1.5508
 9592TIP3   OH228739   3.873   1.405   5.456 -0.0610  0.2182 -0.0305
 9592TIP3    H128740   3.875   1.372   5.366  1.5714  0.3034 -0.0571
 9592TIP3    H228741   3.827   1.488   5.450 -0.9094 -0.2721 -0.5883
 9593TIP3   OH228742   1.323   0.269   1.744 -0.0937  0.4853 -0.7249
 9593TIP3    H128743   1.368   0.209   1.684 -1.3673 -0.5004 -0.7333
 9593TIP3    H228744   1.385   0.281   1.816  0.5848 -0.0323 -1.2048
 9594TIP3   OH228745   3.800   5.008   3.670 -0.4031  0.2821  0.1595
 9594TIP3    H128746   3.818   4.988   3.762  0.1155 -1.7617 -0.3183
 9594TIP3    H228747   3.840   5.093   3.655  1.3870 -0.3092  1.3113
 9595TIP3   OH228748   3.467   1.620   4.668  0.0423 -0.1913 -0.3229
 9595TIP3    H128749   3.448   1.532   4.699 -1.6418  0.6998  1.3482
 9595TIP3    H228750   3.382   1.657   4.645  0.1101  2.2301  2.5827
 9596TIP3   OH228751   6.015   2.058   3.520  0.0149 -0.2241 -0.6892
 9596TIP3    H128752   5.935   2.009   3.499 -0.2343 -0.5901  0.9727
 9596TIP3    H228753   6.073   1.994   3.561 -0.6634  0.9231  2.3889
 9597TIP3   OH228754   1.517   0.260   3.918 -0.3282  0.1873  0.0645
 9597TIP3    H128755   1.563   0.243   3.836  2.3855  1.3606  1.2255
 9597TIP3    H228756   1.479   0.176   3.943  0.7902 -0.7382 -1.2311
 9598TIP3   OH228757   1.935   2.797   0.501 -0.1727  0.0644 -0.1733
 9598TIP3    H128758   1.944   2.874   0.446 -0.0387 -0.2830 -0.6492
 9598TIP3    H228759   1.947   2.723   0.441  1.1136 -0.3103  0.5018
 9599TIP3   OH228760   3.299   1.262   5.455  0.2801  0.1536 -0.7235
 9599TIP3    H128761   3.237   1.246   5.525  2.1679 -0.2227  0.9584
 9599TIP3    H228762   3.269   1.206   5.383 -0.7712 -0.7285  0.3700
 9600TIP3   OH228763   6.047   4.339   5.678 -0.0458  0.1092 -0.6888
 9600TIP3    H128764   6.057   4.265   5.619  1.3239  0.3479 -0.7981
 9600TIP3    H228765   5.958   4.331   5.713 -0.0968 -1.2794 -1.0935
 9601TIP3   OH228766   0.146   4.436   1.528 -0.1790  0.0809 -0.3005
 9601TIP3    H128767   0.097   4.407   1.604 -0.9249  1.3644 -0.2685
 9601TIP3    H228768   0.216   4.491   1.563 -0.4442  0.5672 -0.5145
 9602TIP3   OH228769   1.085   1.508   3.618 -0.0548 -0.4419 -0.1986
 9602TIP3    H128770   1.133   1.534   3.539  1.5354 -0.1218  0.8262
 9602TIP3    H228771   1.079   1.588   3.670 -2.5972 -0.2414 -0.6789
 9603TIP3   OH228772   4.579   5.287   1.021 -0.3561 -0.1754 -0.3760
 9603TIP3    H128773   4.550   5.204   1.060 -0.1478 -0.1887 -0.2450
 9603TIP3    H228774   4.539   5.288   0.934 -2.4121  0.7487  0.5066
 9604TIP3   OH228775   0.613   3.969   1.061  1.1242 -0.3926  0.8049
 9604TIP3    H128776   0.581   4.053   1.027  0.3066 -1.7479 -2.1629
 9604TIP3    H228777   0.708   3.979   1.065  1.2977  0.0150 -1.9275
 9605TIP3   OH228778   2.656   2.824   1.092 -0.2677  0.6092 -0.1090
 9605TIP3    H128779   2.664   2.729   1.100  2.3421  0.6058 -1.5588
 9605TIP3    H228780   2.747   2.856   1.091 -1.0648  3.1426  0.4687
 9606TIP3   OH228781   4.907   0.565   4.845  0.1039 -0.1065 -0.0654
 9606TIP3    H128782   4.940   0.476   4.844  1.3829  0.3452  0.7027
 9606TIP3    H228783   4.980   0.619   4.814 -0.8225  0.6424 -1.0590
 9607TIP3   OH228784   1.693   5.121   2.323 -0.0278 -0.2007 -0.1228
 9607TIP3    H128785   1.620   5.179   2.302  0.4367  0.0620 -1.0708
 9607TIP3    H228786   1.662   5.069   2.397 -0.7506  0.6956  0.2262
 9608TIP3   OH228787   2.710   2.129   4.784 -0.7731 -0.3003  0.3847
 9608TIP3    H128788   2.617   2.116   4.801 -0.6243 -0.3487  1.2072
 9608TIP3    H228789   2.738   2.193   4.850 -0.6799  1.3805 -1.2247
 9609TIP3   OH228790   5.137   1.169   5.843 -0.5940 -0.1417 -0.4103
 9609TIP3    H128791   5.136   1.136   5.933  1.8124  1.0617  0.1223
 9609TIP3    H228792   5.177   1.100   5.791  0.3146  0.1440 -0.0968
 9610TIP3   OH228793   1.300   6.144   3.175 -0.0949 -0.9060 -0.1721
 9610TIP3    H128794   1.330   6.143   3.084  0.2381  0.5698 -0.1037
 9610TIP3    H228795   1.366   6.094   3.223  0.4819 -0.5124 -0.5380
 9611TIP3   OH228796   2.374   1.044   0.773 -0.4970 -0.6027  0.6700
 9611TIP3    H128797   2.384   1.061   0.679  1.4414 -1.4133  0.6831
 9611TIP3    H228798   2.302   0.982   0.779  1.2658 -2.9286 -0.6176
 9612TIP3   OH228799   0.804   1.284   4.927 -0.5559  0.6746  0.4729
 9612TIP3    H128800   0.731   1.222   4.931 -1.2638  1.4897  0.6056
 9612TIP3    H228801   0.811   1.308   4.835  1.2097 -1.2843  0.0243
 9613TIP3   OH228802   6.998   3.899   3.143  0.0705 -0.1862 -0.3267
 9613TIP3    H128803   6.995   3.806   3.121  0.3508 -0.4366  0.6423
 9613TIP3    H228804   6.977   3.903   3.236 -2.0004  0.9248 -0.7752
 9614TIP3   OH228805   2.239   1.385   0.140 -0.0478  0.5030 -0.1379
 9614TIP3    H128806   2.232   1.421   0.228  0.4857  1.1260 -0.3422
 9614TIP3    H228807   2.250   1.291   0.154 -1.5693  0.3725  0.3936
 9615TIP3   OH228808   4.472   0.864   5.070  0.2527 -0.0993 -0.6173
 9615TIP3    H128809   4.521   0.805   5.012 -0.3286  0.0984 -1.3259
 9615TIP3    H228810   4.430   0.927   5.011  2.0471  1.9802  0.2143
 9616TIP3   OH228811   3.599   0.089   0.208  0.3280  0.0508  0.2952
 9616TIP3    H128812   3.580   0.181   0.224 -0.8094  0.0877 -1.0554
 9616TIP3    H228813   3.518   0.053   0.172  0.3018 -1.8334  2.0215
 9617TIP3   OH228814   2.767   3.887   3.498  0.0769  0.1537  0.1921
 9617TIP3    H128815   2.754   3.977   3.529  1.1260  0.6756 -0.8383
 9617TIP3    H228816   2.681   3.847   3.507 -0.3378  1.1599  0.9667
 9618TIP3   OH228817   7.067   1.527   5.342  0.4151 -0.6798  0.4457
 9618TIP3    H128818   7.081   1.441   5.382 -0.0997 -1.6225 -1.2904
 9618TIP3    H228819   7.057   1.586   5.416  0.0625 -2.2307  1.7023
 9619TIP3   OH228820   1.224   4.536   0.164 -0.1102 -0.8311  0.1381
 9619TIP3    H128821   1.199   4.578   0.082  0.3452  0.6635  0.7252
 9619TIP3    H228822   1.320   4.541   0.165 -0.1681  1.6479  1.9351
 9620TIP3   OH228823   0.165   3.216   2.204  0.6687  0.7147  0.0552
 9620TIP3    H128824   0.260   3.224   2.214  0.5347  0.8041  1.5868
 9620TIP3    H228825   0.148   3.122   2.199  0.8262  0.6948 -0.0837
 9621TIP3   OH228826   4.094   5.661   4.072 -0.4284  0.1147 -0.2399
 9621TIP3    H128827   4.178   5.682   4.033  0.3511 -2.9080 -0.3948
 9621TIP3    H228828   4.099   5.696   4.161  1.5762 -1.1730  0.2049
 9622TIP3   OH228829   1.407   2.086   4.072 -0.2148 -0.4536  0.1040
 9622TIP3    H128830   1.368   2.174   4.075  1.0483  0.1160  0.8115
 9622TIP3    H228831   1.474   2.092   4.004 -1.8440 -1.6720 -1.7165
 9623TIP3   OH228832   6.113   5.697   3.021 -0.9022 -0.2952  0.0026
 9623TIP3    H128833   6.197   5.728   2.985 -1.3712  0.7176 -0.2385
 9623TIP3    H228834   6.078   5.640   2.952 -0.2775 -0.9998  0.2403
 9624TIP3   OH228835   2.074   3.769   2.553  0.3690 -0.3041  0.0165
 9624TIP3    H128836   1.995   3.714   2.553 -0.6228  1.0495 -1.1842
 9624TIP3    H228837   2.053   3.841   2.613  0.1516  0.7561 -1.2992
 9625TIP3   OH228838   3.670   4.481   2.163  0.3238 -0.0580 -0.5278
 9625TIP3    H128839   3.588   4.519   2.130 -0.7020 -2.3173 -0.7553
 9625TIP3    H228840   3.724   4.473   2.085  0.5503  0.8514 -0.4813
 9626TIP3   OH228841   6.836   1.414   2.048  0.4757 -0.6519 -0.4251
 9626TIP3    H128842   6.770   1.357   2.010  1.4216 -0.8864 -1.7815
 9626TIP3    H228843   6.919   1.368   2.034  1.0609  0.1579  0.2156
 9627TIP3   OH228844   5.364   4.680   4.363 -0.4986 -0.0504 -0.4975
 9627TIP3    H128845   5.374   4.707   4.272 -1.6443 -1.3668 -1.0570
 9627TIP3    H228846   5.445   4.632   4.383  0.7531  2.0906 -0.0519
 9628TIP3   OH228847   6.228   6.708   2.583 -0.0266 -0.2696 -0.3983
 9628TIP3    H128848   6.315   6.719   2.546 -0.2396  4.0362 -0.1225
 9628TIP3    H228849   6.239   6.724   2.677 -1.0971  0.6677 -0.4065
 9629TIP3   OH228850   6.633   1.071   0.536  0.8273 -0.8423 -0.0792
 9629TIP3    H128851   6.605   1.139   0.475  2.1846  1.1094  1.3261
 9629TIP3    H228852   6.553   1.042   0.579  0.3324  0.8724  0.2239
 9630TIP3   OH228853   6.883   0.840   2.958  0.6944 -0.2190  0.5408
 9630TIP3    H128854   6.902   0.906   3.024  0.3054 -1.5145  1.9994
 9630TIP3    H228855   6.790   0.820   2.969  1.0360 -1.7968  0.9281
 9631TIP3   OH228856   3.043   3.581   2.377  0.6520  0.3594 -0.0016
 9631TIP3    H128857   3.124   3.538   2.350  0.2260 -0.3236 -0.2023
 9631TIP3    H228858   3.057   3.674   2.355  1.9486  0.5147  1.3007
 9632TIP3   OH228859   4.257   0.749   4.642  0.4944 -0.2973 -0.2332
 9632TIP3    H128860   4.163   0.749   4.659  0.0086  2.9573 -2.0920
 9632TIP3    H228861   4.271   0.673   4.586 -0.4431 -2.3525  2.1005
 9633TIP3   OH228862   0.822   3.005   5.544 -0.0336 -0.0732 -0.7154
 9633TIP3    H128863   0.908   2.964   5.533 -0.0036  0.0039 -0.7702
 9633TIP3    H228864   0.766   2.960   5.480 -0.3245 -0.9334  0.1134
 9634TIP3   OH228865   3.168   5.656   4.242  0.1047 -0.0761 -0.3028
 9634TIP3    H128866   3.253   5.668   4.283  0.7140 -0.5486 -1.3812
 9634TIP3    H228867   3.152   5.562   4.244 -1.2636  0.1405  1.5288
 9635TIP3   OH228868   2.375   0.248   2.105 -0.0439 -0.9213  0.1422
 9635TIP3    H128869   2.393   0.208   2.020  3.4308  1.2900 -0.3829
 9635TIP3    H228870   2.439   0.207   2.164  0.9297  0.9545  0.4654
 9636TIP3   OH228871   3.238   1.039   3.969 -0.0868 -0.3838 -0.4224
 9636TIP3    H128872   3.298   1.034   4.043 -0.1854  0.0858 -0.3139
 9636TIP3    H228873   3.282   0.990   3.899  1.2678  1.4719 -0.9322
 9637TIP3   OH228874   6.752   6.531   5.396 -0.5945 -0.0725 -0.2363
 9637TIP3    H128875   6.674   6.568   5.438  0.5996 -0.1888  2.2866
 9637TIP3    H228876   6.819   6.534   5.464  0.9366 -2.2617 -1.5271
 9638TIP3   OH228877   6.864   0.896   0.006  0.2760  0.0189  0.1830
 9638TIP3    H128878   6.829   0.956   0.072  1.2356  1.4233 -0.5079
 9638TIP3    H228879   6.959   0.906   0.013  0.4010  0.3091 -1.4766
 9639TIP3   OH228880   5.831   6.388   2.727 -0.4256 -0.2085 -0.0312
 9639TIP3    H128881   5.918   6.428   2.715  0.2389 -1.0990  1.5023
 9639TIP3    H228882   5.781   6.454   2.775 -0.7448  0.4648 -1.2586
 9640TIP3   OH228883   1.940   5.779   2.074  0.1921  0.0667 -0.1583
 9640TIP3    H128884   1.905   5.748   2.158 -0.1105  0.2318 -0.2216
 9640TIP3    H228885   1.886   5.736   2.008  0.6790 -0.3627 -0.2812
 9641TIP3   OH228886   3.171   0.518   1.173 -0.2006  0.2170  0.5272
 9641TIP3    H128887   3.215   0.593   1.134 -0.6990  0.8645  1.2046
 9641TIP3    H228888   3.119   0.480   1.101  0.7390 -0.0265 -0.0459
 9642TIP3   OH228889   5.015   2.031   5.728  0.1951  0.3979 -0.3921
 9642TIP3    H128890   5.060   2.050   5.810  1.9013 -1.0680 -0.9036
 9642TIP3    H228891   5.086   2.006   5.668 -1.1231  0.2840 -1.9554
 9643TIP3   OH228892   1.130   0.137   1.541  0.5626  0.0411 -0.4852
 9643TIP3    H128893   1.216   0.155   1.578  0.0230 -1.0296  1.4305
 9643TIP3    H228894   1.141   0.053   1.496  0.8770  0.6738 -1.6294
 9644TIP3   OH228895   4.289   5.456   4.659 -0.0757 -0.1393  0.2006
 9644TIP3    H128896   4.373   5.500   4.653 -1.7670  3.1596 -3.2388
 9644TIP3    H228897   4.244   5.498   4.731 -0.1700  0.9637 -0.4815
 9645TIP3   OH228898   0.071   0.043   4.413 -0.2570 -0.5729 -0.5546
 9645TIP3    H128899   0.007   0.112   4.430 -0.0548 -0.6304  0.5187
 9645TIP3    H228900   0.034  -0.035   4.456  0.8716 -0.4223  0.7556
 9646TIP3   OH228901   6.256   0.442   5.244  0.0842 -0.0582 -0.0919
 9646TIP3    H128902   6.330   0.503   5.246  0.8172 -0.9354  0.6958
 9646TIP3    H228903   6.229   0.435   5.336 -1.5107  0.8441 -0.4510
 9647TIP3   OH228904   2.577   5.194   2.846 -0.4694 -0.3693 -0.2314
 9647TIP3    H128905   2.642   5.193   2.916  1.3294  0.0529 -1.8054
 9647TIP3    H228906   2.528   5.113   2.858  1.5524 -1.6405  0.0019
 9648TIP3   OH228907   1.497   2.298   5.152 -0.2189 -0.2831  0.1609
 9648TIP3    H128908   1.448   2.226   5.112 -0.3713 -0.4143  0.5797
 9648TIP3    H228909   1.539   2.343   5.078 -0.7334 -0.3434 -0.1689
 9649TIP3   OH228910   1.331   6.440   4.556  0.0952 -0.3862  0.1603
 9649TIP3    H128911   1.286   6.381   4.496 -1.2153  0.8204 -0.0862
 9649TIP3    H228912   1.419   6.448   4.520 -0.1222 -1.1037 -0.5607
 9650TIP3   OH228913   6.532   3.032   2.011 -0.4720 -0.5430  0.0665
 9650TIP3    H128914   6.559   2.974   2.082 -0.1836 -0.4966 -0.0021
 9650TIP3    H228915   6.608   3.089   1.997 -0.0908 -1.2985 -1.0590
 9651TIP3   OH228916   7.034   3.268   1.133 -0.2934  0.0427 -0.2180
 9651TIP3    H128917   7.099   3.200   1.118 -1.9395 -1.8192  0.6933
 9651TIP3    H228918   7.048   3.296   1.223 -0.1874  0.2841 -0.3083
 9652TIP3   OH228919   4.310   5.899   5.178 -0.2153  0.6051 -0.2308
 9652TIP3    H128920   4.232   5.866   5.223 -0.0811 -0.8040 -0.9779
 9652TIP3    H228921   4.340   5.973   5.232 -1.7533  0.8379  0.3438
 9653TIP3   OH228922   6.601   5.081   5.805 -1.1589  0.0642  0.1768
 9653TIP3    H128923   6.628   5.120   5.721 -0.7725  0.3350  0.4202
 9653TIP3    H228924   6.508   5.062   5.794 -0.6171 -2.2241 -1.2096
 9654TIP3   OH228925   6.235   5.124   2.034  0.1537 -0.0103 -0.3662
 9654TIP3    H128926   6.304   5.110   2.099 -0.9809  1.4561  1.2489
 9654TIP3    H228927   6.188   5.041   2.031  0.3294 -0.1512  0.5508
 9655TIP3   OH228928   2.097   1.641   5.645  0.6237 -0.2239  0.0577
 9655TIP3    H128929   2.125   1.692   5.569  1.0699 -0.4243  0.0832
 9655TIP3    H228930   2.024   1.690   5.682 -0.2598 -0.6411 -1.0907
 9656TIP3   OH228931   1.772   4.905   1.199 -0.4429  0.4577 -0.0161
 9656TIP3    H128932   1.798   4.996   1.189 -0.1349  0.2711 -0.9818
 9656TIP3    H228933   1.769   4.871   1.110  1.0333 -0.9265  0.4191
 9657TIP3   OH228934   1.447   0.161   1.542  0.3687 -0.2383 -0.2163
 9657TIP3    H128935   1.423   0.157   1.450 -0.7412  1.4226 -0.0321
 9657TIP3    H228936   1.540   0.184   1.541  0.0702  0.9863 -0.9268
 9658TIP3   OH228937   6.634   3.809   0.031 -0.2660 -0.0855 -0.2269
 9658TIP3    H128938   6.636   3.899   0.061 -1.8136 -0.6006  1.6449
 9658TIP3    H228939   6.726   3.781   0.029  0.0406  0.4882  2.6413
 9659TIP3   OH228940   3.910   5.495   0.369 -0.1822  0.0386 -0.6529
 9659TIP3    H128941   3.932   5.588   0.374  1.1802 -0.1313 -2.3993
 9659TIP3    H228942   3.863   5.486   0.286 -1.8916 -0.5811  0.3395
 9660TIP3   OH228943   6.232   3.832   0.834 -0.0864 -0.2820 -0.0930
 9660TIP3    H128944   6.174   3.808   0.763 -1.5627  1.9878  0.2452
 9660TIP3    H228945   6.225   3.759   0.896  0.9518 -2.1219 -2.0127
 9661TIP3   OH228946   4.186   2.218   3.205 -0.5177  0.3637 -0.1129
 9661TIP3    H128947   4.181   2.218   3.109  0.4816  0.2056 -0.1768
 9661TIP3    H228948   4.123   2.285   3.232 -0.4331  0.7760 -0.9003
 9662TIP3   OH228949   4.649   5.504   0.426 -0.9479 -0.2783  0.6458
 9662TIP3    H128950   4.662   5.498   0.521  0.9080 -0.6697  0.4017
 9662TIP3    H228951   4.571   5.452   0.409 -1.8675  0.5568  2.0494
 9663TIP3   OH228952   5.583   4.514   0.703  0.3319  0.4697  0.4232
 9663TIP3    H128953   5.534   4.545   0.628  0.4757  0.9613  0.5295
 9663TIP3    H228954   5.538   4.551   0.779 -0.5631 -1.0417  0.6657
 9664TIP3   OH228955   5.598   3.179   3.421 -0.5015  0.2080  0.0245
 9664TIP3    H128956   5.508   3.204   3.445 -0.5785  0.9210 -0.9628
 9664TIP3    H228957   5.589   3.139   3.334  0.1755  0.5513 -0.2077
 9665TIP3   OH228958   1.127   1.736   2.842  0.1845 -0.2237 -0.4752
 9665TIP3    H128959   1.123   1.711   2.749 -0.2051 -0.2345 -0.4552
 9665TIP3    H228960   1.037   1.755   2.866  0.1876 -0.8727  0.0801
 9666TIP3   OH228961   6.657   2.233   3.317 -0.4039 -0.1081  0.3731
 9666TIP3    H128962   6.619   2.293   3.381  1.9420  0.9007  0.9350
 9666TIP3    H228963   6.626   2.264   3.232 -3.3948 -1.3404  0.8887
 9667TIP3   OH228964   4.975   6.544   2.160 -0.0585 -0.1267  0.0336
 9667TIP3    H128965   4.991   6.634   2.131 -1.5517  0.3293  0.5532
 9667TIP3    H228966   4.888   6.523   2.126 -1.3434 -0.0216  2.9696
 9668TIP3   OH228967   3.689   3.106   5.086  0.3896  0.2284 -0.8405
 9668TIP3    H128968   3.673   3.094   4.993 -1.0789 -1.6736 -0.4197
 9668TIP3    H228969   3.777   3.071   5.101  0.3763 -0.0627 -1.4315
 9669TIP3   OH228970   2.409   3.241   0.838 -0.2192  0.1729  0.7371
 9669TIP3    H128971   2.318   3.223   0.816  0.1278 -0.0902 -0.5654
 9669TIP3    H228972   2.442   3.157   0.871 -0.2396  0.0419  0.4345
 9670TIP3   OH228973   5.346   1.175   2.118  0.4198  0.2107 -0.2190
 9670TIP3    H128974   5.404   1.127   2.059  1.1362 -0.3938  0.9402
 9670TIP3    H228975   5.345   1.264   2.084  1.3216  0.0198 -0.7653
 9671TIP3   OH228976   1.187   5.069   1.632 -0.1135  0.5627 -0.2837
 9671TIP3    H128977   1.119   5.126   1.668  0.9086  1.0494  0.9211
 9671TIP3    H228978   1.234   5.035   1.708  1.4067  0.7443 -1.1047
 9672TIP3   OH228979   3.427   1.369   4.756  0.0176 -0.5112 -0.0137
 9672TIP3    H128980   3.347   1.318   4.767  0.0221 -0.5424 -0.1200
 9672TIP3    H228981   3.490   1.307   4.718  0.9402 -1.2669  2.5858
 9673TIP3   OH228982   1.384   2.678   1.882 -0.1621  0.8537  0.1763
 9673TIP3    H128983   1.441   2.651   1.810 -2.4544 -1.5664 -0.9139
 9673TIP3    H228984   1.405   2.617   1.953 -0.7490  0.5443  0.0866
 9674TIP3   OH228985   0.330   3.323   0.049 -0.2756 -0.1012  0.4043
 9674TIP3    H128986   0.243   3.356   0.026 -0.5108 -1.1628 -0.3069
 9674TIP3    H228987   0.314   3.253   0.112  0.1310  0.2961  0.9590
 9675TIP3   OH228988   1.714   1.098   5.333 -0.1050  0.0728  0.1350
 9675TIP3    H128989   1.751   1.040   5.400  0.4991  1.4488  1.0287
 9675TIP3    H228990   1.662   1.040   5.278  1.0056 -1.4274  0.6042
 9676TIP3   OH228991   5.867   0.536   0.625  0.2187  0.0723  0.2114
 9676TIP3    H128992   5.807   0.582   0.683  1.2389 -1.4047  2.5698
 9676TIP3    H228993   5.810   0.480   0.572 -0.6212 -1.7509  2.8117
 9677TIP3   OH228994   6.817   6.391   2.713 -0.2826  0.2132 -0.4291
 9677TIP3    H128995   6.820   6.299   2.738 -0.5791  0.2244 -0.3413
 9677TIP3    H228996   6.742   6.426   2.761  1.1516  1.0442  1.3083
 9678TIP3   OH228997   4.915   4.762   2.574  0.3114  0.1567 -0.2846
 9678TIP3    H128998   4.866   4.695   2.525 -1.5401  0.9906  0.3518
 9678TIP3    H228999   4.903   4.739   2.666  2.8814 -0.7732 -0.0782
 9679TIP3   OH229000   1.571   1.269   0.697 -0.1480 -0.1787 -0.7322
 9679TIP3    H129001   1.595   1.176   0.696  2.1965  0.2074  2.5310
 9679TIP3    H229002   1.589   1.299   0.607  2.1116 -2.2472 -1.0905
 9680TIP3   OH229003   0.766   4.253   0.589  0.2894 -0.4349 -0.0385
 9680TIP3    H129004   0.696   4.208   0.637 -0.5700  0.3835 -0.4923
 9680TIP3    H229005   0.763   4.215   0.502  0.8317 -0.8349  0.1129
 9681TIP3   OH229006   6.217   3.334   1.774  0.1140  0.1816  0.0665
 9681TIP3    H129007   6.153   3.353   1.843 -1.1576 -2.5257 -0.2550
 9681TIP3    H229008   6.288   3.288   1.820 -0.7136 -1.5857 -0.3809
 9682TIP3   OH229009   5.959   4.017   5.105  0.1134  0.1739  0.2257
 9682TIP3    H129010   5.986   4.004   5.014 -0.0307 -1.0776  0.3363
 9682TIP3    H229011   5.957   3.928   5.142  0.8852  0.7146  1.6601
 9683TIP3   OH229012   5.437   5.268   5.214  0.3069  0.0109 -0.6225
 9683TIP3    H129013   5.459   5.346   5.265  0.7884 -0.5267  0.0117
 9683TIP3    H229014   5.456   5.292   5.123 -0.1580  0.8368 -0.5067
 9684TIP3   OH229015   6.086   1.455   0.347  0.6253  0.3337 -0.0595
 9684TIP3    H129016   6.155   1.519   0.363  0.3214  0.8766 -0.8628
 9684TIP3    H229017   6.077   1.451   0.252  0.7407 -1.0249 -0.0380
 9685TIP3   OH229018   5.454   3.207   2.260  0.3128  0.0262 -0.1805
 9685TIP3    H129019   5.476   3.145   2.330  0.3508  0.7460  0.4684
 9685TIP3    H229020   5.453   3.292   2.304 -0.1332  0.4366 -0.9719
 9686TIP3   OH229021   2.839   6.274   3.739  0.0070 -0.0837 -0.0010
 9686TIP3    H129022   2.820   6.286   3.646  2.7074 -1.3905 -0.8416
 9686TIP3    H229023   2.861   6.361   3.771  0.9962  0.1130 -1.1368
 9687TIP3   OH229024   1.772   1.502   1.736  0.2664 -0.2977 -0.5638
 9687TIP3    H129025   1.838   1.561   1.773  0.7828 -0.8621 -0.5790
 9687TIP3    H229026   1.814   1.465   1.658 -0.3608 -0.0630 -1.0199
 9688TIP3   OH229027   2.072   3.812   0.438  0.4369 -0.0836 -0.1925
 9688TIP3    H129028   2.051   3.763   0.359 -0.7395 -0.8438  0.5537
 9688TIP3    H229029   2.117   3.748   0.495 -0.4473 -0.1074  0.4961
 9689TIP3   OH229030   4.599   1.639   0.815 -0.1200 -0.0152  0.0371
 9689TIP3    H129031   4.613   1.589   0.896  0.4520  0.1652  0.0572
 9689TIP3    H229032   4.620   1.729   0.839  0.3932 -0.0143 -0.3959
 9690TIP3   OH229033   3.988   2.388   3.323 -0.5425  0.0118 -0.6600
 9690TIP3    H129034   3.990   2.347   3.410  1.1665  0.0248 -0.6502
 9690TIP3    H229035   3.987   2.482   3.342 -1.4257  0.0079 -0.6681
 9691TIP3   OH229036   6.716   6.379   3.932  0.1942  0.2934  0.0206
 9691TIP3    H129037   6.696   6.285   3.929 -1.8527  0.7156 -0.4667
 9691TIP3    H229038   6.687   6.407   4.019 -0.6373  0.7604 -0.3981
 9692TIP3   OH229039   6.733   5.827   1.654  0.3671 -0.1825  0.3879
 9692TIP3    H129040   6.806   5.845   1.713  0.1387  0.0044  0.6159
 9692TIP3    H229041   6.660   5.808   1.712  0.2044 -0.2567  0.1609
 9693TIP3   OH229042   0.426   2.127   3.195 -0.1243  0.1707  0.1082
 9693TIP3    H129043   0.459   2.186   3.127 -2.0222  0.6751 -0.4300
 9693TIP3    H229044   0.337   2.105   3.167 -0.1910 -1.3266  1.3577
 9694TIP3   OH229045   5.619   1.000   3.689  0.2500  0.0084  0.2308
 9694TIP3    H129046   5.532   1.037   3.678  0.1368 -0.0882  0.7368
 9694TIP3    H229047   5.659   1.052   3.759 -0.9198 -2.4534  2.9414
 9695TIP3   OH229048   4.855   4.871   5.623 -0.3884  0.7807  0.1723
 9695TIP3    H129049   4.845   4.875   5.719  1.6275  0.3474  0.4587
 9695TIP3    H229050   4.915   4.797   5.609  0.5191  1.7424 -1.3003
 9696TIP3   OH229051   2.486   4.175   0.162 -0.1950 -0.0080 -0.1413
 9696TIP3    H129052   2.543   4.190   0.087  1.2225  0.5824  1.0197
 9696TIP3    H229053   2.533   4.112   0.216 -1.4157 -0.7870  0.0691
 9697TIP3   OH229054   5.153   3.071   1.846 -0.3006  0.3897 -0.2068
 9697TIP3    H129055   5.225   3.045   1.788 -0.5673 -1.8182  0.3942
 9697TIP3    H229056   5.194   3.083   1.931 -0.4305  0.5388 -0.1644
 9698TIP3   OH229057   4.312   2.661   4.429 -0.1853  0.1898 -0.1245
 9698TIP3    H129058   4.303   2.743   4.380 -0.1357  0.3652  0.1610
 9698TIP3    H229059   4.359   2.685   4.508 -0.9574  0.0423  0.3822
 9699TIP3   OH229060   4.120   0.167   4.449 -0.3274 -0.1359 -0.2157
 9699TIP3    H129061   4.142   0.075   4.465  0.5103 -0.0025 -0.5464
 9699TIP3    H229062   4.057   0.165   4.377  0.6244 -0.3967 -1.0665
 9700TIP3   OH229063   1.552   0.036   3.089  0.5834 -0.1928  0.5384
 9700TIP3    H129064   1.546   0.099   3.017 -2.0073 -0.6164  0.2872
 9700TIP3    H229065   1.537  -0.049   3.048 -1.2445 -0.4131  1.5726
 9701TIP3   OH229066   3.850   3.139   2.164  0.0617 -0.5328 -0.0657
 9701TIP3    H129067   3.918   3.146   2.097 -1.4754 -0.4044 -1.6759
 9701TIP3    H229068   3.841   3.228   2.199  0.4875 -0.4897 -0.0614
 9702TIP3   OH229069   1.515   2.779   3.723  0.4929  0.0050 -0.7620
 9702TIP3    H129070   1.556   2.853   3.767 -0.9967  1.8576 -2.3119
 9702TIP3    H229071   1.425   2.778   3.755  0.1073 -0.2350 -1.8140
 9703TIP3   OH229072   6.561   4.783   2.695  0.1052 -0.6149 -1.2481
 9703TIP3    H129073   6.520   4.862   2.660 -0.5980 -0.2112  0.3817
 9703TIP3    H229074   6.654   4.802   2.696  0.2939 -1.0754 -3.8640
 9704TIP3   OH229075   1.049   0.721   0.583  0.3635  0.4077 -0.4974
 9704TIP3    H129076   1.102   0.798   0.602  2.9618 -0.7438 -2.4705
 9704TIP3    H229077   1.046   0.673   0.666 -0.4116  2.0511  0.4790
 9705TIP3   OH229078   3.747   2.082   3.627 -0.3952 -0.6430 -0.1138
 9705TIP3    H129079   3.666   2.090   3.677 -1.9030 -0.2631 -2.4732
 9705TIP3    H229080   3.771   1.990   3.636 -0.2420 -0.4670  1.7656
 9706TIP3   OH229081   1.235   4.608   3.711 -0.0437  0.0291 -0.0858
 9706TIP3    H129082   1.290   4.660   3.653  1.0588  0.2015  1.0676
 9706TIP3    H229083   1.290   4.534   3.735 -0.7155 -0.3685  0.2259
 9707TIP3   OH229084   5.328   4.420   5.108 -0.3235  0.0960 -0.3014
 9707TIP3    H129085   5.349   4.346   5.165  2.0501 -0.4565 -1.7862
 9707TIP3    H229086   5.369   4.398   5.024 -2.5549  1.5028 -1.8597
 9708TIP3   OH229087   2.504   1.108   1.327  0.1283  0.0192 -0.4231
 9708TIP3    H129088   2.450   1.052   1.384 -0.5945 -1.3447 -2.3564
 9708TIP3    H229089   2.486   1.197   1.359 -2.6229 -0.4436 -0.3912
 9709TIP3   OH229090   0.921   0.680   1.229  0.6478 -0.0117  0.4632
 9709TIP3    H129091   0.909   0.741   1.303 -0.0334 -1.5879  1.7080
 9709TIP3    H229092   0.849   0.618   1.238  1.4696 -1.1523 -0.6274
 9710TIP3   OH229093   2.097   6.728   4.412 -0.0198  0.1084  0.2240
 9710TIP3    H129094   2.116   6.785   4.487 -1.0954 -0.6495  1.1025
 9710TIP3    H229095   2.160   6.657   4.420 -0.0919  0.0608  0.3836
 9711TIP3   OH229096   6.755   0.578   3.868  0.3563  0.1904 -0.1839
 9711TIP3    H129097   6.758   0.561   3.962  1.8240 -0.4220 -0.3273
 9711TIP3    H229098   6.686   0.520   3.835 -0.5673  0.8288  0.5756
 9712TIP3   OH229099   1.955   2.841   2.387 -0.3138  0.3002  0.5529
 9712TIP3    H129100   1.869   2.860   2.425 -0.1028  0.4263  0.9789
 9712TIP3    H229101   2.017   2.864   2.456  0.1237  1.2039 -0.1178
 9713TIP3   OH229102   6.416   6.102   1.385  0.2180  0.0164 -0.5604
 9713TIP3    H129103   6.494   6.124   1.436 -1.3734  2.1365  1.0908
 9713TIP3    H229104   6.399   6.010   1.408  1.9751 -0.3754 -0.6624
 9714TIP3   OH229105   6.840   4.394   3.379 -0.1393 -0.0467 -0.4471
 9714TIP3    H129106   6.935   4.392   3.369 -0.1764 -1.4991 -0.6288
 9714TIP3    H229107   6.821   4.327   3.445 -0.9907  0.6970  0.0879
 9715TIP3   OH229108   2.598   4.995   4.630  0.0636  0.3252  0.2196
 9715TIP3    H129109   2.692   5.010   4.618  0.0045  0.6507  0.1488
 9715TIP3    H229110   2.566   4.976   4.542  0.1361 -0.2093  0.3081
 9716TIP3   OH229111   0.758   1.416   2.829 -0.0439 -0.3792 -0.0322
 9716TIP3    H129112   0.853   1.427   2.825 -0.0089 -0.9121 -0.7919
 9716TIP3    H229113   0.745   1.338   2.883 -0.0300 -0.5317 -0.2467
 9717TIP3   OH229114   0.662   1.021   4.032  0.0657  0.1251 -0.1061
 9717TIP3    H129115   0.570   0.993   4.033  0.2294 -0.4148 -0.0230
 9717TIP3    H229116   0.664   1.098   4.089 -0.1674 -0.3845  0.5905
 9718TIP3   OH229117   6.704   1.293   4.760  0.0823 -0.3488  0.4674
 9718TIP3    H129118   6.648   1.215   4.754  0.8489 -0.8421 -0.7991
 9718TIP3    H229119   6.793   1.258   4.761  0.4671  0.5366 -0.9276
 9719TIP3   OH229120   6.091   6.429   1.835 -0.8682 -0.8738 -0.0398
 9719TIP3    H129121   6.139   6.356   1.874 -1.4497 -1.5180 -0.4978
 9719TIP3    H229122   6.084   6.405   1.742 -0.9718 -0.1784 -0.2142
 9720TIP3   OH229123   4.415   0.417   3.833  0.0391  0.4857  0.1241
 9720TIP3    H129124   4.475   0.382   3.898  0.5000  0.2054 -0.4476
 9720TIP3    H229125   4.332   0.427   3.880  0.0175 -0.9315  0.4221
 9721TIP3   OH229126  -0.014   4.609   5.832 -0.2329 -0.1696 -0.0241
 9721TIP3    H129127  -0.011   4.606   5.927  2.2352  0.1653 -0.0448
 9721TIP3    H229128   0.035   4.532   5.804  1.3871  1.1643 -0.9757
 9722TIP3   OH229129   0.981   2.452   2.430  0.4281  0.2821  0.2283
 9722TIP3    H129130   0.996   2.537   2.389  1.9722 -0.0066  0.1242
 9722TIP3    H229131   0.889   2.433   2.412 -0.2191  2.3199  1.0512
 9723TIP3   OH229132   3.637   0.763   3.897 -0.5280 -0.1696 -0.0430
 9723TIP3    H129133   3.648   0.857   3.908  0.0409 -0.5445  3.7695
 9723TIP3    H229134   3.556   0.742   3.944 -2.8336 -1.2555 -3.9892
 9724TIP3   OH229135   3.055   2.585   5.136 -0.3865 -0.6516  0.0511
 9724TIP3    H129136   2.963   2.560   5.143 -0.5282 -0.4621 -1.0023
 9724TIP3    H229137   3.068   2.607   5.043  0.1400  1.5988  0.5926
 9725TIP3   OH229138   5.334   5.426   0.270  0.0348  0.3405  0.1734
 9725TIP3    H129139   5.379   5.502   0.234  1.0531 -0.4928 -0.3639
 9725TIP3    H229140   5.287   5.388   0.196 -0.4004  0.3897  0.4206
 9726TIP3   OH229141   0.838   5.588   0.537  0.0789 -0.1067 -0.5993
 9726TIP3    H129142   0.786   5.597   0.616 -1.1794 -0.2591 -1.3695
 9726TIP3    H229143   0.785   5.533   0.480  0.6249  0.5745 -1.8146
 9727TIP3   OH229144   6.441   5.850   4.734 -0.1886 -0.0448  0.4816
 9727TIP3    H129145   6.532   5.857   4.708 -0.5804  0.4516 -0.8756
 9727TIP3    H229146   6.443   5.835   4.828  1.2917 -0.4972  0.3949
 9728TIP3   OH229147   4.780   2.746   3.443  0.3605 -0.3000 -0.7543
 9728TIP3    H129148   4.862   2.735   3.395  0.0932 -0.8247 -1.0914
 9728TIP3    H229149   4.720   2.784   3.379  0.2463 -0.2143 -0.5975
 9729TIP3   OH229150   3.808   4.321   3.102 -0.0556 -0.0568 -0.8014
 9729TIP3    H129151   3.734   4.317   3.163  0.5337 -0.9713 -0.1130
 9729TIP3    H229152   3.885   4.320   3.159  0.5232  2.6418 -1.4057
 9730TIP3   OH229153   6.480   4.816   5.824  0.4117  0.3107 -0.4529
 9730TIP3    H129154   6.553   4.841   5.767  1.7963  2.1559  1.8968
 9730TIP3    H229155   6.477   4.721   5.820  1.3094  0.3180 -2.5060
 9731TIP3   OH229156   0.123   4.136   5.595 -0.0818 -0.0104  0.0755
 9731TIP3    H129157   0.133   4.042   5.583  2.8221  0.2514 -0.3142
 9731TIP3    H229158   0.148   4.174   5.511 -2.7381  1.1503 -0.3075
 9732TIP3   OH229159   5.075   5.050   5.470 -0.1214  0.3179 -0.2839
 9732TIP3    H129160   5.037   5.016   5.551  4.2601 -3.1407  0.7361
 9732TIP3    H229161   5.060   4.981   5.406  0.0979  1.1064 -1.2105
 9733TIP3   OH229162   2.941   5.475   4.047  0.1084 -0.0286  0.0663
 9733TIP3    H129163   2.907   5.555   4.006  1.1593 -0.1046 -0.9960
 9733TIP3    H229164   3.025   5.501   4.085 -0.5000 -0.1448  1.5667
 9734TIP3   OH229165   1.035   6.355   0.919  0.2143  0.6382  0.7428
 9734TIP3    H129166   1.105   6.408   0.879  0.5148  0.2117  0.6990
 9734TIP3    H229167   0.955   6.405   0.901  0.4161  0.7574  0.1353
 9735TIP3   OH229168   0.858   1.402   5.158  0.2625 -0.1594  0.0960
 9735TIP3    H129169   0.800   1.358   5.220  2.4683 -1.4285  1.3767
 9735TIP3    H229170   0.845   1.356   5.075  1.1346 -2.0252  0.9601
 9736TIP3   OH229171   6.530   4.984   0.875 -0.3584 -0.0895  0.0666
 9736TIP3    H129172   6.588   4.929   0.927  0.5970  0.9487  0.1383
 9736TIP3    H229173   6.579   5.002   0.795 -0.7400  0.4681 -0.0499
 9737TIP3   OH229174   4.145   2.085   1.219  0.3009  0.6335 -0.0235
 9737TIP3    H129175   4.148   2.175   1.251  1.3349  0.1541  1.3517
 9737TIP3    H229176   4.056   2.074   1.186 -0.1183  1.8797  0.6207
 9738TIP3   OH229177   1.183   4.588   0.443 -0.0711  0.1658  0.1119
 9738TIP3    H129178   1.173   4.664   0.501 -0.2111 -1.0444  1.7622
 9738TIP3    H229179   1.136   4.613   0.363  1.8813  2.7081 -0.3742
 9739TIP3   OH229180   1.967   0.255   4.263  0.1446  0.2132 -0.1371
 9739TIP3    H129181   1.951   0.160   4.263 -0.1460  0.2595  0.3905
 9739TIP3    H229182   1.915   0.288   4.190  1.0179 -0.1497 -0.9562
 9740TIP3   OH229183   6.953   2.224   3.902  0.6161  0.5190 -0.4939
 9740TIP3    H129184   7.040   2.245   3.936 -0.0284  1.3739  0.7277
 9740TIP3    H229185   6.919   2.307   3.870  0.0746  0.2842 -0.5430
 9741TIP3   OH229186   0.743   5.556   3.453  0.6700  0.5896 -0.1583
 9741TIP3    H129187   0.715   5.520   3.537  1.1797 -0.1383 -0.2870
 9741TIP3    H229188   0.691   5.635   3.442  0.5766  0.6786  0.8275
 9742TIP3   OH229189   5.905   2.730   3.731 -0.1091 -0.3245 -0.0011
 9742TIP3    H129190   5.940   2.817   3.712  0.6037 -0.5523  0.2236
 9742TIP3    H229191   5.952   2.672   3.671 -0.0157 -0.6486  0.3799
 9743TIP3   OH229192   3.558   2.294   4.867  0.2437  0.0520  0.2344
 9743TIP3    H129193   3.630   2.251   4.913 -0.0046 -1.3115 -0.6025
 9743TIP3    H229194   3.530   2.364   4.926  2.1057  0.4823  0.6794
 9744TIP3   OH229195   2.082   1.246   0.894  0.2970 -0.8753 -0.3780
 9744TIP3    H129196   2.172   1.268   0.916  0.3581 -1.8606  0.4453
 9744TIP3    H229197   2.029   1.293   0.957  0.2034 -0.0724 -1.0377
 9745TIP3   OH229198   7.002   3.933   1.625 -0.0697  0.1088  0.2219
 9745TIP3    H129199   7.039   3.873   1.690  0.0775 -0.3439 -0.2768
 9745TIP3    H229200   6.955   3.877   1.564  0.1841  0.4799 -0.3302
 9746TIP3   OH229201   3.333   3.234   4.899  0.0008 -0.0018 -0.4110
 9746TIP3    H129202   3.406   3.266   4.846 -0.2182 -0.5057 -1.0333
 9746TIP3    H229203   3.364   3.241   4.989  1.5949 -2.0140 -0.7286
 9747TIP3   OH229204   5.956   6.796   2.583  0.4881  0.2846 -0.0916
 9747TIP3    H129205   6.047   6.768   2.590  0.3044 -0.9399 -2.0872
 9747TIP3    H229206   5.906   6.727   2.626  0.4896  1.2023  1.4560
 9748TIP3   OH229207   1.804   6.393   0.370 -0.3339  0.1656  0.0951
 9748TIP3    H129208   1.720   6.416   0.330 -0.9641  0.1085  1.3591
 9748TIP3    H229209   1.786   6.315   0.422  0.8641 -0.7620 -0.8168
 9749TIP3   OH229210   5.098   2.280   2.714  0.0039  0.3054  0.3769
 9749TIP3    H129211   5.176   2.225   2.719 -0.8172 -0.8728  0.7575
 9749TIP3    H229212   5.123   2.362   2.757  0.7040 -0.4670  1.4964
   7.21742   6.80466   5.89300   0.00000   0.00000  -2.40581   0.00000  -2.40581  -3.40232
