Title t= 482.00000 step= 241000
46055
    1GLY      N    1   2.560   3.273   0.702
    1GLY    HT1    2   2.481   3.214   0.668
    1GLY    HT2    3   2.609   3.223   0.778
    1GLY    HT3    4   2.626   3.271   0.621
    1GLY     CA    5   2.520   3.413   0.748
    1GLY    HA1    6   2.445   3.394   0.824
    1GLY    HA2    7   2.494   3.471   0.661
    1GLY      C    8   2.636   3.488   0.809
    1GLY      O    9   2.747   3.437   0.801
    2PRO      N   10   2.610   3.603   0.864
    2PRO     CD   11   2.478   3.670   0.848
    2PRO    HD1   12   2.405   3.645   0.928
    2PRO    HD2   13   2.450   3.668   0.741
    2PRO     CA   14   2.705   3.684   0.943
    2PRO     HA   15   2.790   3.704   0.880
    2PRO     CB   16   2.623   3.806   0.989
    2PRO    HB1   17   2.691   3.893   0.982
    2PRO    HB2   18   2.578   3.799   1.090
    2PRO     CG   19   2.511   3.818   0.881
    2PRO    HG1   20   2.425   3.874   0.924
    2PRO    HG2   21   2.552   3.866   0.790
    2PRO      C   22   2.764   3.609   1.063
    2PRO      O   23   2.700   3.529   1.125
    3GLY      N   24   2.887   3.645   1.097
    3GLY     HN   25   2.942   3.702   1.037
    3GLY     CA   26   2.951   3.603   1.216
    3GLY    HA1   27   3.058   3.612   1.206
    3GLY    HA2   28   2.925   3.499   1.230
    3GLY      C   29   2.912   3.687   1.336
    3GLY      O   30   2.857   3.795   1.324
    4ALA      N   31   2.941   3.636   1.456
    4ALA     HN   32   2.999   3.556   1.450
    4ALA     CA   33   2.928   3.716   1.582
    4ALA     HA   34   2.933   3.821   1.557
    4ALA     CB   35   2.800   3.685   1.657
    4ALA    HB1   36   2.795   3.577   1.683
    4ALA    HB2   37   2.716   3.717   1.592
    4ALA    HB3   38   2.784   3.741   1.751
    4ALA      C   39   3.040   3.680   1.675
    4ALA      O   40   3.110   3.577   1.667
    5PRO      N   41   3.071   3.771   1.767
    5PRO     CD   42   3.029   3.910   1.780
    5PRO    HD1   43   2.918   3.917   1.779
    5PRO    HD2   44   3.072   3.974   1.700
    5PRO     CA   45   3.156   3.730   1.877
    5PRO     HA   46   3.246   3.678   1.850
    5PRO     CB   47   3.199   3.857   1.944
    5PRO    HB1   48   3.281   3.913   1.894
    5PRO    HB2   49   3.222   3.856   2.052
    5PRO     CG   50   3.073   3.946   1.930
    5PRO    HG1   51   3.000   3.918   2.009
    5PRO    HG2   52   3.095   4.054   1.938
    5PRO      C   53   3.093   3.637   1.975
    5PRO      O   54   2.975   3.621   1.998
    6GLY      N   55   3.175   3.569   2.055
    6GLY     HN   56   3.271   3.577   2.028
    6GLY     CA   57   3.159   3.488   2.173
    6GLY    HA1   58   3.260   3.475   2.208
    6GLY    HA2   59   3.128   3.391   2.137
    6GLY      C   60   3.074   3.547   2.290
    6GLY      O   61   3.065   3.669   2.306
    7PRO      N   62   3.014   3.463   2.376
    7PRO     CD   63   3.030   3.319   2.384
    7PRO    HD1   64   3.135   3.288   2.404
    7PRO    HD2   65   2.986   3.274   2.292
    7PRO     CA   66   2.918   3.519   2.477
    7PRO     HA   67   2.863   3.602   2.433
    7PRO     CB   68   2.843   3.394   2.520
    7PRO    HB1   69   2.766   3.364   2.447
    7PRO    HB2   70   2.803   3.391   2.624
    7PRO     CG   71   2.946   3.281   2.504
    7PRO    HG1   72   3.008   3.282   2.596
    7PRO    HG2   73   2.913   3.175   2.497
    7PRO      C   74   2.970   3.586   2.598
    7PRO      O   75   3.085   3.565   2.639
    8GLY      N   76   2.896   3.678   2.650
    8GLY     HN   77   2.808   3.703   2.611
    8GLY     CA   78   2.951   3.752   2.771
    8GLY    HA1   79   2.896   3.843   2.785
    8GLY    HA2   80   3.055   3.770   2.747
    8GLY      C   81   2.943   3.671   2.899
    8GLY      O   82   2.892   3.560   2.902
    9ALA      N   83   2.994   3.733   3.010
    9ALA     HN   84   3.034   3.823   2.996
    9ALA     CA   85   2.994   3.675   3.142
    9ALA     HA   86   3.057   3.587   3.141
    9ALA     CB   87   3.070   3.771   3.240
    9ALA    HB1   88   3.173   3.775   3.197
    9ALA    HB2   89   3.090   3.729   3.341
    9ALA    HB3   90   3.013   3.866   3.239
    9ALA      C   91   2.863   3.631   3.201
    9ALA      O   92   2.763   3.695   3.178
   10PRO      N   93   2.855   3.518   3.272
   10PRO     CD   94   2.962   3.412   3.287
   10PRO    HD1   95   3.061   3.462   3.285
   10PRO    HD2   96   2.944   3.336   3.208
   10PRO     CA   97   2.741   3.481   3.362
   10PRO     HA   98   2.659   3.455   3.297
   10PRO     CB   99   2.791   3.368   3.450
   10PRO    HB1  100   2.746   3.274   3.412
   10PRO    HB2  101   2.765   3.383   3.557
   10PRO     CG  102   2.942   3.363   3.428
   10PRO    HG1  103   2.995   3.432   3.498
   10PRO    HG2  104   2.978   3.259   3.439
   10PRO      C  105   2.681   3.600   3.439
   10PRO      O  106   2.761   3.679   3.491
   11GLY      N  107   2.542   3.595   3.457
   11GLY     HN  108   2.486   3.525   3.412
   11GLY     CA  109   2.468   3.681   3.550
   11GLY    HA1  110   2.363   3.672   3.526
   11GLY    HA2  111   2.502   3.782   3.532
   11GLY      C  112   2.498   3.646   3.693
   11GLY      O  113   2.569   3.551   3.719
   12PRO      N  114   2.450   3.729   3.789
   12PRO     CD  115   2.349   3.823   3.762
   12PRO    HD1  116   2.257   3.769   3.732
   12PRO    HD2  117   2.373   3.888   3.676
   12PRO     CA  118   2.473   3.711   3.929
   12PRO     HA  119   2.578   3.738   3.938
   12PRO     CB  120   2.368   3.801   4.000
   12PRO    HB1  121   2.417   3.844   4.090
   12PRO    HB2  122   2.282   3.735   4.022
   12PRO     CG  123   2.332   3.907   3.887
   12PRO    HG1  124   2.227   3.934   3.911
   12PRO    HG2  125   2.402   3.992   3.903
   12PRO      C  126   2.481   3.573   3.991
   12PRO      O  127   2.392   3.488   3.979
   13GLY      N  128   2.587   3.534   4.062
   13GLY     HN  129   2.671   3.587   4.047
   13GLY     CA  130   2.593   3.415   4.151
   13GLY    HA1  131   2.697   3.412   4.179
   13GLY    HA2  132   2.565   3.329   4.093
   13GLY      C  133   2.498   3.413   4.272
   13GLY      O  134   2.415   3.505   4.286
   14ALA      N  135   2.494   3.303   4.356
   14ALA     HN  136   2.541   3.216   4.344
   14ALA     CA  137   2.428   3.296   4.481
   14ALA     HA  138   2.322   3.293   4.459
   14ALA     CB  139   2.456   3.156   4.537
   14ALA    HB1  140   2.402   3.144   4.633
   14ALA    HB2  141   2.558   3.144   4.580
   14ALA    HB3  142   2.438   3.073   4.466
   14ALA      C  143   2.459   3.418   4.581
   14ALA      O  144   2.576   3.469   4.576
   15PRO      N  145   2.373   3.475   4.660
   15PRO     CD  146   2.233   3.442   4.660
   15PRO    HD1  147   2.229   3.347   4.717
   15PRO    HD2  148   2.200   3.426   4.555
   15PRO     CA  149   2.409   3.577   4.761
   15PRO     HA  150   2.458   3.657   4.708
   15PRO     CB  151   2.275   3.621   4.813
   15PRO    HB1  152   2.277   3.730   4.795
   15PRO    HB2  153   2.270   3.604   4.923
   15PRO     CG  154   2.171   3.556   4.728
   15PRO    HG1  155   2.073   3.544   4.777
   15PRO    HG2  156   2.162   3.634   4.650
   15PRO      C  157   2.506   3.539   4.868
   15PRO    OT1  158   2.485   3.442   4.948
   15PRO    OT2  159   2.603   3.614   4.898
   16LIT    LIT  160   5.521   4.716   2.652
   17LIT    LIT  161   3.351   5.520   3.469
   18LIT    LIT  162   2.891   3.244   1.920
   19LIT    LIT  163   5.745   5.672   2.950
   20LIT    LIT  164   2.993   4.835   1.917
   21LIT    LIT  165   1.895   5.198   0.956
   22LIT    LIT  166   2.004   2.617   5.615
   23LIT    LIT  167   7.413   4.780   3.794
   24LIT    LIT  168   2.075   4.837   3.129
   25LIT    LIT  169   4.511   0.314   6.190
   26LIT    LIT  170   7.747   3.405   5.537
   27LIT    LIT  171   1.826   4.766   3.532
   28LIT    LIT  172   0.889   6.786   3.881
   29LIT    LIT  173   5.487   3.145   0.120
   30LIT    LIT  174   4.402   5.873   4.616
   31LIT    LIT  175   1.328   2.255   4.496
   32LIT    LIT  176   0.412   5.031   6.732
   33LIT    LIT  177   4.055   6.372   3.025
   34LIT    LIT  178   7.601   6.887   0.321
   35LIT    LIT  179   8.147   0.088   3.332
   36LIT    LIT  180   8.097   0.305   1.559
   37LIT    LIT  181   4.235   5.306   0.944
   38LIT    LIT  182   1.196   2.818   0.786
   39LIT    LIT  183   2.959   2.118   2.943
   40LIT    LIT  184   0.398   6.329   4.014
   41LIT    LIT  185   2.175   1.202   6.092
   42LIT    LIT  186   7.027   4.232   1.352
   43LIT    LIT  187   4.299   1.710   0.066
   44LIT    LIT  188   4.040   7.936   2.771
   45LIT    LIT  189   0.822   7.636   0.889
   46LIT    LIT  190   1.413   3.747   4.823
   47LIT    LIT  191   1.256   0.499   0.961
   48LIT    LIT  192   1.639   7.328   1.797
   49LIT    LIT  193   7.642   1.394   5.294
   50LIT    LIT  194   5.929   3.239   1.452
   51LIT    LIT  195   5.806  -0.001   1.885
   52LIT    LIT  196   2.584   7.260   5.397
   53LIT    LIT  197   1.207   4.349   0.188
   54LIT    LIT  198   5.508   1.808   5.528
   55LIT    LIT  199   1.354   2.849   4.449
   56LIT    LIT  200   7.852   5.032   4.753
   57LIT    LIT  201   5.171   5.926   0.396
   58LIT    LIT  202   2.577   3.575   5.081
   59CLA    CLA  203   6.550   0.282   2.984
   60CLA    CLA  204   4.271   6.035   4.524
   61CLA    CLA  205   7.222   7.580   0.220
   62CLA    CLA  206   4.726   0.415   2.520
   63CLA    CLA  207   1.897   6.567   3.200
   64CLA    CLA  208   3.269   6.149   4.234
   65CLA    CLA  209   2.760   1.358   6.794
   66CLA    CLA  210   5.438   1.733   6.336
   67CLA    CLA  211   1.755   4.956   2.702
   68CLA    CLA  212   7.504   5.218   3.780
   69CLA    CLA  213   6.310   5.636   2.885
   70CLA    CLA  214   3.853   0.769   0.482
   71CLA    CLA  215   2.543   0.846   2.308
   72CLA    CLA  216   7.869   4.921   4.560
   73CLA    CLA  217   7.020   2.496   0.406
   74CLA    CLA  218   0.090   0.244   1.803
   75CLA    CLA  219   3.913   7.861   6.767
   76CLA    CLA  220   0.990   3.828   1.480
   77CLA    CLA  221   3.496   1.128   6.777
   78CLA    CLA  222   8.001   2.099   3.791
   79CLA    CLA  223   6.140   3.527   3.192
   80CLA    CLA  224   4.961   3.903   6.218
   81CLA    CLA  225   1.730   0.689   1.655
   82CLA    CLA  226   2.714   5.143   0.441
   83CLA    CLA  227   7.600   6.411   4.514
   84CLA    CLA  228   0.786   7.327   2.531
   85CLA    CLA  229   8.299   5.884   0.244
   86CLA    CLA  230   8.312   2.796   4.781
   87CLA    CLA  231   1.175   4.774   0.489
   88CLA    CLA  232   7.983   4.283   3.359
   89CLA    CLA  233   5.183   7.677   6.693
   90CLA    CLA  234   2.263   2.884   5.895
   91CLA    CLA  235   5.719   6.312   0.883
   92CLA    CLA  236   5.862   5.367   0.805
   93CLA    CLA  237   2.677   0.944   5.519
   94CLA    CLA  238   8.261   0.278   3.395
   95CLA    CLA  239   2.708   2.501   0.636
   96CLA    CLA  240   6.441   0.967   4.275
   97CLA    CLA  241   3.797   2.709   3.272
   98CLA    CLA  242   6.987   2.099   5.959
   99CLA    CLA  243   0.703   4.289   3.144
  100CLA    CLA  244   4.840   1.310   3.932
  101CLA    CLA  245   7.324   0.882   3.162
  102TIP3   OH2  246   6.276   4.630   0.927
  102TIP3    H1  247   6.205   4.666   0.981
  102TIP3    H2  248   6.322   4.707   0.893
  103TIP3   OH2  249   1.430   3.916   2.465
  103TIP3    H1  250   1.350   3.865   2.468
  103TIP3    H2  251   1.401   4.007   2.475
  104TIP3   OH2  252   7.452   6.770   4.783
  104TIP3    H1  253   7.463   6.846   4.840
  104TIP3    H2  254   7.505   6.790   4.705
  105TIP3   OH2  255   1.693   2.333   4.173
  105TIP3    H1  256   1.624   2.297   4.116
  105TIP3    H2  257   1.771   2.282   4.152
  106TIP3   OH2  258   4.881   3.679   1.183
  106TIP3    H1  259   4.952   3.741   1.165
  106TIP3    H2  260   4.826   3.681   1.105
  107TIP3   OH2  261   6.887   4.978   6.801
  107TIP3    H1  262   6.916   4.923   6.728
  107TIP3    H2  263   6.842   4.918   6.860
  108TIP3   OH2  264   4.410   6.002   0.375
  108TIP3    H1  265   4.402   5.911   0.403
  108TIP3    H2  266   4.334   6.017   0.319
  109TIP3   OH2  267   7.840   6.764   4.830
  109TIP3    H1  268   7.857   6.784   4.738
  109TIP3    H2  269   7.764   6.818   4.853
  110TIP3   OH2  270   4.423   2.604   1.999
  110TIP3    H1  271   4.350   2.543   1.989
  110TIP3    H2  272   4.441   2.635   1.910
  111TIP3   OH2  273   4.335   5.227   0.778
  111TIP3    H1  274   4.335   5.266   0.690
  111TIP3    H2  275   4.347   5.134   0.763
  112TIP3   OH2  276   4.897   2.024   1.896
  112TIP3    H1  277   4.820   2.081   1.894
  112TIP3    H2  278   4.882   1.962   1.825
  113TIP3   OH2  279   0.878   5.840   0.450
  113TIP3    H1  280   0.928   5.758   0.447
  113TIP3    H2  281   0.791   5.817   0.417
  114TIP3   OH2  282   1.080   2.826   3.166
  114TIP3    H1  283   1.046   2.742   3.198
  114TIP3    H2  284   1.010   2.863   3.113
  115TIP3   OH2  285   3.381   6.869   0.058
  115TIP3    H1  286   3.455   6.927   0.074
  115TIP3    H2  287   3.420   6.785   0.033
  116TIP3   OH2  288   1.511   1.520   6.565
  116TIP3    H1  289   1.496   1.427   6.549
  116TIP3    H2  290   1.512   1.559   6.477
  117TIP3   OH2  291   0.254   0.435   1.985
  117TIP3    H1  292   0.214   0.359   1.943
  117TIP3    H2  293   0.199   0.452   2.061
  118TIP3   OH2  294   3.906   3.180   2.079
  118TIP3    H1  295   3.995   3.196   2.110
  118TIP3    H2  296   3.858   3.149   2.156
  119TIP3   OH2  297   0.207   1.453   4.350
  119TIP3    H1  298   0.257   1.527   4.385
  119TIP3    H2  299   0.194   1.474   4.257
  120TIP3   OH2  300  -0.005   1.326   4.497
  120TIP3    H1  301   0.066   1.378   4.458
  120TIP3    H2  302  -0.026   1.371   4.579
  121TIP3   OH2  303   4.757   1.047   2.256
  121TIP3    H1  304   4.780   1.139   2.272
  121TIP3    H2  305   4.836   0.999   2.280
  122TIP3   OH2  306   7.200   0.443   2.166
  122TIP3    H1  307   7.205   0.497   2.245
  122TIP3    H2  308   7.233   0.500   2.097
  123TIP3   OH2  309   0.822   2.068   6.005
  123TIP3    H1  310   0.832   2.008   6.080
  123TIP3    H2  311   0.889   2.038   5.943
  124TIP3   OH2  312   4.791   4.547   2.249
  124TIP3    H1  313   4.725   4.494   2.292
  124TIP3    H2  314   4.779   4.635   2.287
  125TIP3   OH2  315   4.098   5.946   6.404
  125TIP3    H1  316   4.012   5.987   6.410
  125TIP3    H2  317   4.125   5.959   6.314
  126TIP3   OH2  318   4.015   7.084   6.787
  126TIP3    H1  319   4.105   7.053   6.792
  126TIP3    H2  320   4.021   7.173   6.754
  127TIP3   OH2  321   6.362   6.918   4.817
  127TIP3    H1  322   6.356   6.823   4.827
  127TIP3    H2  323   6.289   6.952   4.870
  128TIP3   OH2  324   8.069   2.362   1.373
  128TIP3    H1  325   8.072   2.389   1.465
  128TIP3    H2  326   8.004   2.420   1.334
  129TIP3   OH2  327   0.730   1.353   1.074
  129TIP3    H1  328   0.697   1.282   1.130
  129TIP3    H2  329   0.817   1.372   1.109
  130TIP3   OH2  330   7.253   6.434   1.453
  130TIP3    H1  331   7.279   6.450   1.363
  130TIP3    H2  332   7.158   6.419   1.448
  131TIP3   OH2  333   0.479   2.338   4.833
  131TIP3    H1  334   0.501   2.392   4.758
  131TIP3    H2  335   0.563   2.304   4.863
  132TIP3   OH2  336   6.936   6.704   4.835
  132TIP3    H1  337   6.905   6.757   4.908
  132TIP3    H2  338   6.972   6.625   4.875
  133TIP3   OH2  339   5.513   1.068   3.107
  133TIP3    H1  340   5.578   1.137   3.120
  133TIP3    H2  341   5.559   0.986   3.126
  134TIP3   OH2  342   2.748   2.384   5.558
  134TIP3    H1  343   2.702   2.317   5.609
  134TIP3    H2  344   2.761   2.456   5.620
  135TIP3   OH2  345   0.290   6.526   5.082
  135TIP3    H1  346   0.385   6.521   5.094
  135TIP3    H2  347   0.266   6.441   5.043
  136TIP3   OH2  348   2.610   7.727   1.973
  136TIP3    H1  349   2.521   7.714   1.943
  136TIP3    H2  350   2.608   7.809   2.023
  137TIP3   OH2  351   8.083   1.874   3.388
  137TIP3    H1  352   8.139   1.800   3.364
  137TIP3    H2  353   8.099   1.940   3.321
  138TIP3   OH2  354   4.079   0.264   0.219
  138TIP3    H1  355   4.076   0.273   0.314
  138TIP3    H2  356   3.988   0.248   0.193
  139TIP3   OH2  357   2.463   5.634   1.361
  139TIP3    H1  358   2.456   5.664   1.452
  139TIP3    H2  359   2.518   5.699   1.318
  140TIP3   OH2  360   5.462   1.011   5.709
  140TIP3    H1  361   5.553   1.040   5.713
  140TIP3    H2  362   5.421   1.048   5.787
  141TIP3   OH2  363   5.885   4.968   2.086
  141TIP3    H1  364   5.977   4.989   2.066
  141TIP3    H2  365   5.842   5.053   2.093
  142TIP3   OH2  366   3.538   2.022   4.971
  142TIP3    H1  367   3.509   2.095   4.917
  142TIP3    H2  368   3.594   2.062   5.037
  143TIP3   OH2  369   6.852   7.263   0.878
  143TIP3    H1  370   6.882   7.321   0.808
  143TIP3    H2  371   6.825   7.322   0.948
  144TIP3   OH2  372   6.853   5.097   2.729
  144TIP3    H1  373   6.806   5.178   2.710
  144TIP3    H2  374   6.826   5.074   2.818
  145TIP3   OH2  375   8.363   7.578   4.017
  145TIP3    H1  376   8.322   7.575   3.931
  145TIP3    H2  377   8.366   7.672   4.038
  146TIP3   OH2  378   7.330   6.123   2.955
  146TIP3    H1  379   7.316   6.095   3.045
  146TIP3    H2  380   7.416   6.089   2.932
  147TIP3   OH2  381   0.399   7.157   6.690
  147TIP3    H1  382   0.318   7.157   6.739
  147TIP3    H2  383   0.466   7.185   6.753
  148TIP3   OH2  384   0.046   4.639   3.436
  148TIP3    H1  385   0.010   4.556   3.468
  148TIP3    H2  386   0.139   4.635   3.460
  149TIP3   OH2  387   6.104   2.080   4.425
  149TIP3    H1  388   6.193   2.067   4.460
  149TIP3    H2  389   6.059   1.997   4.443
  150TIP3   OH2  390   3.577   4.190   4.517
  150TIP3    H1  391   3.564   4.285   4.519
  150TIP3    H2  392   3.632   4.172   4.593
  151TIP3   OH2  393   0.113   2.835   1.613
  151TIP3    H1  394   0.164   2.910   1.645
  151TIP3    H2  395   0.031   2.839   1.663
  152TIP3   OH2  396   0.483   4.146   1.234
  152TIP3    H1  397   0.489   4.082   1.304
  152TIP3    H2  398   0.390   4.151   1.213
  153TIP3   OH2  399   6.079   3.925   3.023
  153TIP3    H1  400   6.061   3.852   2.964
  153TIP3    H2  401   5.998   3.936   3.073
  154TIP3   OH2  402   5.271   2.469   3.425
  154TIP3    H1  403   5.279   2.533   3.496
  154TIP3    H2  404   5.179   2.442   3.427
  155TIP3   OH2  405   3.161   0.529   3.010
  155TIP3    H1  406   3.100   0.576   2.953
  155TIP3    H2  407   3.105   0.479   3.069
  156TIP3   OH2  408   1.451   2.929   3.530
  156TIP3    H1  409   1.450   3.022   3.507
  156TIP3    H2  410   1.369   2.916   3.578
  157TIP3   OH2  411   4.779   5.924   0.603
  157TIP3    H1  412   4.793   5.974   0.522
  157TIP3    H2  413   4.690   5.945   0.629
  158TIP3   OH2  414   0.464   2.010   3.639
  158TIP3    H1  415   0.518   2.046   3.569
  158TIP3    H2  416   0.506   2.040   3.720
  159TIP3   OH2  417   5.171   6.271   4.696
  159TIP3    H1  418   5.207   6.184   4.714
  159TIP3    H2  419   5.226   6.331   4.745
  160TIP3   OH2  420   2.554   7.802   6.128
  160TIP3    H1  421   2.634   7.761   6.096
  160TIP3    H2  422   2.572   7.896   6.124
  161TIP3   OH2  423   6.198   6.046   6.682
  161TIP3    H1  424   6.230   6.125   6.638
  161TIP3    H2  425   6.204   6.067   6.776
  162TIP3   OH2  426   5.806   6.992   4.392
  162TIP3    H1  427   5.868   7.052   4.350
  162TIP3    H2  428   5.721   7.032   4.375
  163TIP3   OH2  429   1.585   0.463   6.423
  163TIP3    H1  430   1.539   0.465   6.507
  163TIP3    H2  431   1.527   0.414   6.365
  164TIP3   OH2  432   6.159   1.316   5.195
  164TIP3    H1  433   6.165   1.233   5.147
  164TIP3    H2  434   6.096   1.298   5.265
  165TIP3   OH2  435   8.224   3.036   3.659
  165TIP3    H1  436   8.291   3.086   3.612
  165TIP3    H2  437   8.142   3.062   3.618
  166TIP3   OH2  438   6.790   6.160   4.390
  166TIP3    H1  439   6.807   6.208   4.471
  166TIP3    H2  440   6.784   6.227   4.323
  167TIP3   OH2  441   6.431   4.292   2.128
  167TIP3    H1  442   6.412   4.201   2.107
  167TIP3    H2  443   6.346   4.335   2.126
  168TIP3   OH2  444   6.824   7.269   5.171
  168TIP3    H1  445   6.830   7.327   5.247
  168TIP3    H2  446   6.915   7.248   5.149
  169TIP3   OH2  447   8.060   7.888   4.599
  169TIP3    H1  448   8.023   7.976   4.587
  169TIP3    H2  449   8.146   7.904   4.637
  170TIP3   OH2  450   3.584   7.205   2.070
  170TIP3    H1  451   3.588   7.248   2.156
  170TIP3    H2  452   3.539   7.269   2.014
  171TIP3   OH2  453   7.140   4.474   4.994
  171TIP3    H1  454   7.209   4.494   5.059
  171TIP3    H2  455   7.120   4.381   5.010
  172TIP3   OH2  456   3.007   6.478   5.910
  172TIP3    H1  457   2.916   6.507   5.916
  172TIP3    H2  458   3.002   6.382   5.914
  173TIP3   OH2  459   7.153   4.675   4.128
  173TIP3    H1  460   7.132   4.767   4.114
  173TIP3    H2  461   7.248   4.673   4.143
  174TIP3   OH2  462   0.145   2.850   5.697
  174TIP3    H1  463   0.056   2.833   5.727
  174TIP3    H2  464   0.196   2.775   5.729
  175TIP3   OH2  465   4.981   6.364   5.950
  175TIP3    H1  466   4.922   6.302   5.993
  175TIP3    H2  467   4.957   6.360   5.857
  176TIP3   OH2  468   5.293   4.396   0.674
  176TIP3    H1  469   5.350   4.319   0.678
  176TIP3    H2  470   5.206   4.362   0.697
  177TIP3   OH2  471   0.484   7.838   3.297
  177TIP3    H1  472   0.502   7.850   3.390
  177TIP3    H2  473   0.538   7.763   3.271
  178TIP3   OH2  474   2.794   7.708   6.050
  178TIP3    H1  475   2.807   7.722   5.956
  178TIP3    H2  476   2.853   7.636   6.072
  179TIP3   OH2  477   0.231   7.322   5.544
  179TIP3    H1  478   0.311   7.331   5.596
  179TIP3    H2  479   0.262   7.309   5.455
  180TIP3   OH2  480   1.529   6.537   4.947
  180TIP3    H1  481   1.546   6.625   4.913
  180TIP3    H2  482   1.450   6.548   5.000
  181TIP3   OH2  483   6.792   3.570   5.707
  181TIP3    H1  484   6.779   3.485   5.665
  181TIP3    H2  485   6.856   3.614   5.652
  182TIP3   OH2  486   0.497   1.877   3.959
  182TIP3    H1  487   0.557   1.803   3.963
  182TIP3    H2  488   0.540   1.947   4.008
  183TIP3   OH2  489   0.346   3.673   6.048
  183TIP3    H1  490   0.364   3.583   6.021
  183TIP3    H2  491   0.251   3.682   6.041
  184TIP3   OH2  492   0.243   1.152   0.690
  184TIP3    H1  493   0.257   1.225   0.629
  184TIP3    H2  494   0.318   1.095   0.675
  185TIP3   OH2  495   2.321   0.758   6.085
  185TIP3    H1  496   2.410   0.728   6.073
  185TIP3    H2  497   2.288   0.706   6.159
  186TIP3   OH2  498   0.966   2.475   2.961
  186TIP3    H1  499   0.937   2.520   2.881
  186TIP3    H2  500   0.955   2.382   2.942
  187TIP3   OH2  501   0.835   3.809   3.210
  187TIP3    H1  502   0.844   3.776   3.300
  187TIP3    H2  503   0.760   3.763   3.175
  188TIP3   OH2  504   7.164   0.725   5.990
  188TIP3    H1  505   7.252   0.698   5.963
  188TIP3    H2  506   7.135   0.656   6.049
  189TIP3   OH2  507   1.506   2.732   4.496
  189TIP3    H1  508   1.536   2.657   4.445
  189TIP3    H2  509   1.511   2.703   4.587
  190TIP3   OH2  510   5.467   0.904   2.705
  190TIP3    H1  511   5.471   1.000   2.700
  190TIP3    H2  512   5.522   0.874   2.633
  191TIP3   OH2  513   1.512   4.726   4.625
  191TIP3    H1  514   1.445   4.783   4.664
  191TIP3    H2  515   1.588   4.782   4.613
  192TIP3   OH2  516   3.940   5.027   6.565
  192TIP3    H1  517   4.026   5.069   6.565
  192TIP3    H2  518   3.959   4.934   6.574
  193TIP3   OH2  519   6.291   1.598   5.585
  193TIP3    H1  520   6.310   1.518   5.536
  193TIP3    H2  521   6.201   1.586   5.617
  194TIP3   OH2  522   0.424   1.248   2.951
  194TIP3    H1  523   0.369   1.251   2.872
  194TIP3    H2  524   0.513   1.240   2.918
  195TIP3   OH2  525   5.718   0.181   5.027
  195TIP3    H1  526   5.710   0.253   4.964
  195TIP3    H2  527   5.635   0.134   5.019
  196TIP3   OH2  528   1.986   4.608   5.512
  196TIP3    H1  529   2.010   4.677   5.574
  196TIP3    H2  530   2.026   4.529   5.548
  197TIP3   OH2  531   2.701   1.518   1.271
  197TIP3    H1  532   2.623   1.465   1.262
  197TIP3    H2  533   2.674   1.592   1.325
  198TIP3   OH2  534   5.102   3.358   1.484
  198TIP3    H1  535   5.016   3.356   1.441
  198TIP3    H2  536   5.090   3.413   1.561
  199TIP3   OH2  537   1.619   5.874   4.734
  199TIP3    H1  538   1.642   5.916   4.651
  199TIP3    H2  539   1.656   5.931   4.802
  200TIP3   OH2  540   1.921   6.038   3.501
  200TIP3    H1  541   1.927   5.981   3.578
  200TIP3    H2  542   1.827   6.039   3.479
  201TIP3   OH2  543   4.262   7.233   3.400
  201TIP3    H1  544   4.228   7.319   3.375
  201TIP3    H2  545   4.308   7.248   3.482
  202TIP3   OH2  546   6.504   6.215   5.071
  202TIP3    H1  547   6.484   6.139   5.017
  202TIP3    H2  548   6.531   6.178   5.155
  203TIP3   OH2  549   6.161   1.576   0.516
  203TIP3    H1  550   6.241   1.585   0.567
  203TIP3    H2  551   6.091   1.564   0.580
  204TIP3   OH2  552   6.988   1.673   2.933
  204TIP3    H1  553   6.915   1.720   2.893
  204TIP3    H2  554   6.956   1.647   3.019
  205TIP3   OH2  555   3.521   0.263   0.664
  205TIP3    H1  556   3.519   0.266   0.760
  205TIP3    H2  557   3.446   0.316   0.637
  206TIP3   OH2  558   1.198   3.007   2.883
  206TIP3    H1  559   1.281   3.048   2.861
  206TIP3    H2  560   1.142   3.079   2.914
  207TIP3   OH2  561   2.280   1.656   2.203
  207TIP3    H1  562   2.328   1.738   2.202
  207TIP3    H2  563   2.343   1.591   2.232
  208TIP3   OH2  564   3.199   4.686   6.746
  208TIP3    H1  565   3.176   4.598   6.719
  208TIP3    H2  566   3.139   4.743   6.699
  209TIP3   OH2  567   6.233   1.839   0.060
  209TIP3    H1  568   6.247   1.747   0.039
  209TIP3    H2  569   6.316   1.867   0.100
  210TIP3   OH2  570   0.479   7.636   6.389
  210TIP3    H1  571   0.466   7.541   6.397
  210TIP3    H2  572   0.571   7.646   6.365
  211TIP3   OH2  573   0.639   5.580   4.387
  211TIP3    H1  574   0.699   5.549   4.319
  211TIP3    H2  575   0.552   5.563   4.352
  212TIP3   OH2  576   2.477   7.174   1.963
  212TIP3    H1  577   2.524   7.091   1.962
  212TIP3    H2  578   2.465   7.194   2.056
  213TIP3   OH2  579   1.046   7.885   1.310
  213TIP3    H1  580   1.047   7.820   1.379
  213TIP3    H2  581   1.041   7.969   1.355
  214TIP3   OH2  582   5.326   7.573   4.319
  214TIP3    H1  583   5.349   7.665   4.331
  214TIP3    H2  584   5.397   7.525   4.361
  215TIP3   OH2  585   1.007   6.240   1.780
  215TIP3    H1  586   0.930   6.190   1.752
  215TIP3    H2  587   1.062   6.243   1.702
  216TIP3   OH2  588   5.214   5.190   3.219
  216TIP3    H1  589   5.163   5.154   3.291
  216TIP3    H2  590   5.197   5.132   3.145
  217TIP3   OH2  591   6.138   2.258   2.277
  217TIP3    H1  592   6.059   2.239   2.226
  217TIP3    H2  593   6.207   2.209   2.233
  218TIP3   OH2  594   3.895   4.969   6.005
  218TIP3    H1  595   3.810   4.951   6.043
  218TIP3    H2  596   3.904   4.904   5.935
  219TIP3   OH2  597   5.260   5.883   3.759
  219TIP3    H1  598   5.350   5.862   3.783
  219TIP3    H2  599   5.253   5.978   3.771
  220TIP3   OH2  600   4.512   1.289   4.467
  220TIP3    H1  601   4.462   1.212   4.442
  220TIP3    H2  602   4.574   1.257   4.533
  221TIP3   OH2  603   7.615   4.191   1.954
  221TIP3    H1  604   7.658   4.188   1.868
  221TIP3    H2  605   7.607   4.099   1.980
  222TIP3   OH2  606   5.649   2.130   3.279
  222TIP3    H1  607   5.557   2.157   3.281
  222TIP3    H2  608   5.647   2.039   3.250
  223TIP3   OH2  609   6.410   4.677   5.860
  223TIP3    H1  610   6.490   4.626   5.847
  223TIP3    H2  611   6.353   4.653   5.788
  224TIP3   OH2  612   8.147   3.487   1.770
  224TIP3    H1  613   8.062   3.444   1.783
  224TIP3    H2  614   8.153   3.499   1.675
  225TIP3   OH2  615   2.412   2.428   5.891
  225TIP3    H1  616   2.337   2.480   5.920
  225TIP3    H2  617   2.426   2.364   5.962
  226TIP3   OH2  618   2.293   1.830   2.829
  226TIP3    H1  619   2.209   1.803   2.793
  226TIP3    H2  620   2.353   1.759   2.807
  227TIP3   OH2  621   2.111   0.995   6.708
  227TIP3    H1  622   2.088   0.964   6.795
  227TIP3    H2  623   2.164   1.074   6.723
  228TIP3   OH2  624   1.972   6.061   0.969
  228TIP3    H1  625   1.939   5.989   1.022
  228TIP3    H2  626   1.979   6.135   1.031
  229TIP3   OH2  627   7.448   5.773   5.795
  229TIP3    H1  628   7.450   5.721   5.875
  229TIP3    H2  629   7.485   5.857   5.819
  230TIP3   OH2  630   5.478   4.583   0.436
  230TIP3    H1  631   5.490   4.531   0.357
  230TIP3    H2  632   5.514   4.669   0.414
  231TIP3   OH2  633   6.622   1.880   5.124
  231TIP3    H1  634   6.605   1.901   5.032
  231TIP3    H2  635   6.711   1.914   5.140
  232TIP3   OH2  636   2.549   5.607   6.554
  232TIP3    H1  637   2.574   5.552   6.628
  232TIP3    H2  638   2.618   5.592   6.489
  233TIP3   OH2  639   0.835   5.508   0.384
  233TIP3    H1  640   0.774   5.541   0.450
  233TIP3    H2  641   0.796   5.425   0.355
  234TIP3   OH2  642   0.938   7.856   3.418
  234TIP3    H1  643   0.955   7.872   3.325
  234TIP3    H2  644   1.024   7.866   3.460
  235TIP3   OH2  645   3.871   0.507   1.758
  235TIP3    H1  646   3.905   0.583   1.711
  235TIP3    H2  647   3.828   0.543   1.835
  236TIP3   OH2  648   2.780   1.854   2.140
  236TIP3    H1  649   2.792   1.810   2.055
  236TIP3    H2  650   2.810   1.790   2.204
  237TIP3   OH2  651   3.367   3.415   4.442
  237TIP3    H1  652   3.353   3.434   4.535
  237TIP3    H2  653   3.389   3.499   4.403
  238TIP3   OH2  654   3.402   0.505   0.962
  238TIP3    H1  655   3.326   0.475   1.011
  238TIP3    H2  656   3.373   0.587   0.921
  239TIP3   OH2  657   4.960   1.379   1.707
  239TIP3    H1  658   4.966   1.472   1.687
  239TIP3    H2  659   4.877   1.351   1.668
  240TIP3   OH2  660   0.954   0.181   1.936
  240TIP3    H1  661   0.871   0.174   1.890
  240TIP3    H2  662   1.019   0.148   1.874
  241TIP3   OH2  663   2.056   1.188   2.586
  241TIP3    H1  664   1.997   1.252   2.625
  241TIP3    H2  665   2.049   1.203   2.492
  242TIP3   OH2  666   6.458   7.444   4.398
  242TIP3    H1  667   6.542   7.486   4.415
  242TIP3    H2  668   6.397   7.487   4.459
  243TIP3   OH2  669   8.229   2.478   3.307
  243TIP3    H1  670   8.285   2.429   3.367
  243TIP3    H2  671   8.156   2.507   3.362
  244TIP3   OH2  672   2.260   5.119   0.348
  244TIP3    H1  673   2.197   5.095   0.415
  244TIP3    H2  674   2.329   5.052   0.355
  245TIP3   OH2  675   2.377   3.915   6.102
  245TIP3    H1  676   2.412   3.846   6.159
  245TIP3    H2  677   2.419   3.995   6.133
  246TIP3   OH2  678   2.986   2.043   5.601
  246TIP3    H1  679   3.014   2.124   5.644
  246TIP3    H2  680   2.953   1.988   5.672
  247TIP3   OH2  681   3.939   1.932   1.328
  247TIP3    H1  682   3.891   1.871   1.271
  247TIP3    H2  683   3.891   2.015   1.320
  248TIP3   OH2  684   3.223   5.464   1.746
  248TIP3    H1  685   3.240   5.495   1.835
  248TIP3    H2  686   3.141   5.414   1.753
  249TIP3   OH2  687   0.162   5.226   0.439
  249TIP3    H1  688   0.243   5.239   0.390
  249TIP3    H2  689   0.155   5.132   0.451
  250TIP3   OH2  690   6.568   2.451   6.409
  250TIP3    H1  691   6.517   2.400   6.472
  250TIP3    H2  692   6.536   2.422   6.323
  251TIP3   OH2  693   5.854   4.992   4.950
  251TIP3    H1  694   5.868   4.915   4.896
  251TIP3    H2  695   5.938   5.007   4.993
  252TIP3   OH2  696   3.746   3.021   3.860
  252TIP3    H1  697   3.659   3.060   3.874
  252TIP3    H2  698   3.729   2.944   3.806
  253TIP3   OH2  699   6.755   3.241   5.290
  253TIP3    H1  700   6.807   3.180   5.343
  253TIP3    H2  701   6.775   3.217   5.199
  254TIP3   OH2  702   3.435   1.375   4.116
  254TIP3    H1  703   3.432   1.289   4.075
  254TIP3    H2  704   3.510   1.419   4.076
  255TIP3   OH2  705   3.315   1.989   2.545
  255TIP3    H1  706   3.384   1.972   2.481
  255TIP3    H2  707   3.244   2.028   2.494
  256TIP3   OH2  708   4.290   7.166   0.775
  256TIP3    H1  709   4.210   7.114   0.772
  256TIP3    H2  710   4.306   7.180   0.869
  257TIP3   OH2  711   1.794   4.106   0.340
  257TIP3    H1  712   1.757   4.067   0.261
  257TIP3    H2  713   1.840   4.034   0.383
  258TIP3   OH2  714   6.246   4.156   0.948
  258TIP3    H1  715   6.285   4.244   0.952
  258TIP3    H2  716   6.151   4.172   0.946
  259TIP3   OH2  717   5.212   6.770   3.892
  259TIP3    H1  718   5.273   6.842   3.877
  259TIP3    H2  719   5.126   6.807   3.875
  260TIP3   OH2  720   2.914   4.146   1.559
  260TIP3    H1  721   2.844   4.115   1.501
  260TIP3    H2  722   2.969   4.202   1.503
  261TIP3   OH2  723   7.305   2.640   5.035
  261TIP3    H1  724   7.305   2.696   5.112
  261TIP3    H2  725   7.352   2.691   4.969
  262TIP3   OH2  726   5.637   0.241   2.217
  262TIP3    H1  727   5.577   0.236   2.292
  262TIP3    H2  728   5.651   0.335   2.205
  263TIP3   OH2  729   3.262   7.834   4.321
  263TIP3    H1  730   3.214   7.878   4.250
  263TIP3    H2  731   3.318   7.770   4.276
  264TIP3   OH2  732   6.502   7.014   5.644
  264TIP3    H1  733   6.418   7.022   5.689
  264TIP3    H2  734   6.480   7.017   5.551
  265TIP3   OH2  735   5.266   5.022   1.275
  265TIP3    H1  736   5.175   5.004   1.300
  265TIP3    H2  737   5.313   4.941   1.294
  266TIP3   OH2  738   8.407   5.247   4.292
  266TIP3    H1  739   8.386   5.252   4.199
  266TIP3    H2  740   8.389   5.156   4.316
  267TIP3   OH2  741   1.490   4.244   2.178
  267TIP3    H1  742   1.409   4.289   2.204
  267TIP3    H2  743   1.551   4.314   2.156
  268TIP3   OH2  744   2.899   7.155   6.397
  268TIP3    H1  745   2.837   7.186   6.464
  268TIP3    H2  746   2.983   7.190   6.424
  269TIP3   OH2  747   1.219   2.693   6.507
  269TIP3    H1  748   1.239   2.727   6.419
  269TIP3    H2  749   1.193   2.771   6.556
  270TIP3   OH2  750   6.884   5.737   4.138
  270TIP3    H1  751   6.886   5.832   4.150
  270TIP3    H2  752   6.938   5.703   4.209
  271TIP3   OH2  753   1.978   0.800   3.493
  271TIP3    H1  754   1.922   0.792   3.417
  271TIP3    H2  755   1.947   0.731   3.552
  272TIP3   OH2  756   6.037   0.526   1.681
  272TIP3    H1  757   5.966   0.463   1.693
  272TIP3    H2  758   6.067   0.545   1.770
  273TIP3   OH2  759   7.333   0.161   3.106
  273TIP3    H1  760   7.385   0.233   3.072
  273TIP3    H2  761   7.379   0.133   3.185
  274TIP3   OH2  762   4.531   6.840   1.303
  274TIP3    H1  763   4.505   6.932   1.299
  274TIP3    H2  764   4.449   6.791   1.294
  275TIP3   OH2  765   7.143   7.356   3.600
  275TIP3    H1  766   7.075   7.348   3.667
  275TIP3    H2  767   7.221   7.381   3.649
  276TIP3   OH2  768   6.477   1.435   3.710
  276TIP3    H1  769   6.569   1.420   3.692
  276TIP3    H2  770   6.431   1.384   3.643
  277TIP3   OH2  771   0.675   5.710   2.900
  277TIP3    H1  772   0.696   5.624   2.935
  277TIP3    H2  773   0.746   5.767   2.933
  278TIP3   OH2  774   0.808   6.961   5.737
  278TIP3    H1  775   0.836   6.917   5.657
  278TIP3    H2  776   0.865   7.037   5.744
  279TIP3   OH2  777   4.669   0.572   5.417
  279TIP3    H1  778   4.661   0.478   5.403
  279TIP3    H2  779   4.620   0.611   5.345
  280TIP3   OH2  780   0.156   5.784   0.931
  280TIP3    H1  781   0.088   5.745   0.876
  280TIP3    H2  782   0.211   5.834   0.870
  281TIP3   OH2  783   8.331   5.363   2.444
  281TIP3    H1  784   8.309   5.282   2.396
  281TIP3    H2  785   8.280   5.358   2.524
  282TIP3   OH2  786   3.306   7.722   4.575
  282TIP3    H1  787   3.274   7.752   4.490
  282TIP3    H2  788   3.377   7.661   4.554
  283TIP3   OH2  789   1.082   6.664   3.060
  283TIP3    H1  790   1.105   6.596   2.998
  283TIP3    H2  791   1.161   6.717   3.069
  284TIP3   OH2  792   3.787   2.533   6.860
  284TIP3    H1  793   3.709   2.481   6.843
  284TIP3    H2  794   3.754   2.619   6.887
  285TIP3   OH2  795   0.829   5.088   1.325
  285TIP3    H1  796   0.833   5.042   1.242
  285TIP3    H2  797   0.738   5.116   1.334
  286TIP3   OH2  798   3.414   5.906   5.759
  286TIP3    H1  799   3.483   5.955   5.804
  286TIP3    H2  800   3.403   5.952   5.676
  287TIP3   OH2  801   3.968   5.868   5.481
  287TIP3    H1  802   4.009   5.782   5.474
  287TIP3    H2  803   3.878   5.849   5.509
  288TIP3   OH2  804   8.165   5.075   1.954
  288TIP3    H1  805   8.076   5.100   1.929
  288TIP3    H2  806   8.191   5.140   2.019
  289TIP3   OH2  807   1.312   1.999   0.616
  289TIP3    H1  808   1.309   2.091   0.643
  289TIP3    H2  809   1.250   1.955   0.674
  290TIP3   OH2  810  -0.031   6.722   5.418
  290TIP3    H1  811  -0.010   6.644   5.469
  290TIP3    H2  812   0.053   6.766   5.406
  291TIP3   OH2  813   7.134   5.687   1.171
  291TIP3    H1  814   7.202   5.656   1.232
  291TIP3    H2  815   7.057   5.635   1.194
  292TIP3   OH2  816   0.764   7.369   5.941
  292TIP3    H1  817   0.711   7.326   6.008
  292TIP3    H2  818   0.838   7.310   5.927
  293TIP3   OH2  819   2.761   6.979   5.295
  293TIP3    H1  820   2.801   6.923   5.229
  293TIP3    H2  821   2.675   7.001   5.259
  294TIP3   OH2  822   2.715   4.791   2.155
  294TIP3    H1  823   2.768   4.781   2.234
  294TIP3    H2  824   2.716   4.885   2.136
  295TIP3   OH2  825   4.590   1.708   0.540
  295TIP3    H1  826   4.517   1.646   0.533
  295TIP3    H2  827   4.621   1.698   0.630
  296TIP3   OH2  828   1.820   5.802   0.627
  296TIP3    H1  829   1.779   5.827   0.710
  296TIP3    H2  830   1.857   5.884   0.593
  297TIP3   OH2  831   1.193   2.068   1.824
  297TIP3    H1  832   1.115   2.027   1.788
  297TIP3    H2  833   1.254   1.995   1.838
  298TIP3   OH2  834   2.529   0.612   0.093
  298TIP3    H1  835   2.488   0.528   0.072
  298TIP3    H2  836   2.467   0.677   0.060
  299TIP3   OH2  837   7.883   1.699   4.340
  299TIP3    H1  838   7.966   1.664   4.307
  299TIP3    H2  839   7.825   1.700   4.263
  300TIP3   OH2  840   0.102   2.553   6.054
  300TIP3    H1  841   0.148   2.491   6.111
  300TIP3    H2  842   0.120   2.639   6.091
  301TIP3   OH2  843   6.991   4.877   4.969
  301TIP3    H1  844   6.919   4.939   4.977
  301TIP3    H2  845   7.036   4.881   5.053
  302TIP3   OH2  846   1.018   3.291   2.648
  302TIP3    H1  847   1.007   3.355   2.579
  302TIP3    H2  848   1.111   3.268   2.645
  303TIP3   OH2  849   2.508   7.184   6.406
  303TIP3    H1  850   2.537   7.126   6.336
  303TIP3    H2  851   2.439   7.238   6.367
  304TIP3   OH2  852   1.868   0.636   3.715
  304TIP3    H1  853   1.962   0.642   3.698
  304TIP3    H2  854   1.858   0.555   3.765
  305TIP3   OH2  855   3.218   7.509   5.337
  305TIP3    H1  856   3.266   7.576   5.288
  305TIP3    H2  857   3.267   7.429   5.321
  306TIP3   OH2  858   0.332   5.714   0.452
  306TIP3    H1  859   0.318   5.688   0.543
  306TIP3    H2  860   0.342   5.809   0.455
  307TIP3   OH2  861   0.438   6.812   3.827
  307TIP3    H1  862   0.430   6.866   3.906
  307TIP3    H2  863   0.356   6.827   3.779
  308TIP3   OH2  864   6.568   4.519   4.380
  308TIP3    H1  865   6.527   4.554   4.300
  308TIP3    H2  866   6.501   4.530   4.447
  309TIP3   OH2  867   3.259   1.784   3.399
  309TIP3    H1  868   3.321   1.835   3.347
  309TIP3    H2  869   3.261   1.824   3.486
  310TIP3   OH2  870   2.504   1.251   6.672
  310TIP3    H1  871   2.519   1.306   6.595
  310TIP3    H2  872   2.555   1.294   6.741
  311TIP3   OH2  873   7.301   2.942   6.687
  311TIP3    H1  874   7.211   2.960   6.662
  311TIP3    H2  875   7.339   2.896   6.612
  312TIP3   OH2  876   8.384   1.516   1.412
  312TIP3    H1  877   8.458   1.455   1.419
  312TIP3    H2  878   8.339   1.509   1.496
  313TIP3   OH2  879   5.185   3.466   4.736
  313TIP3    H1  880   5.143   3.535   4.787
  313TIP3    H2  881   5.267   3.505   4.705
  314TIP3   OH2  882   5.443   0.550   3.548
  314TIP3    H1  883   5.485   0.478   3.595
  314TIP3    H2  884   5.363   0.568   3.598
  315TIP3   OH2  885   6.661   6.787   6.373
  315TIP3    H1  886   6.617   6.852   6.427
  315TIP3    H2  887   6.607   6.779   6.295
  316TIP3   OH2  888   7.579   1.843   4.184
  316TIP3    H1  889   7.631   1.901   4.239
  316TIP3    H2  890   7.489   1.859   4.212
  317TIP3   OH2  891   6.377   2.975   0.610
  317TIP3    H1  892   6.463   2.935   0.626
  317TIP3    H2  893   6.380   3.004   0.519
  318TIP3   OH2  894   6.869   5.617   5.123
  318TIP3    H1  895   6.781   5.649   5.100
  318TIP3    H2  896   6.918   5.696   5.146
  319TIP3   OH2  897   0.010   6.360   1.631
  319TIP3    H1  898  -0.007   6.266   1.634
  319TIP3    H2  899   0.105   6.367   1.625
  320TIP3   OH2  900   3.819   2.024   5.256
  320TIP3    H1  901   3.767   2.072   5.191
  320TIP3    H2  902   3.888   2.085   5.281
  321TIP3   OH2  903   5.209   6.496   5.704
  321TIP3    H1  904   5.123   6.461   5.682
  321TIP3    H2  905   5.270   6.425   5.683
  322TIP3   OH2  906   4.202   3.860   2.185
  322TIP3    H1  907   4.178   3.866   2.092
  322TIP3    H2  908   4.119   3.873   2.231
  323TIP3   OH2  909   0.643   5.401   0.989
  323TIP3    H1  910   0.571   5.350   1.027
  323TIP3    H2  911   0.658   5.363   0.903
  324TIP3   OH2  912   4.419   2.416   4.314
  324TIP3    H1  913   4.350   2.406   4.250
  324TIP3    H2  914   4.486   2.352   4.287
  325TIP3   OH2  915   2.918   0.740   1.457
  325TIP3    H1  916   2.941   0.815   1.401
  325TIP3    H2  917   2.907   0.667   1.396
  326TIP3   OH2  918   0.105   6.131   0.257
  326TIP3    H1  919   0.062   6.045   0.259
  326TIP3    H2  920   0.182   6.120   0.314
  327TIP3   OH2  921   6.416   2.260   5.041
  327TIP3    H1  922   6.478   2.226   5.106
  327TIP3    H2  923   6.346   2.194   5.039
  328TIP3   OH2  924   1.229   0.244   2.063
  328TIP3    H1  925   1.202   0.336   2.066
  328TIP3    H2  926   1.194   0.213   1.979
  329TIP3   OH2  927   3.782   5.266   4.851
  329TIP3    H1  928   3.855   5.321   4.881
  329TIP3    H2  929   3.713   5.329   4.830
  330TIP3   OH2  930   5.190   2.213   1.850
  330TIP3    H1  931   5.222   2.128   1.879
  330TIP3    H2  932   5.152   2.253   1.928
  331TIP3   OH2  933   0.034   1.900   5.270
  331TIP3    H1  934   0.031   1.991   5.300
  331TIP3    H2  935   0.060   1.905   5.178
  332TIP3   OH2  936   4.059   2.796   6.572
  332TIP3    H1  937   4.077   2.833   6.486
  332TIP3    H2  938   4.055   2.872   6.630
  333TIP3   OH2  939   4.278   6.184   6.274
  333TIP3    H1  940   4.239   6.240   6.341
  333TIP3    H2  941   4.355   6.146   6.316
  334TIP3   OH2  942   0.211   4.933   1.719
  334TIP3    H1  943   0.215   4.856   1.775
  334TIP3    H2  944   0.139   4.985   1.754
  335TIP3   OH2  945   3.595   6.396   1.124
  335TIP3    H1  946   3.640   6.335   1.184
  335TIP3    H2  947   3.502   6.383   1.142
  336TIP3   OH2  948   3.934   7.420   3.201
  336TIP3    H1  949   3.865   7.394   3.263
  336TIP3    H2  950   3.925   7.360   3.128
  337TIP3   OH2  951   0.298   2.201   6.040
  337TIP3    H1  952   0.360   2.214   5.968
  337TIP3    H2  953   0.302   2.108   6.058
  338TIP3   OH2  954   3.515   2.814   2.349
  338TIP3    H1  955   3.438   2.819   2.292
  338TIP3    H2  956   3.496   2.742   2.409
  339TIP3   OH2  957   7.330   3.895   3.564
  339TIP3    H1  958   7.277   3.947   3.504
  339TIP3    H2  959   7.315   3.934   3.650
  340TIP3   OH2  960   4.309   4.449   4.379
  340TIP3    H1  961   4.329   4.526   4.433
  340TIP3    H2  962   4.309   4.376   4.441
  341TIP3   OH2  963   4.839   0.514   5.622
  341TIP3    H1  964   4.838   0.421   5.643
  341TIP3    H2  965   4.762   0.527   5.566
  342TIP3   OH2  966   2.621   2.739   4.583
  342TIP3    H1  967   2.695   2.757   4.524
  342TIP3    H2  968   2.616   2.816   4.639
  343TIP3   OH2  969   6.722   3.857   3.024
  343TIP3    H1  970   6.789   3.826   3.085
  343TIP3    H2  971   6.700   3.780   2.972
  344TIP3   OH2  972   1.735   6.851   1.615
  344TIP3    H1  973   1.806   6.847   1.680
  344TIP3    H2  974   1.776   6.822   1.533
  345TIP3   OH2  975   7.225   5.583   6.017
  345TIP3    H1  976   7.256   5.662   6.061
  345TIP3    H2  977   7.163   5.544   6.078
  346TIP3   OH2  978   4.722   5.689   6.192
  346TIP3    H1  979   4.803   5.712   6.146
  346TIP3    H2  980   4.678   5.772   6.207
  347TIP3   OH2  981   0.574   5.370   2.448
  347TIP3    H1  982   0.542   5.412   2.368
  347TIP3    H2  983   0.495   5.351   2.499
  348TIP3   OH2  984   7.927   1.809   1.707
  348TIP3    H1  985   7.840   1.847   1.720
  348TIP3    H2  986   7.951   1.773   1.793
  349TIP3   OH2  987   7.973   5.050   6.461
  349TIP3    H1  988   7.990   5.070   6.553
  349TIP3    H2  989   7.905   5.112   6.435
  350TIP3   OH2  990   3.580   2.707   1.519
  350TIP3    H1  991   3.530   2.703   1.438
  350TIP3    H2  992   3.578   2.618   1.553
  351TIP3   OH2  993   0.874   6.437   4.206
  351TIP3    H1  994   0.825   6.358   4.230
  351TIP3    H2  995   0.951   6.436   4.263
  352TIP3   OH2  996   3.521   5.953   3.468
  352TIP3    H1  997   3.507   6.002   3.549
  352TIP3    H2  998   3.555   6.017   3.406
  353TIP3   OH2  999   0.902   0.408   3.449
  353TIP3    H1 1000   0.926   0.494   3.413
  353TIP3    H2 1001   0.822   0.425   3.499
  354TIP3   OH2 1002   6.437   2.762   3.182
  354TIP3    H1 1003   6.495   2.829   3.146
  354TIP3    H2 1004   6.350   2.787   3.149
  355TIP3   OH2 1005   2.681   2.173   5.696
  355TIP3    H1 1006   2.682   2.178   5.791
  355TIP3    H2 1007   2.708   2.083   5.676
  356TIP3   OH2 1008   4.580   3.992   4.038
  356TIP3    H1 1009   4.642   3.919   4.041
  356TIP3    H2 1010   4.629   4.063   3.997
  357TIP3   OH2 1011   6.116   3.287   1.448
  357TIP3    H1 1012   6.176   3.220   1.480
  357TIP3    H2 1013   6.166   3.368   1.450
  358TIP3   OH2 1014   2.906   5.734   2.017
  358TIP3    H1 1015   2.862   5.757   2.099
  358TIP3    H2 1016   2.954   5.813   1.993
  359TIP3   OH2 1017   6.063   3.260   0.803
  359TIP3    H1 1018   6.067   3.167   0.780
  359TIP3    H2 1019   5.978   3.271   0.844
  360TIP3   OH2 1020   5.991   6.716   0.248
  360TIP3    H1 1021   6.021   6.654   0.182
  360TIP3    H2 1022   6.067   6.772   0.265
  361TIP3   OH2 1023   3.220   0.223   1.712
  361TIP3    H1 1024   3.230   0.298   1.770
  361TIP3    H2 1025   3.141   0.179   1.742
  362TIP3   OH2 1026   5.021   7.820   1.356
  362TIP3    H1 1027   4.995   7.776   1.276
  362TIP3    H2 1028   4.970   7.778   1.425
  363TIP3   OH2 1029   4.123   1.334   3.893
  363TIP3    H1 1030   4.187   1.355   3.961
  363TIP3    H2 1031   4.165   1.267   3.839
  364TIP3   OH2 1032   1.942   3.972   5.391
  364TIP3    H1 1033   1.875   3.986   5.458
  364TIP3    H2 1034   1.988   3.893   5.419
  365TIP3   OH2 1035   8.149   7.955   5.416
  365TIP3    H1 1036   8.137   7.872   5.370
  365TIP3    H2 1037   8.080   8.012   5.383
  366TIP3   OH2 1038   7.698   7.715   0.597
  366TIP3    H1 1039   7.715   7.629   0.636
  366TIP3    H2 1040   7.763   7.772   0.638
  367TIP3   OH2 1041   0.035   6.469   1.353
  367TIP3    H1 1042  -0.012   6.390   1.327
  367TIP3    H2 1043   0.098   6.439   1.418
  368TIP3   OH2 1044   0.968   7.518   6.171
  368TIP3    H1 1045   0.987   7.438   6.221
  368TIP3    H2 1046   0.873   7.519   6.161
  369TIP3   OH2 1047   6.289   0.508   1.381
  369TIP3    H1 1048   6.329   0.593   1.398
  369TIP3    H2 1049   6.204   0.529   1.342
  370TIP3   OH2 1050   1.732   5.534   0.585
  370TIP3    H1 1051   1.641   5.558   0.570
  370TIP3    H2 1052   1.775   5.615   0.612
  371TIP3   OH2 1053   1.451   7.604   1.328
  371TIP3    H1 1054   1.414   7.692   1.324
  371TIP3    H2 1055   1.444   7.577   1.419
  372TIP3   OH2 1056   1.687   3.918   2.525
  372TIP3    H1 1057   1.712   3.825   2.522
  372TIP3    H2 1058   1.593   3.917   2.506
  373TIP3   OH2 1059   5.178   5.088   0.917
  373TIP3    H1 1060   5.205   5.149   0.848
  373TIP3    H2 1061   5.244   5.019   0.915
  374TIP3   OH2 1062   2.159   1.341   1.988
  374TIP3    H1 1063   2.069   1.308   1.980
  374TIP3    H2 1064   2.202   1.278   2.045
  375TIP3   OH2 1065   1.162   0.227   0.080
  375TIP3    H1 1066   1.113   0.155   0.119
  375TIP3    H2 1067   1.252   0.214   0.110
  376TIP3   OH2 1068   1.376   7.645   1.827
  376TIP3    H1 1069   1.359   7.716   1.764
  376TIP3    H2 1070   1.445   7.680   1.883
  377TIP3   OH2 1071   1.505   3.990   5.601
  377TIP3    H1 1072   1.589   4.033   5.621
  377TIP3    H2 1073   1.510   3.969   5.508
  378TIP3   OH2 1074   3.957   3.663   1.493
  378TIP3    H1 1075   3.924   3.664   1.583
  378TIP3    H2 1076   3.879   3.678   1.439
  379TIP3   OH2 1077   4.899   1.602   2.059
  379TIP3    H1 1078   4.816   1.578   2.018
  379TIP3    H2 1079   4.881   1.687   2.099
  380TIP3   OH2 1080   0.148   4.907   1.024
  380TIP3    H1 1081   0.225   4.851   1.035
  380TIP3    H2 1082   0.170   4.987   1.071
  381TIP3   OH2 1083   2.001   1.905   5.881
  381TIP3    H1 1084   2.053   1.929   5.805
  381TIP3    H2 1085   2.064   1.875   5.946
  382TIP3   OH2 1086   7.649   0.700   5.769
  382TIP3    H1 1087   7.743   0.716   5.768
  382TIP3    H2 1088   7.634   0.641   5.696
  383TIP3   OH2 1089   7.070   3.329   6.437
  383TIP3    H1 1090   6.987   3.318   6.485
  383TIP3    H2 1091   7.080   3.247   6.389
  384TIP3   OH2 1092   4.409   1.302   3.558
  384TIP3    H1 1093   4.393   1.393   3.581
  384TIP3    H2 1094   4.505   1.295   3.553
  385TIP3   OH2 1095   5.419   4.837   2.762
  385TIP3    H1 1096   5.405   4.853   2.856
  385TIP3    H2 1097   5.372   4.907   2.718
  386TIP3   OH2 1098   3.764   1.003   0.062
  386TIP3    H1 1099   3.701   1.008   0.134
  386TIP3    H2 1100   3.845   0.972   0.102
  387TIP3   OH2 1101   4.485   1.121   1.078
  387TIP3    H1 1102   4.496   1.215   1.097
  387TIP3    H2 1103   4.532   1.077   1.149
  388TIP3   OH2 1104   3.841   0.388   5.437
  388TIP3    H1 1105   3.923   0.369   5.392
  388TIP3    H2 1106   3.867   0.438   5.514
  389TIP3   OH2 1107   5.155   5.886   6.450
  389TIP3    H1 1108   5.147   5.981   6.454
  389TIP3    H2 1109   5.168   5.859   6.541
  390TIP3   OH2 1110   1.488   4.498   2.399
  390TIP3    H1 1111   1.516   4.585   2.371
  390TIP3    H2 1112   1.398   4.490   2.368
  391TIP3   OH2 1113   7.844   1.473   1.989
  391TIP3    H1 1114   7.931   1.504   1.962
  391TIP3    H2 1115   7.825   1.400   1.929
  392TIP3   OH2 1116   5.315   0.092   4.216
  392TIP3    H1 1117   5.386   0.077   4.278
  392TIP3    H2 1118   5.237   0.058   4.260
  393TIP3   OH2 1119   2.334   5.006   4.232
  393TIP3    H1 1120   2.351   4.992   4.325
  393TIP3    H2 1121   2.253   5.057   4.230
  394TIP3   OH2 1122   3.710   4.868   3.172
  394TIP3    H1 1123   3.701   4.864   3.268
  394TIP3    H2 1124   3.726   4.960   3.154
  395TIP3   OH2 1125   3.542   7.295   0.887
  395TIP3    H1 1126   3.488   7.335   0.956
  395TIP3    H2 1127   3.482   7.287   0.812
  396TIP3   OH2 1128   6.223   5.262   4.365
  396TIP3    H1 1129   6.291   5.275   4.431
  396TIP3    H2 1130   6.230   5.169   4.341
  397TIP3   OH2 1131   7.596   3.878   2.067
  397TIP3    H1 1132   7.519   3.823   2.080
  397TIP3    H2 1133   7.645   3.872   2.149
  398TIP3   OH2 1134   4.328   2.470   0.808
  398TIP3    H1 1135   4.273   2.531   0.758
  398TIP3    H2 1136   4.314   2.496   0.900
  399TIP3   OH2 1137   1.095   2.485   2.114
  399TIP3    H1 1138   1.115   2.394   2.095
  399TIP3    H2 1139   1.148   2.505   2.192
  400TIP3   OH2 1140   0.381   5.195   1.029
  400TIP3    H1 1141   0.312   5.170   1.090
  400TIP3    H2 1142   0.335   5.241   0.959
  401TIP3   OH2 1143   5.860   5.724   2.807
  401TIP3    H1 1144   5.845   5.669   2.730
  401TIP3    H2 1145   5.947   5.761   2.794
  402TIP3   OH2 1146   6.219   3.245   1.866
  402TIP3    H1 1147   6.225   3.153   1.892
  402TIP3    H2 1148   6.132   3.272   1.895
  403TIP3   OH2 1149   4.095   7.881   5.678
  403TIP3    H1 1150   4.121   7.817   5.744
  403TIP3    H2 1151   4.017   7.842   5.637
  404TIP3   OH2 1152   2.002   2.782   1.702
  404TIP3    H1 1153   1.952   2.760   1.781
  404TIP3    H2 1154   2.094   2.775   1.730
  405TIP3   OH2 1155   1.955   0.994   1.411
  405TIP3    H1 1156   2.022   1.041   1.462
  405TIP3    H2 1157   1.877   0.997   1.466
  406TIP3   OH2 1158   4.828   5.687   2.728
  406TIP3    H1 1159   4.796   5.774   2.752
  406TIP3    H2 1160   4.892   5.666   2.796
  407TIP3   OH2 1161   2.149   2.868   2.784
  407TIP3    H1 1162   2.209   2.863   2.858
  407TIP3    H2 1163   2.138   2.777   2.756
  408TIP3   OH2 1164   8.152   0.396   2.747
  408TIP3    H1 1165   8.202   0.341   2.807
  408TIP3    H2 1166   8.180   0.368   2.660
  409TIP3   OH2 1167   4.298   5.648   3.732
  409TIP3    H1 1168   4.205   5.663   3.717
  409TIP3    H2 1169   4.323   5.584   3.665
  410TIP3   OH2 1170   7.823   0.672   0.957
  410TIP3    H1 1171   7.775   0.743   0.998
  410TIP3    H2 1172   7.804   0.681   0.863
  411TIP3   OH2 1173   0.286   1.584   0.345
  411TIP3    H1 1174   0.353   1.536   0.393
  411TIP3    H2 1175   0.266   1.529   0.270
  412TIP3   OH2 1176   5.447   3.092   5.358
  412TIP3    H1 1177   5.465   3.004   5.390
  412TIP3    H2 1178   5.375   3.082   5.295
  413TIP3   OH2 1179   7.562   0.940   4.095
  413TIP3    H1 1180   7.506   0.890   4.036
  413TIP3    H2 1181   7.650   0.931   4.058
  414TIP3   OH2 1182   6.738   1.494   1.358
  414TIP3    H1 1183   6.673   1.425   1.342
  414TIP3    H2 1184   6.802   1.453   1.417
  415TIP3   OH2 1185   4.205   1.107   1.025
  415TIP3    H1 1186   4.300   1.099   1.032
  415TIP3    H2 1187   4.178   1.147   1.108
  416TIP3   OH2 1188   4.461   2.605   4.516
  416TIP3    H1 1189   4.377   2.649   4.503
  416TIP3    H2 1190   4.469   2.544   4.443
  417TIP3   OH2 1191   4.457   3.826   6.035
  417TIP3    H1 1192   4.413   3.886   6.095
  417TIP3    H2 1193   4.385   3.780   5.990
  418TIP3   OH2 1194   3.885   1.205   1.367
  418TIP3    H1 1195   3.883   1.197   1.272
  418TIP3    H2 1196   3.889   1.114   1.398
  419TIP3   OH2 1197   5.787   2.057   0.824
  419TIP3    H1 1198   5.760   1.987   0.883
  419TIP3    H2 1199   5.846   2.112   0.877
  420TIP3   OH2 1200   3.042   0.019   4.449
  420TIP3    H1 1201   3.035  -0.033   4.368
  420TIP3    H2 1202   3.082   0.101   4.421
  421TIP3   OH2 1203   4.530   6.289   3.340
  421TIP3    H1 1204   4.551   6.210   3.291
  421TIP3    H2 1205   4.466   6.335   3.286
  422TIP3   OH2 1206   6.739   4.526   1.182
  422TIP3    H1 1207   6.671   4.592   1.195
  422TIP3    H2 1208   6.696   4.443   1.202
  423TIP3   OH2 1209   1.304   5.163   5.269
  423TIP3    H1 1210   1.271   5.075   5.290
  423TIP3    H2 1211   1.265   5.183   5.184
  424TIP3   OH2 1212   4.988   2.128   1.128
  424TIP3    H1 1213   4.947   2.157   1.046
  424TIP3    H2 1214   5.000   2.209   1.178
  425TIP3   OH2 1215   5.812   3.771   6.576
  425TIP3    H1 1216   5.811   3.697   6.515
  425TIP3    H2 1217   5.785   3.846   6.523
  426TIP3   OH2 1218   4.102   2.284   2.614
  426TIP3    H1 1219   4.029   2.242   2.661
  426TIP3    H2 1220   4.060   2.347   2.556
  427TIP3   OH2 1221   4.693   1.059   0.153
  427TIP3    H1 1222   4.772   1.026   0.109
  427TIP3    H2 1223   4.637   0.982   0.162
  428TIP3   OH2 1224   1.602   4.709   2.303
  428TIP3    H1 1225   1.582   4.759   2.224
  428TIP3    H2 1226   1.633   4.774   2.366
  429TIP3   OH2 1227   1.290   2.318   5.350
  429TIP3    H1 1228   1.368   2.359   5.387
  429TIP3    H2 1229   1.220   2.381   5.367
  430TIP3   OH2 1230   4.961   0.575   2.400
  430TIP3    H1 1231   5.019   0.524   2.343
  430TIP3    H2 1232   4.891   0.514   2.424
  431TIP3   OH2 1233   2.371   4.391   6.807
  431TIP3    H1 1234   2.376   4.330   6.880
  431TIP3    H2 1235   2.333   4.470   6.844
  432TIP3   OH2 1236   0.549   2.370   3.178
  432TIP3    H1 1237   0.559   2.317   3.099
  432TIP3    H2 1238   0.550   2.461   3.146
  433TIP3   OH2 1239   6.748   2.171   6.832
  433TIP3    H1 1240   6.758   2.258   6.871
  433TIP3    H2 1241   6.774   2.182   6.741
  434TIP3   OH2 1242   0.918   4.737   0.088
  434TIP3    H1 1243   0.938   4.656   0.040
  434TIP3    H2 1244   1.003   4.776   0.107
  435TIP3   OH2 1245   5.344   5.682   6.823
  435TIP3    H1 1246   5.434   5.691   6.793
  435TIP3    H2 1247   5.300   5.762   6.793
  436TIP3   OH2 1248   6.679   1.171   1.457
  436TIP3    H1 1249   6.749   1.233   1.476
  436TIP3    H2 1250   6.612   1.190   1.522
  437TIP3   OH2 1251   6.592   7.637   3.032
  437TIP3    H1 1252   6.541   7.706   3.075
  437TIP3    H2 1253   6.550   7.556   3.060
  438TIP3   OH2 1254   0.447   0.213   5.661
  438TIP3    H1 1255   0.522   0.158   5.638
  438TIP3    H2 1256   0.398   0.162   5.726
  439TIP3   OH2 1257   4.190   0.860   6.247
  439TIP3    H1 1258   4.232   0.926   6.302
  439TIP3    H2 1259   4.108   0.901   6.220
  440TIP3   OH2 1260   7.061   6.902   3.437
  440TIP3    H1 1261   7.115   6.979   3.455
  440TIP3    H2 1262   7.123   6.837   3.402
  441TIP3   OH2 1263   4.894   4.879   3.612
  441TIP3    H1 1264   4.968   4.868   3.672
  441TIP3    H2 1265   4.860   4.790   3.600
  442TIP3   OH2 1266   4.368   3.668   2.272
  442TIP3    H1 1267   4.327   3.617   2.202
  442TIP3    H2 1268   4.316   3.748   2.277
  443TIP3   OH2 1269   6.106   4.496   0.756
  443TIP3    H1 1270   6.152   4.563   0.807
  443TIP3    H2 1271   6.174   4.456   0.702
  444TIP3   OH2 1272   2.350   7.537   6.542
  444TIP3    H1 1273   2.432   7.503   6.577
  444TIP3    H2 1274   2.365   7.630   6.530
  445TIP3   OH2 1275   0.605   3.053   1.198
  445TIP3    H1 1276   0.582   2.979   1.141
  445TIP3    H2 1277   0.683   3.091   1.158
  446TIP3   OH2 1278   5.862   1.656   6.343
  446TIP3    H1 1279   5.830   1.668   6.433
  446TIP3    H2 1280   5.852   1.563   6.326
  447TIP3   OH2 1281   2.830   1.484   5.214
  447TIP3    H1 1282   2.782   1.567   5.205
  447TIP3    H2 1283   2.867   1.487   5.301
  448TIP3   OH2 1284   7.573   0.379   6.349
  448TIP3    H1 1285   7.544   0.442   6.283
  448TIP3    H2 1286   7.587   0.433   6.427
  449TIP3   OH2 1287   5.830   0.063   2.078
  449TIP3    H1 1288   5.750   0.096   2.119
  449TIP3    H2 1289   5.898   0.076   2.144
  450TIP3   OH2 1290   1.087   0.589   1.004
  450TIP3    H1 1291   1.002   0.543   1.001
  450TIP3    H2 1292   1.076   0.654   1.073
  451TIP3   OH2 1293   2.476   4.891   3.005
  451TIP3    H1 1294   2.463   4.935   2.921
  451TIP3    H2 1295   2.471   4.798   2.984
  452TIP3   OH2 1296   1.372   6.153   3.981
  452TIP3    H1 1297   1.352   6.185   3.893
  452TIP3    H2 1298   1.438   6.086   3.967
  453TIP3   OH2 1299   5.993   2.479   1.458
  453TIP3    H1 1300   6.033   2.512   1.377
  453TIP3    H2 1301   5.912   2.528   1.467
  454TIP3   OH2 1302   8.237   1.055   3.226
  454TIP3    H1 1303   8.186   1.081   3.149
  454TIP3    H2 1304   8.322   1.028   3.191
  455TIP3   OH2 1305   3.019   4.883   6.625
  455TIP3    H1 1306   3.002   4.977   6.612
  455TIP3    H2 1307   2.935   4.848   6.654
  456TIP3   OH2 1308   3.572   0.864   1.524
  456TIP3    H1 1309   3.482   0.895   1.520
  456TIP3    H2 1310   3.565   0.769   1.515
  457TIP3   OH2 1311   0.864   3.044   4.822
  457TIP3    H1 1312   0.774   3.013   4.808
  457TIP3    H2 1313   0.853   3.128   4.867
  458TIP3   OH2 1314   6.619   0.286   1.119
  458TIP3    H1 1315   6.593   0.195   1.126
  458TIP3    H2 1316   6.606   0.308   1.027
  459TIP3   OH2 1317   0.141   3.927   3.345
  459TIP3    H1 1318   0.125   3.868   3.419
  459TIP3    H2 1319   0.229   3.903   3.314
  460TIP3   OH2 1320   2.594   7.347   2.983
  460TIP3    H1 1321   2.526   7.296   3.026
  460TIP3    H2 1322   2.676   7.300   3.002
  461TIP3   OH2 1323   4.694   0.688   4.763
  461TIP3    H1 1324   4.730   0.646   4.685
  461TIP3    H2 1325   4.746   0.768   4.773
  462TIP3   OH2 1326   7.144   7.048   1.858
  462TIP3    H1 1327   7.140   6.992   1.780
  462TIP3    H2 1328   7.161   6.987   1.930
  463TIP3   OH2 1329   8.208   0.829   3.055
  463TIP3    H1 1330   8.174   0.743   3.030
  463TIP3    H2 1331   8.286   0.841   3.001
  464TIP3   OH2 1332   5.471   2.171   4.785
  464TIP3    H1 1333   5.377   2.167   4.800
  464TIP3    H2 1334   5.506   2.217   4.861
  465TIP3   OH2 1335   1.754   4.560   5.774
  465TIP3    H1 1336   1.838   4.518   5.793
  465TIP3    H2 1337   1.741   4.549   5.680
  466TIP3   OH2 1338   5.067   1.463   4.343
  466TIP3    H1 1339   5.099   1.527   4.279
  466TIP3    H2 1340   4.978   1.443   4.314
  467TIP3   OH2 1341   3.792   4.917   5.181
  467TIP3    H1 1342   3.770   4.958   5.265
  467TIP3    H2 1343   3.861   4.972   5.145
  468TIP3   OH2 1344   6.057   3.475   2.521
  468TIP3    H1 1345   6.094   3.450   2.437
  468TIP3    H2 1346   6.068   3.398   2.577
  469TIP3   OH2 1347   2.432   2.284   3.384
  469TIP3    H1 1348   2.461   2.318   3.300
  469TIP3    H2 1349   2.401   2.196   3.366
  470TIP3   OH2 1350   5.170   2.576   6.818
  470TIP3    H1 1351   5.239   2.512   6.800
  470TIP3    H2 1352   5.216   2.659   6.825
  471TIP3   OH2 1353   0.446   4.317   3.329
  471TIP3    H1 1354   0.528   4.303   3.282
  471TIP3    H2 1355   0.385   4.350   3.263
  472TIP3   OH2 1356   3.148   0.791   1.910
  472TIP3    H1 1357   3.237   0.775   1.877
  472TIP3    H2 1358   3.154   0.774   2.004
  473TIP3   OH2 1359   4.681   5.476   1.604
  473TIP3    H1 1360   4.659   5.477   1.510
  473TIP3    H2 1361   4.661   5.564   1.634
  474TIP3   OH2 1362   6.044   3.111   5.782
  474TIP3    H1 1363   6.018   3.200   5.761
  474TIP3    H2 1364   6.022   3.100   5.874
  475TIP3   OH2 1365   4.368   1.563   2.694
  475TIP3    H1 1366   4.403   1.474   2.690
  475TIP3    H2 1367   4.408   1.602   2.771
  476TIP3   OH2 1368   6.559   0.279   1.588
  476TIP3    H1 1369   6.602   0.343   1.645
  476TIP3    H2 1370   6.598   0.295   1.501
  477TIP3   OH2 1371   3.495   1.421   5.991
  477TIP3    H1 1372   3.412   1.417   6.037
  477TIP3    H2 1373   3.494   1.345   5.933
  478TIP3   OH2 1374   0.034   2.159   1.333
  478TIP3    H1 1375   0.066   2.107   1.259
  478TIP3    H2 1376  -0.058   2.134   1.342
  479TIP3   OH2 1377   6.462   0.931   4.684
  479TIP3    H1 1378   6.540   0.935   4.627
  479TIP3    H2 1379   6.388   0.943   4.624
  480TIP3   OH2 1380   7.201   3.592   3.356
  480TIP3    H1 1381   7.277   3.643   3.328
  480TIP3    H2 1382   7.197   3.518   3.295
  481TIP3   OH2 1383   1.305   7.194   3.315
  481TIP3    H1 1384   1.345   7.122   3.266
  481TIP3    H2 1385   1.217   7.203   3.278
  482TIP3   OH2 1386   1.949   4.429   0.122
  482TIP3    H1 1387   1.929   4.335   0.121
  482TIP3    H2 1388   1.875   4.469   0.167
  483TIP3   OH2 1389   1.266   1.296   0.900
  483TIP3    H1 1390   1.183   1.342   0.908
  483TIP3    H2 1391   1.317   1.350   0.839
  484TIP3   OH2 1392   7.684   0.540   2.874
  484TIP3    H1 1393   7.636   0.593   2.809
  484TIP3    H2 1394   7.627   0.465   2.891
  485TIP3   OH2 1395   7.030   7.469   2.114
  485TIP3    H1 1396   7.062   7.559   2.115
  485TIP3    H2 1397   7.037   7.442   2.022
  486TIP3   OH2 1398   1.109   2.625   6.068
  486TIP3    H1 1399   1.076   2.608   6.157
  486TIP3    H2 1400   1.089   2.717   6.053
  487TIP3   OH2 1401   6.672   7.397   2.873
  487TIP3    H1 1402   6.717   7.338   2.932
  487TIP3    H2 1403   6.653   7.475   2.926
  488TIP3   OH2 1404   1.882   1.750   6.442
  488TIP3    H1 1405   1.791   1.775   6.461
  488TIP3    H2 1406   1.875   1.664   6.401
  489TIP3   OH2 1407   0.055   5.314   6.110
  489TIP3    H1 1408   0.144   5.289   6.085
  489TIP3    H2 1409   0.012   5.231   6.131
  490TIP3   OH2 1410   1.752   0.692   5.123
  490TIP3    H1 1411   1.830   0.745   5.109
  490TIP3    H2 1412   1.785   0.606   5.149
  491TIP3   OH2 1413   4.062   5.736   6.602
  491TIP3    H1 1414   4.053   5.785   6.520
  491TIP3    H2 1415   4.156   5.726   6.614
  492TIP3   OH2 1416   4.561   0.043   0.555
  492TIP3    H1 1417   4.471   0.069   0.536
  492TIP3    H2 1418   4.554  -0.011   0.634
  493TIP3   OH2 1419   1.044   5.101   0.858
  493TIP3    H1 1420   0.992   5.130   0.933
  493TIP3    H2 1421   1.127   5.072   0.896
  494TIP3   OH2 1422   3.017   0.965   4.061
  494TIP3    H1 1423   3.061   0.891   4.103
  494TIP3    H2 1424   3.016   1.033   4.129
  495TIP3   OH2 1425   6.709   1.716   4.660
  495TIP3    H1 1426   6.632   1.674   4.698
  495TIP3    H2 1427   6.767   1.644   4.636
  496TIP3   OH2 1428   2.914   1.343   3.691
  496TIP3    H1 1429   2.969   1.311   3.619
  496TIP3    H2 1430   2.824   1.336   3.658
  497TIP3   OH2 1431   2.057   6.429   6.011
  497TIP3    H1 1432   1.988   6.462   6.069
  497TIP3    H2 1433   2.032   6.459   5.924
  498TIP3   OH2 1434   1.585   0.292   3.624
  498TIP3    H1 1435   1.506   0.345   3.631
  498TIP3    H2 1436   1.575   0.245   3.542
  499TIP3   OH2 1437   1.408   2.213   6.703
  499TIP3    H1 1438   1.496   2.236   6.732
  499TIP3    H2 1439   1.367   2.298   6.684
  500TIP3   OH2 1440   7.573   3.679   3.820
  500TIP3    H1 1441   7.578   3.594   3.863
  500TIP3    H2 1442   7.591   3.742   3.890
  501TIP3   OH2 1443   2.600   2.935   4.767
  501TIP3    H1 1444   2.519   2.911   4.811
  501TIP3    H2 1445   2.611   3.029   4.785
  502TIP3   OH2 1446   1.439   1.420   1.457
  502TIP3    H1 1447   1.493   1.492   1.488
  502TIP3    H2 1448   1.359   1.461   1.427
  503TIP3   OH2 1449   4.220   2.602   3.445
  503TIP3    H1 1450   4.158   2.660   3.489
  503TIP3    H2 1451   4.171   2.564   3.372
  504TIP3   OH2 1452   3.799   1.947   1.778
  504TIP3    H1 1453   3.787   1.882   1.848
  504TIP3    H2 1454   3.852   1.901   1.713
  505TIP3   OH2 1455   5.647   6.858   3.580
  505TIP3    H1 1456   5.608   6.771   3.579
  505TIP3    H2 1457   5.731   6.847   3.625
  506TIP3   OH2 1458   7.875   7.588   5.443
  506TIP3    H1 1459   7.858   7.516   5.383
  506TIP3    H2 1460   7.938   7.553   5.506
  507TIP3   OH2 1461   5.812   2.192   6.711
  507TIP3    H1 1462   5.788   2.100   6.707
  507TIP3    H2 1463   5.763   2.233   6.639
  508TIP3   OH2 1464   2.373   3.478   0.021
  508TIP3    H1 1465   2.362   3.539  -0.052
  508TIP3    H2 1466   2.290   3.483   0.068
  509TIP3   OH2 1467   1.973   2.696   5.436
  509TIP3    H1 1468   2.055   2.710   5.389
  509TIP3    H2 1469   1.935   2.784   5.445
  510TIP3   OH2 1470   2.334   0.564   1.541
  510TIP3    H1 1471   2.381   0.647   1.536
  510TIP3    H2 1472   2.337   0.540   1.634
  511TIP3   OH2 1473   5.005   6.969   1.227
  511TIP3    H1 1474   4.951   7.041   1.258
  511TIP3    H2 1475   5.082   7.012   1.188
  512TIP3   OH2 1476   3.165   0.771   2.560
  512TIP3    H1 1477   3.216   0.792   2.482
  512TIP3    H2 1478   3.167   0.850   2.613
  513TIP3   OH2 1479   4.742   6.324   1.331
  513TIP3    H1 1480   4.723   6.369   1.248
  513TIP3    H2 1481   4.736   6.231   1.310
  514TIP3   OH2 1482   2.428   3.267   1.737
  514TIP3    H1 1483   2.421   3.171   1.732
  514TIP3    H2 1484   2.393   3.298   1.653
  515TIP3   OH2 1485   7.227   0.654   6.772
  515TIP3    H1 1486   7.179   0.590   6.825
  515TIP3    H2 1487   7.301   0.681   6.827
  516TIP3   OH2 1488   7.146   7.453   5.275
  516TIP3    H1 1489   7.182   7.447   5.363
  516TIP3    H2 1490   7.056   7.483   5.287
  517TIP3   OH2 1491   6.940   1.476   0.088
  517TIP3    H1 1492   7.021   1.454   0.041
  517TIP3    H2 1493   6.970   1.504   0.175
  518TIP3   OH2 1494   1.266   5.804   3.174
  518TIP3    H1 1495   1.304   5.814   3.262
  518TIP3    H2 1496   1.172   5.806   3.189
  519TIP3   OH2 1497   4.159   3.318   1.847
  519TIP3    H1 1498   4.072   3.353   1.828
  519TIP3    H2 1499   4.163   3.317   1.943
  520TIP3   OH2 1500   0.409   1.219   4.379
  520TIP3    H1 1501   0.366   1.279   4.319
  520TIP3    H2 1502   0.452   1.154   4.323
  521TIP3   OH2 1503   3.396   6.183   6.346
  521TIP3    H1 1504   3.303   6.206   6.354
  521TIP3    H2 1505   3.441   6.267   6.345
  522TIP3   OH2 1506   1.285   7.210   1.936
  522TIP3    H1 1507   1.292   7.269   2.011
  522TIP3    H2 1508   1.315   7.126   1.970
  523TIP3   OH2 1509   3.760   5.386   1.758
  523TIP3    H1 1510   3.845   5.394   1.801
  523TIP3    H2 1511   3.750   5.293   1.740
  524TIP3   OH2 1512   2.979   7.669   4.428
  524TIP3    H1 1513   2.951   7.694   4.340
  524TIP3    H2 1514   3.054   7.611   4.413
  525TIP3   OH2 1515   0.717   7.798   0.858
  525TIP3    H1 1516   0.642   7.850   0.884
  525TIP3    H2 1517   0.783   7.862   0.830
  526TIP3   OH2 1518   2.069   3.106   4.935
  526TIP3    H1 1519   2.161   3.116   4.910
  526TIP3    H2 1520   2.046   3.017   4.909
  527TIP3   OH2 1521   3.666   3.463   0.577
  527TIP3    H1 1522   3.694   3.395   0.515
  527TIP3    H2 1523   3.630   3.414   0.651
  528TIP3   OH2 1524   7.012   7.211   3.201
  528TIP3    H1 1525   6.976   7.215   3.289
  528TIP3    H2 1526   7.106   7.195   3.214
  529TIP3   OH2 1527   8.157   1.381   3.273
  529TIP3    H1 1528   8.241   1.337   3.264
  529TIP3    H2 1529   8.108   1.357   3.195
  530TIP3   OH2 1530   8.271   5.664   2.242
  530TIP3    H1 1531   8.212   5.623   2.306
  530TIP3    H2 1532   8.302   5.743   2.287
  531TIP3   OH2 1533   6.022   5.031   1.679
  531TIP3    H1 1534   5.966   4.979   1.736
  531TIP3    H2 1535   6.001   5.003   1.590
  532TIP3   OH2 1536   7.649   6.169   4.915
  532TIP3    H1 1537   7.615   6.239   4.859
  532TIP3    H2 1538   7.659   6.094   4.856
  533TIP3   OH2 1539   3.653   7.434   5.432
  533TIP3    H1 1540   3.617   7.480   5.356
  533TIP3    H2 1541   3.745   7.458   5.433
  534TIP3   OH2 1542   0.809   3.054   2.544
  534TIP3    H1 1543   0.854   3.135   2.567
  534TIP3    H2 1544   0.716   3.074   2.554
  535TIP3   OH2 1545   3.226   1.169   6.610
  535TIP3    H1 1546   3.178   1.227   6.668
  535TIP3    H2 1547   3.308   1.151   6.656
  536TIP3   OH2 1548   5.683   0.797   6.622
  536TIP3    H1 1549   5.696   0.800   6.716
  536TIP3    H2 1550   5.677   0.703   6.602
  537TIP3   OH2 1551   4.905   6.309   5.696
  537TIP3    H1 1552   4.854   6.376   5.651
  537TIP3    H2 1553   4.858   6.227   5.679
  538TIP3   OH2 1554   1.244   1.029   0.070
  538TIP3    H1 1555   1.152   1.015   0.093
  538TIP3    H2 1556   1.262   1.119   0.098
  539TIP3   OH2 1557   7.076   4.713   1.171
  539TIP3    H1 1558   6.983   4.729   1.155
  539TIP3    H2 1559   7.091   4.744   1.260
  540TIP3   OH2 1560   8.355   5.328   1.845
  540TIP3    H1 1561   8.344   5.402   1.785
  540TIP3    H2 1562   8.327   5.361   1.930
  541TIP3   OH2 1563   7.189   1.050   5.806
  541TIP3    H1 1564   7.181   1.096   5.890
  541TIP3    H2 1565   7.200   1.120   5.742
  542TIP3   OH2 1566   0.378   5.917   1.635
  542TIP3    H1 1567   0.329   5.991   1.672
  542TIP3    H2 1568   0.448   5.901   1.698
  543TIP3   OH2 1569   5.220   5.644   3.017
  543TIP3    H1 1570   5.254   5.557   3.037
  543TIP3    H2 1571   5.261   5.667   2.934
  544TIP3   OH2 1572   1.184   7.496   0.266
  544TIP3    H1 1573   1.238   7.547   0.206
  544TIP3    H2 1574   1.247   7.460   0.329
  545TIP3   OH2 1575   1.452   4.988   0.453
  545TIP3    H1 1576   1.361   4.961   0.465
  545TIP3    H2 1577   1.475   4.956   0.365
  546TIP3   OH2 1578   5.974   2.540   0.932
  546TIP3    H1 1579   6.017   2.560   0.848
  546TIP3    H2 1580   5.883   2.523   0.909
  547TIP3   OH2 1581   1.547   2.708   2.701
  547TIP3    H1 1582   1.629   2.741   2.737
  547TIP3    H2 1583   1.482   2.776   2.721
  548TIP3   OH2 1584   5.169   1.574   6.781
  548TIP3    H1 1585   5.264   1.570   6.789
  548TIP3    H2 1586   5.152   1.586   6.688
  549TIP3   OH2 1587   4.095   2.560   6.175
  549TIP3    H1 1588   4.019   2.607   6.211
  549TIP3    H2 1589   4.074   2.467   6.187
  550TIP3   OH2 1590   2.336   7.393   2.588
  550TIP3    H1 1591   2.389   7.445   2.648
  550TIP3    H2 1592   2.264   7.360   2.642
  551TIP3   OH2 1593   0.218   4.700   1.887
  551TIP3    H1 1594   0.204   4.629   1.949
  551TIP3    H2 1595   0.297   4.675   1.839
  552TIP3   OH2 1596   1.488   3.222   5.970
  552TIP3    H1 1597   1.576   3.184   5.972
  552TIP3    H2 1598   1.472   3.242   5.877
  553TIP3   OH2 1599   2.066   7.787   2.986
  553TIP3    H1 1600   2.122   7.773   3.063
  553TIP3    H2 1601   2.041   7.880   2.992
  554TIP3   OH2 1602   2.723   2.607   2.065
  554TIP3    H1 1603   2.801   2.617   2.011
  554TIP3    H2 1604   2.650   2.632   2.007
  555TIP3   OH2 1605   0.976   1.861   5.458
  555TIP3    H1 1606   1.022   1.854   5.542
  555TIP3    H2 1607   0.886   1.883   5.482
  556TIP3   OH2 1608   7.794   1.096   1.987
  556TIP3    H1 1609   7.734   1.124   2.056
  556TIP3    H2 1610   7.881   1.114   2.021
  557TIP3   OH2 1611   1.083   6.956   5.397
  557TIP3    H1 1612   1.083   7.050   5.381
  557TIP3    H2 1613   1.080   6.947   5.492
  558TIP3   OH2 1614   7.924   5.144   1.878
  558TIP3    H1 1615   7.859   5.131   1.808
  558TIP3    H2 1616   7.878   5.118   1.958
  559TIP3   OH2 1617   2.519   3.536   6.437
  559TIP3    H1 1618   2.431   3.497   6.433
  559TIP3    H2 1619   2.570   3.486   6.373
  560TIP3   OH2 1620   3.380   1.002   2.353
  560TIP3    H1 1621   3.415   1.004   2.264
  560TIP3    H2 1622   3.456   0.989   2.409
  561TIP3   OH2 1623   1.366   1.239   3.487
  561TIP3    H1 1624   1.306   1.313   3.493
  561TIP3    H2 1625   1.309   1.163   3.474
  562TIP3   OH2 1626   2.584   0.690   6.115
  562TIP3    H1 1627   2.661   0.745   6.128
  562TIP3    H2 1628   2.583   0.631   6.190
  563TIP3   OH2 1629   0.079   0.073   2.795
  563TIP3    H1 1630   0.157   0.062   2.740
  563TIP3    H2 1631   0.076  -0.008   2.847
  564TIP3   OH2 1632   5.532   7.229   1.059
  564TIP3    H1 1633   5.532   7.265   0.971
  564TIP3    H2 1634   5.506   7.302   1.115
  565TIP3   OH2 1635   1.873   7.596   0.583
  565TIP3    H1 1636   1.876   7.538   0.507
  565TIP3    H2 1637   1.856   7.537   0.657
  566TIP3   OH2 1638   0.681   4.688   0.579
  566TIP3    H1 1639   0.639   4.624   0.522
  566TIP3    H2 1640   0.754   4.721   0.528
  567TIP3   OH2 1641   7.329   3.200   0.524
  567TIP3    H1 1642   7.403   3.165   0.572
  567TIP3    H2 1643   7.257   3.139   0.542
  568TIP3   OH2 1644   6.827   7.488   1.862
  568TIP3    H1 1645   6.862   7.495   1.774
  568TIP3    H2 1646   6.815   7.578   1.891
  569TIP3   OH2 1647   0.761   7.721   1.515
  569TIP3    H1 1648   0.819   7.646   1.528
  569TIP3    H2 1649   0.764   7.738   1.421
  570TIP3   OH2 1650   7.658   7.321   4.690
  570TIP3    H1 1651   7.589   7.259   4.712
  570TIP3    H2 1652   7.624   7.369   4.614
  571TIP3   OH2 1653   6.881   0.931   6.079
  571TIP3    H1 1654   6.861   1.018   6.046
  571TIP3    H2 1655   6.836   0.871   6.020
  572TIP3   OH2 1656   6.555   6.566   2.586
  572TIP3    H1 1657   6.571   6.600   2.498
  572TIP3    H2 1658   6.636   6.522   2.611
  573TIP3   OH2 1659   4.579   3.233   2.357
  573TIP3    H1 1660   4.527   3.235   2.277
  573TIP3    H2 1661   4.641   3.162   2.344
  574TIP3   OH2 1662   5.378   4.302   3.167
  574TIP3    H1 1663   5.368   4.208   3.183
  574TIP3    H2 1664   5.384   4.309   3.072
  575TIP3   OH2 1665   3.899   3.896   6.639
  575TIP3    H1 1666   3.873   3.804   6.638
  575TIP3    H2 1667   3.942   3.910   6.555
  576TIP3   OH2 1668   4.142   6.329   5.087
  576TIP3    H1 1669   4.196   6.309   5.010
  576TIP3    H2 1670   4.136   6.424   5.088
  577TIP3   OH2 1671   6.565   5.938   0.958
  577TIP3    H1 1672   6.476   5.944   0.922
  577TIP3    H2 1673   6.568   6.007   1.024
  578TIP3   OH2 1674   0.949   1.047   6.498
  578TIP3    H1 1675   0.966   1.052   6.404
  578TIP3    H2 1676   0.966   1.136   6.530
  579TIP3   OH2 1677   3.131   1.032   4.510
  579TIP3    H1 1678   3.225   1.014   4.506
  579TIP3    H2 1679   3.124   1.109   4.566
  580TIP3   OH2 1680   4.551   3.770   4.596
  580TIP3    H1 1681   4.557   3.754   4.690
  580TIP3    H2 1682   4.501   3.852   4.588
  581TIP3   OH2 1683   2.986   2.369   4.079
  581TIP3    H1 1684   2.973   2.295   4.020
  581TIP3    H2 1685   3.078   2.394   4.066
  582TIP3   OH2 1686   3.713   2.809   3.659
  582TIP3    H1 1687   3.640   2.749   3.646
  582TIP3    H2 1688   3.698   2.879   3.596
  583TIP3   OH2 1689   0.235   3.627   0.406
  583TIP3    H1 1690   0.197   3.545   0.437
  583TIP3    H2 1691   0.242   3.682   0.484
  584TIP3   OH2 1692   4.879   3.497   2.158
  584TIP3    H1 1693   4.884   3.402   2.145
  584TIP3    H2 1694   4.956   3.531   2.114
  585TIP3   OH2 1695   1.856   6.910   3.183
  585TIP3    H1 1696   1.788   6.959   3.229
  585TIP3    H2 1697   1.822   6.821   3.177
  586TIP3   OH2 1698   2.113   6.006   0.168
  586TIP3    H1 1699   2.161   5.923   0.173
  586TIP3    H2 1700   2.177   6.068   0.131
  587TIP3   OH2 1701   1.803   5.338   4.736
  587TIP3    H1 1702   1.735   5.272   4.748
  587TIP3    H2 1703   1.847   5.312   4.655
  588TIP3   OH2 1704   6.889   0.328   4.976
  588TIP3    H1 1705   6.956   0.275   4.932
  588TIP3    H2 1706   6.841   0.369   4.904
  589TIP3   OH2 1707   1.725   3.860   4.021
  589TIP3    H1 1708   1.738   3.906   4.104
  589TIP3    H2 1709   1.813   3.857   3.982
  590TIP3   OH2 1710   7.878   4.254   0.724
  590TIP3    H1 1711   7.895   4.249   0.818
  590TIP3    H2 1712   7.791   4.215   0.713
  591TIP3   OH2 1713   4.289   3.607   3.326
  591TIP3    H1 1714   4.333   3.674   3.273
  591TIP3    H2 1715   4.237   3.657   3.388
  592TIP3   OH2 1716   1.031   6.848   2.372
  592TIP3    H1 1717   0.989   6.883   2.451
  592TIP3    H2 1718   1.085   6.776   2.404
  593TIP3   OH2 1719   2.817   5.374   0.880
  593TIP3    H1 1720   2.771   5.364   0.796
  593TIP3    H2 1721   2.906   5.399   0.856
  594TIP3   OH2 1722   0.841   5.957   4.523
  594TIP3    H1 1723   0.902   5.885   4.515
  594TIP3    H2 1724   0.887   6.033   4.487
  595TIP3   OH2 1725   5.218   5.844   1.445
  595TIP3    H1 1726   5.240   5.800   1.363
  595TIP3    H2 1727   5.137   5.891   1.427
  596TIP3   OH2 1728   7.526   6.450   0.996
  596TIP3    H1 1729   7.512   6.542   1.020
  596TIP3    H2 1730   7.459   6.433   0.930
  597TIP3   OH2 1731   2.417   2.149   5.590
  597TIP3    H1 1732   2.479   2.151   5.664
  597TIP3    H2 1733   2.472   2.129   5.514
  598TIP3   OH2 1734   1.252   1.248   4.738
  598TIP3    H1 1735   1.194   1.187   4.783
  598TIP3    H2 1736   1.211   1.261   4.653
  599TIP3   OH2 1737   3.047   4.487   6.081
  599TIP3    H1 1738   3.036   4.428   6.156
  599TIP3    H2 1739   3.002   4.443   6.009
  600TIP3   OH2 1740   7.281   0.572   6.354
  600TIP3    H1 1741   7.319   0.554   6.268
  600TIP3    H2 1742   7.195   0.531   6.351
  601TIP3   OH2 1743   0.029   6.043   6.618
  601TIP3    H1 1744   0.052   5.960   6.662
  601TIP3    H2 1745   0.113   6.089   6.610
  602TIP3   OH2 1746   4.373   5.172   6.133
  602TIP3    H1 1747   4.342   5.250   6.087
  602TIP3    H2 1748   4.469   5.176   6.124
  603TIP3   OH2 1749   2.700   4.100   5.013
  603TIP3    H1 1750   2.654   4.145   4.942
  603TIP3    H2 1751   2.631   4.066   5.069
  604TIP3   OH2 1752   2.342   7.441   5.741
  604TIP3    H1 1753   2.428   7.478   5.720
  604TIP3    H2 1754   2.347   7.350   5.713
  605TIP3   OH2 1755   7.785   2.550   5.085
  605TIP3    H1 1756   7.722   2.478   5.086
  605TIP3    H2 1757   7.854   2.521   5.025
  606TIP3   OH2 1758   6.373   4.881   0.785
  606TIP3    H1 1759   6.411   4.966   0.763
  606TIP3    H2 1760   6.343   4.846   0.701
  607TIP3   OH2 1761   5.639   2.536   4.040
  607TIP3    H1 1762   5.556   2.498   4.014
  607TIP3    H2 1763   5.668   2.483   4.114
  608TIP3   OH2 1764   7.085   2.644   6.485
  608TIP3    H1 1765   6.995   2.615   6.502
  608TIP3    H2 1766   7.123   2.575   6.432
  609TIP3   OH2 1767   4.691   0.128   4.724
  609TIP3    H1 1768   4.678   0.217   4.759
  609TIP3    H2 1769   4.613   0.113   4.670
  610TIP3   OH2 1770   7.129   4.761   6.420
  610TIP3    H1 1771   7.174   4.685   6.455
  610TIP3    H2 1772   7.052   4.771   6.476
  611TIP3   OH2 1773   1.009   4.304   6.638
  611TIP3    H1 1774   1.037   4.379   6.689
  611TIP3    H2 1775   0.952   4.254   6.697
  612TIP3   OH2 1776   1.586   0.406   1.508
  612TIP3    H1 1777   1.603   0.469   1.577
  612TIP3    H2 1778   1.631   0.441   1.431
  613TIP3   OH2 1779   5.312   4.659   5.779
  613TIP3    H1 1780   5.356   4.581   5.745
  613TIP3    H2 1781   5.308   4.644   5.873
  614TIP3   OH2 1782   0.258   2.106   1.837
  614TIP3    H1 1783   0.217   2.133   1.919
  614TIP3    H2 1784   0.199   2.137   1.769
  615TIP3   OH2 1785   7.724   0.504   4.693
  615TIP3    H1 1786   7.757   0.591   4.671
  615TIP3    H2 1787   7.637   0.500   4.655
  616TIP3   OH2 1788   4.098   1.437   1.907
  616TIP3    H1 1789   4.110   1.387   1.988
  616TIP3    H2 1790   4.147   1.387   1.841
  617TIP3   OH2 1791   2.263   3.458   5.454
  617TIP3    H1 1792   2.226   3.372   5.439
  617TIP3    H2 1793   2.189   3.512   5.481
  618TIP3   OH2 1794   1.823   7.416   3.871
  618TIP3    H1 1795   1.778   7.447   3.950
  618TIP3    H2 1796   1.858   7.330   3.895
  619TIP3   OH2 1797   4.709   7.414   0.780
  619TIP3    H1 1798   4.706   7.360   0.701
  619TIP3    H2 1799   4.655   7.490   0.758
  620TIP3   OH2 1800   3.910   3.622   4.094
  620TIP3    H1 1801   3.832   3.567   4.086
  620TIP3    H2 1802   3.979   3.573   4.048
  621TIP3   OH2 1803   2.756   3.815   2.022
  621TIP3    H1 1804   2.739   3.779   2.109
  621TIP3    H2 1805   2.828   3.763   1.987
  622TIP3   OH2 1806   5.892   5.412   2.732
  622TIP3    H1 1807   5.864   5.411   2.640
  622TIP3    H2 1808   5.987   5.427   2.727
  623TIP3   OH2 1809   3.123   4.854   3.547
  623TIP3    H1 1810   3.055   4.892   3.602
  623TIP3    H2 1811   3.197   4.913   3.554
  624TIP3   OH2 1812   4.048   3.351   3.375
  624TIP3    H1 1813   4.049   3.374   3.282
  624TIP3    H2 1814   4.072   3.432   3.420
  625TIP3   OH2 1815   8.394   5.109   4.584
  625TIP3    H1 1816   8.438   5.074   4.662
  625TIP3    H2 1817   8.426   5.054   4.512
  626TIP3   OH2 1818   7.190   4.426   4.738
  626TIP3    H1 1819   7.181   4.426   4.833
  626TIP3    H2 1820   7.155   4.341   4.711
  627TIP3   OH2 1821   5.893   1.961   5.125
  627TIP3    H1 1822   5.965   2.017   5.094
  627TIP3    H2 1823   5.840   2.018   5.180
  628TIP3   OH2 1824   0.515   0.050   0.971
  628TIP3    H1 1825   0.591   0.076   0.918
  628TIP3    H2 1826   0.440   0.088   0.925
  629TIP3   OH2 1827   8.180   4.867   6.465
  629TIP3    H1 1828   8.230   4.846   6.386
  629TIP3    H2 1829   8.125   4.941   6.439
  630TIP3   OH2 1830   4.009   0.770   1.228
  630TIP3    H1 1831   4.052   0.717   1.161
  630TIP3    H2 1832   3.916   0.760   1.211
  631TIP3   OH2 1833   3.252   0.485   0.183
  631TIP3    H1 1834   3.313   0.484   0.110
  631TIP3    H2 1835   3.173   0.444   0.149
  632TIP3   OH2 1836   1.047   2.453   4.877
  632TIP3    H1 1837   1.082   2.366   4.896
  632TIP3    H2 1838   1.096   2.512   4.935
  633TIP3   OH2 1839   3.442   4.637   2.719
  633TIP3    H1 1840   3.362   4.587   2.736
  633TIP3    H2 1841   3.444   4.704   2.788
  634TIP3   OH2 1842   6.980   0.799   2.648
  634TIP3    H1 1843   7.036   0.870   2.617
  634TIP3    H2 1844   6.966   0.817   2.741
  635TIP3   OH2 1845   0.364   3.014   0.988
  635TIP3    H1 1846   0.447   2.974   1.015
  635TIP3    H2 1847   0.374   3.107   1.011
  636TIP3   OH2 1848   6.566   4.702   2.104
  636TIP3    H1 1849   6.523   4.721   2.021
  636TIP3    H2 1850   6.639   4.645   2.080
  637TIP3   OH2 1851   2.295   0.034   6.341
  637TIP3    H1 1852   2.254  -0.027   6.403
  637TIP3    H2 1853   2.305  -0.017   6.261
  638TIP3   OH2 1854   6.624   3.476   6.034
  638TIP3    H1 1855   6.584   3.432   5.959
  638TIP3    H2 1856   6.610   3.569   6.018
  639TIP3   OH2 1857   7.551   6.069   0.399
  639TIP3    H1 1858   7.463   6.037   0.418
  639TIP3    H2 1859   7.592   6.079   0.484
  640TIP3   OH2 1860   0.424   4.561   4.901
  640TIP3    H1 1861   0.493   4.535   4.840
  640TIP3    H2 1862   0.406   4.653   4.880
  641TIP3   OH2 1863   5.766   3.806   5.495
  641TIP3    H1 1864   5.755   3.834   5.404
  641TIP3    H2 1865   5.726   3.875   5.547
  642TIP3   OH2 1866   6.395   5.100   4.720
  642TIP3    H1 1867   6.461   5.124   4.656
  642TIP3    H2 1868   6.442   5.044   4.783
  643TIP3   OH2 1869   4.365   4.181   4.968
  643TIP3    H1 1870   4.444   4.184   5.022
  643TIP3    H2 1871   4.352   4.089   4.948
  644TIP3   OH2 1872   3.458   0.313   6.207
  644TIP3    H1 1873   3.481   0.396   6.248
  644TIP3    H2 1874   3.497   0.318   6.120
  645TIP3   OH2 1875   5.300   2.257   5.324
  645TIP3    H1 1876   5.324   2.299   5.241
  645TIP3    H2 1877   5.375   2.272   5.381
  646TIP3   OH2 1878   1.993   5.024   5.122
  646TIP3    H1 1879   2.060   4.957   5.140
  646TIP3    H2 1880   2.042   5.106   5.118
  647TIP3   OH2 1881   1.765   6.269   2.508
  647TIP3    H1 1882   1.851   6.250   2.471
  647TIP3    H2 1883   1.704   6.225   2.449
  648TIP3   OH2 1884   6.847   7.416   6.681
  648TIP3    H1 1885   6.805   7.342   6.639
  648TIP3    H2 1886   6.931   7.425   6.636
  649TIP3   OH2 1887   0.995   1.600   0.116
  649TIP3    H1 1888   0.985   1.543   0.040
  649TIP3    H2 1889   0.926   1.571   0.176
  650TIP3   OH2 1890   6.983   6.642   5.737
  650TIP3    H1 1891   6.984   6.716   5.797
  650TIP3    H2 1892   7.071   6.640   5.700
  651TIP3   OH2 1893   4.342   5.077   4.979
  651TIP3    H1 1894   4.435   5.055   4.990
  651TIP3    H2 1895   4.343   5.158   4.928
  652TIP3   OH2 1896   4.766   1.748   6.333
  652TIP3    H1 1897   4.783   1.784   6.246
  652TIP3    H2 1898   4.788   1.819   6.393
  653TIP3   OH2 1899   3.261   0.844   6.303
  653TIP3    H1 1900   3.268   0.818   6.395
  653TIP3    H2 1901   3.317   0.921   6.295
  654TIP3   OH2 1902   1.251   7.161   2.628
  654TIP3    H1 1903   1.231   7.248   2.662
  654TIP3    H2 1904   1.325   7.131   2.681
  655TIP3   OH2 1905   2.781   4.158   1.264
  655TIP3    H1 1906   2.771   4.253   1.268
  655TIP3    H2 1907   2.836   4.143   1.187
  656TIP3   OH2 1908   7.402   4.193   6.502
  656TIP3    H1 1909   7.386   4.100   6.482
  656TIP3    H2 1910   7.456   4.224   6.429
  657TIP3   OH2 1911   2.334   3.313   2.080
  657TIP3    H1 1912   2.257   3.296   2.134
  657TIP3    H2 1913   2.310   3.280   1.993
  658TIP3   OH2 1914   1.385   7.660   3.059
  658TIP3    H1 1915   1.326   7.735   3.048
  658TIP3    H2 1916   1.378   7.638   3.152
  659TIP3   OH2 1917   5.646   7.147   6.482
  659TIP3    H1 1918   5.580   7.170   6.417
  659TIP3    H2 1919   5.647   7.051   6.482
  660TIP3   OH2 1920   3.283   3.226   1.999
  660TIP3    H1 1921   3.232   3.147   1.981
  660TIP3    H2 1922   3.294   3.226   2.094
  661TIP3   OH2 1923   3.734   2.391   6.118
  661TIP3    H1 1924   3.666   2.328   6.092
  661TIP3    H2 1925   3.799   2.338   6.164
  662TIP3   OH2 1926   3.791   1.944   3.939
  662TIP3    H1 1927   3.805   2.034   3.969
  662TIP3    H2 1928   3.704   1.945   3.899
  663TIP3   OH2 1929   1.203   1.526   3.602
  663TIP3    H1 1930   1.158   1.610   3.592
  663TIP3    H2 1931   1.296   1.548   3.596
  664TIP3   OH2 1932   1.990   4.462   0.446
  664TIP3    H1 1933   1.963   4.511   0.524
  664TIP3    H2 1934   2.012   4.530   0.382
  665TIP3   OH2 1935   8.370   3.578   4.625
  665TIP3    H1 1936   8.317   3.515   4.577
  665TIP3    H2 1937   8.336   3.663   4.598
  666TIP3   OH2 1938   5.134   1.061   6.274
  666TIP3    H1 1939   5.122   1.098   6.187
  666TIP3    H2 1940   5.068   1.106   6.328
  667TIP3   OH2 1941   6.905   4.092   5.309
  667TIP3    H1 1942   6.856   4.038   5.248
  667TIP3    H2 1943   6.849   4.168   5.325
  668TIP3   OH2 1944   6.419   4.799   6.384
  668TIP3    H1 1945   6.377   4.826   6.302
  668TIP3    H2 1946   6.399   4.870   6.445
  669TIP3   OH2 1947   8.252   2.251   1.564
  669TIP3    H1 1948   8.207   2.289   1.639
  669TIP3    H2 1949   8.237   2.312   1.492
  670TIP3   OH2 1950   2.463   5.504   2.704
  670TIP3    H1 1951   2.427   5.514   2.615
  670TIP3    H2 1952   2.388   5.520   2.762
  671TIP3   OH2 1953   6.814   5.646   1.529
  671TIP3    H1 1954   6.823   5.682   1.617
  671TIP3    H2 1955   6.758   5.569   1.540
  672TIP3   OH2 1956   1.442   3.254   5.696
  672TIP3    H1 1957   1.467   3.189   5.630
  672TIP3    H2 1958   1.427   3.334   5.646
  673TIP3   OH2 1959   3.624   1.939   1.159
  673TIP3    H1 1960   3.664   1.860   1.122
  673TIP3    H2 1961   3.655   2.010   1.103
  674TIP3   OH2 1962   2.887   3.228   5.034
  674TIP3    H1 1963   2.948   3.298   5.058
  674TIP3    H2 1964   2.940   3.148   5.041
  675TIP3   OH2 1965   0.912   5.614   6.776
  675TIP3    H1 1966   0.984   5.551   6.783
  675TIP3    H2 1967   0.918   5.666   6.857
  676TIP3   OH2 1968   7.317   0.090   1.704
  676TIP3    H1 1969   7.346   0.169   1.749
  676TIP3    H2 1970   7.222   0.090   1.716
  677TIP3   OH2 1971   6.595   6.296   2.955
  677TIP3    H1 1972   6.577   6.389   2.944
  677TIP3    H2 1973   6.615   6.265   2.867
  678TIP3   OH2 1974   5.037   5.878   5.399
  678TIP3    H1 1975   4.968   5.874   5.465
  678TIP3    H2 1976   5.109   5.828   5.437
  679TIP3   OH2 1977   0.969   4.339   5.770
  679TIP3    H1 1978   0.951   4.427   5.738
  679TIP3    H2 1979   0.890   4.314   5.817
  680TIP3   OH2 1980   3.175   0.623   4.755
  680TIP3    H1 1981   3.202   0.654   4.842
  680TIP3    H2 1982   3.232   0.547   4.738
  681TIP3   OH2 1983   5.411   4.153   0.067
  681TIP3    H1 1984   5.386   4.094   0.137
  681TIP3    H2 1985   5.332   4.205   0.050
  682TIP3   OH2 1986   5.967   7.306   5.359
  682TIP3    H1 1987   6.010   7.352   5.287
  682TIP3    H2 1988   5.979   7.213   5.338
  683TIP3   OH2 1989   6.580   6.733   5.919
  683TIP3    H1 1990   6.572   6.639   5.933
  683TIP3    H2 1991   6.665   6.756   5.957
  684TIP3   OH2 1992   4.335   6.583   1.627
  684TIP3    H1 1993   4.299   6.621   1.707
  684TIP3    H2 1994   4.274   6.513   1.603
  685TIP3   OH2 1995   5.819   1.173   6.522
  685TIP3    H1 1996   5.873   1.125   6.585
  685TIP3    H2 1997   5.747   1.208   6.574
  686TIP3   OH2 1998   6.681   7.267   4.840
  686TIP3    H1 1999   6.760   7.216   4.823
  686TIP3    H2 2000   6.691   7.345   4.785
  687TIP3   OH2 2001   2.048   0.468   0.696
  687TIP3    H1 2002   2.115   0.520   0.652
  687TIP3    H2 2003   2.055   0.494   0.788
  688TIP3   OH2 2004   2.493   0.464   1.332
  688TIP3    H1 2005   2.428   0.502   1.390
  688TIP3    H2 2006   2.535   0.395   1.384
  689TIP3   OH2 2007   4.709   4.345   1.787
  689TIP3    H1 2008   4.790   4.321   1.742
  689TIP3    H2 2009   4.733   4.421   1.840
  690TIP3   OH2 2010   7.114   7.256   5.072
  690TIP3    H1 2011   7.152   7.299   4.995
  690TIP3    H2 2012   7.133   7.316   5.144
  691TIP3   OH2 2013   3.072   2.289   5.207
  691TIP3    H1 2014   3.019   2.276   5.128
  691TIP3    H2 2015   3.030   2.234   5.273
  692TIP3   OH2 2016   0.363   1.888   3.288
  692TIP3    H1 2017   0.454   1.860   3.278
  692TIP3    H2 2018   0.364   1.981   3.266
  693TIP3   OH2 2019   4.122   0.342   1.801
  693TIP3    H1 2020   4.034   0.374   1.779
  693TIP3    H2 2021   4.107   0.262   1.850
  694TIP3   OH2 2022   7.330   3.450   0.443
  694TIP3    H1 2023   7.364   3.515   0.504
  694TIP3    H2 2024   7.330   3.368   0.492
  695TIP3   OH2 2025   2.830   1.238   2.539
  695TIP3    H1 2026   2.854   1.146   2.531
  695TIP3    H2 2027   2.836   1.256   2.633
  696TIP3   OH2 2028   4.790   1.639   6.685
  696TIP3    H1 2029   4.864   1.592   6.647
  696TIP3    H2 2030   4.743   1.572   6.735
  697TIP3   OH2 2031   4.628   6.153   2.361
  697TIP3    H1 2032   4.721   6.173   2.369
  697TIP3    H2 2033   4.626   6.062   2.332
  698TIP3   OH2 2034   6.383   6.250   4.359
  698TIP3    H1 2035   6.417   6.161   4.362
  698TIP3    H2 2036   6.455   6.306   4.387
  699TIP3   OH2 2037   4.530   1.103   6.667
  699TIP3    H1 2038   4.471   1.087   6.740
  699TIP3    H2 2039   4.606   1.145   6.706
  700TIP3   OH2 2040   7.437   3.379   2.846
  700TIP3    H1 2041   7.415   3.347   2.758
  700TIP3    H2 2042   7.357   3.422   2.876
  701TIP3   OH2 2043   1.050   1.446   1.593
  701TIP3    H1 2044   0.991   1.391   1.541
  701TIP3    H2 2045   1.101   1.495   1.528
  702TIP3   OH2 2046   3.890   2.411   0.798
  702TIP3    H1 2047   3.888   2.316   0.787
  702TIP3    H2 2048   3.914   2.423   0.890
  703TIP3   OH2 2049   7.694   6.204   3.592
  703TIP3    H1 2050   7.659   6.208   3.503
  703TIP3    H2 2051   7.622   6.167   3.644
  704TIP3   OH2 2052   6.568   4.897   3.890
  704TIP3    H1 2053   6.484   4.865   3.857
  704TIP3    H2 2054   6.607   4.942   3.815
  705TIP3   OH2 2055   7.322   4.808   3.256
  705TIP3    H1 2056   7.261   4.878   3.234
  705TIP3    H2 2057   7.409   4.850   3.254
  706TIP3   OH2 2058   0.555   2.119   5.953
  706TIP3    H1 2059   0.537   2.154   6.040
  706TIP3    H2 2060   0.650   2.126   5.943
  707TIP3   OH2 2061   1.972   1.031   4.415
  707TIP3    H1 2062   2.054   1.077   4.395
  707TIP3    H2 2063   1.908   1.068   4.355
  708TIP3   OH2 2064   6.370   0.646   0.935
  708TIP3    H1 2065   6.276   0.646   0.922
  708TIP3    H2 2066   6.384   0.587   1.009
  709TIP3   OH2 2067   6.925   2.312   2.276
  709TIP3    H1 2068   6.841   2.280   2.243
  709TIP3    H2 2069   6.904   2.393   2.323
  710TIP3   OH2 2070   2.566   7.879   2.205
  710TIP3    H1 2071   2.488   7.833   2.235
  710TIP3    H2 2072   2.631   7.862   2.273
  711TIP3   OH2 2073   8.137   3.639   3.775
  711TIP3    H1 2074   8.074   3.593   3.720
  711TIP3    H2 2075   8.087   3.712   3.813
  712TIP3   OH2 2076   3.171   2.411   3.725
  712TIP3    H1 2077   3.205   2.381   3.641
  712TIP3    H2 2078   3.176   2.507   3.720
  713TIP3   OH2 2079   4.901   4.228   1.624
  713TIP3    H1 2080   4.937   4.167   1.689
  713TIP3    H2 2081   4.978   4.275   1.591
  714TIP3   OH2 2082   7.671   0.940   5.597
  714TIP3    H1 2083   7.592   0.994   5.603
  714TIP3    H2 2084   7.649   0.860   5.646
  715TIP3   OH2 2085   3.287   3.384   1.138
  715TIP3    H1 2086   3.380   3.384   1.118
  715TIP3    H2 2087   3.276   3.451   1.205
  716TIP3   OH2 2088   0.510   2.441   6.410
  716TIP3    H1 2089   0.515   2.511   6.474
  716TIP3    H2 2090   0.601   2.417   6.393
  717TIP3   OH2 2091   5.452   6.061   2.307
  717TIP3    H1 2092   5.428   6.084   2.218
  717TIP3    H2 2093   5.545   6.081   2.314
  718TIP3   OH2 2094   4.474   3.148   2.117
  718TIP3    H1 2095   4.456   3.055   2.131
  718TIP3    H2 2096   4.538   3.150   2.046
  719TIP3   OH2 2097   6.466   6.170   3.689
  719TIP3    H1 2098   6.538   6.107   3.695
  719TIP3    H2 2099   6.440   6.185   3.780
  720TIP3   OH2 2100   1.342   4.797   4.113
  720TIP3    H1 2101   1.342   4.701   4.117
  720TIP3    H2 2102   1.289   4.818   4.037
  721TIP3   OH2 2103   3.045   7.287   1.484
  721TIP3    H1 2104   3.125   7.300   1.434
  721TIP3    H2 2105   3.070   7.307   1.574
  722TIP3   OH2 2106   6.780   2.247   0.663
  722TIP3    H1 2107   6.821   2.245   0.577
  722TIP3    H2 2108   6.796   2.336   0.695
  723TIP3   OH2 2109   3.530   0.797   4.263
  723TIP3    H1 2110   3.570   0.880   4.291
  723TIP3    H2 2111   3.478   0.821   4.186
  724TIP3   OH2 2112   0.212   3.631   1.108
  724TIP3    H1 2113   0.221   3.627   1.204
  724TIP3    H2 2114   0.239   3.720   1.085
  725TIP3   OH2 2115   2.853   4.747   0.875
  725TIP3    H1 2116   2.762   4.725   0.856
  725TIP3    H2 2117   2.848   4.820   0.938
  726TIP3   OH2 2118   6.950   3.189   3.765
  726TIP3    H1 2119   7.044   3.206   3.773
  726TIP3    H2 2120   6.921   3.250   3.697
  727TIP3   OH2 2121   1.565   0.109   6.383
  727TIP3    H1 2122   1.546   0.015   6.381
  727TIP3    H2 2123   1.509   0.143   6.453
  728TIP3   OH2 2124   4.698   0.493   0.346
  728TIP3    H1 2125   4.627   0.554   0.329
  728TIP3    H2 2126   4.661   0.407   0.325
  729TIP3   OH2 2127   2.059   7.112   6.350
  729TIP3    H1 2128   1.974   7.074   6.372
  729TIP3    H2 2129   2.041   7.206   6.339
  730TIP3   OH2 2130   5.504   3.861   4.047
  730TIP3    H1 2131   5.565   3.905   3.989
  730TIP3    H2 2132   5.557   3.832   4.121
  731TIP3   OH2 2133   5.062   0.579   6.230
  731TIP3    H1 2134   5.146   0.624   6.234
  731TIP3    H2 2135   5.043   0.556   6.321
  732TIP3   OH2 2136   0.461   2.932   5.360
  732TIP3    H1 2137   0.481   2.945   5.267
  732TIP3    H2 2138   0.385   2.989   5.376
  733TIP3   OH2 2139   7.557   4.519   6.174
  733TIP3    H1 2140   7.617   4.574   6.124
  733TIP3    H2 2141   7.574   4.542   6.265
  734TIP3   OH2 2142   4.200   5.984   0.222
  734TIP3    H1 2143   4.171   5.904   0.178
  734TIP3    H2 2144   4.157   6.055   0.176
  735TIP3   OH2 2145   2.349   6.750   1.630
  735TIP3    H1 2146   2.287   6.818   1.604
  735TIP3    H2 2147   2.430   6.798   1.651
  736TIP3   OH2 2148   4.029   4.240   3.562
  736TIP3    H1 2149   4.006   4.298   3.634
  736TIP3    H2 2150   4.113   4.201   3.588
  737TIP3   OH2 2151   4.180   3.083   5.098
  737TIP3    H1 2152   4.140   3.054   5.016
  737TIP3    H2 2153   4.264   3.119   5.071
  738TIP3   OH2 2154   3.217   6.829   3.617
  738TIP3    H1 2155   3.145   6.861   3.672
  738TIP3    H2 2156   3.177   6.817   3.531
  739TIP3   OH2 2157   6.615   5.700   1.066
  739TIP3    H1 2158   6.580   5.776   1.019
  739TIP3    H2 2159   6.668   5.737   1.136
  740TIP3   OH2 2160   0.872   0.004   4.757
  740TIP3    H1 2161   0.950   0.057   4.744
  740TIP3    H2 2162   0.809   0.064   4.797
  741TIP3   OH2 2163   3.927   3.348   6.718
  741TIP3    H1 2164   3.877   3.276   6.755
  741TIP3    H2 2165   4.002   3.306   6.675
  742TIP3   OH2 2166   8.040   6.552   3.979
  742TIP3    H1 2167   7.992   6.521   4.056
  742TIP3    H2 2168   8.017   6.644   3.971
  743TIP3   OH2 2169   1.405   0.835   1.900
  743TIP3    H1 2170   1.348   0.779   1.953
  743TIP3    H2 2171   1.492   0.797   1.910
  744TIP3   OH2 2172   7.593   4.400   6.686
  744TIP3    H1 2173   7.663   4.353   6.731
  744TIP3    H2 2174   7.614   4.393   6.593
  745TIP3   OH2 2175   7.122   3.559   1.666
  745TIP3    H1 2176   7.202   3.512   1.693
  745TIP3    H2 2177   7.096   3.609   1.744
  746TIP3   OH2 2178   5.436   6.354   3.808
  746TIP3    H1 2179   5.409   6.330   3.897
  746TIP3    H2 2180   5.394   6.439   3.792
  747TIP3   OH2 2181   3.310   1.007   1.465
  747TIP3    H1 2182   3.324   1.076   1.529
  747TIP3    H2 2183   3.266   1.051   1.392
  748TIP3   OH2 2184   0.015   0.873   4.750
  748TIP3    H1 2185   0.061   0.847   4.830
  748TIP3    H2 2186   0.016   0.969   4.752
  749TIP3   OH2 2187   1.130   3.212   0.712
  749TIP3    H1 2188   1.090   3.143   0.659
  749TIP3    H2 2189   1.057   3.263   0.745
  750TIP3   OH2 2190   6.190   3.504   0.877
  750TIP3    H1 2191   6.224   3.544   0.797
  750TIP3    H2 2192   6.143   3.427   0.846
  751TIP3   OH2 2193   0.011   0.559   1.835
  751TIP3    H1 2194   0.035   0.466   1.836
  751TIP3    H2 2195   0.062   0.598   1.906
  752TIP3   OH2 2196   5.652   3.239   4.240
  752TIP3    H1 2197   5.586   3.203   4.299
  752TIP3    H2 2198   5.607   3.249   4.156
  753TIP3   OH2 2199   7.351   3.111   2.931
  753TIP3    H1 2200   7.258   3.091   2.929
  753TIP3    H2 2201   7.356   3.206   2.917
  754TIP3   OH2 2202   2.413   5.860   4.174
  754TIP3    H1 2203   2.397   5.935   4.117
  754TIP3    H2 2204   2.325   5.828   4.197
  755TIP3   OH2 2205   0.992   3.458   2.887
  755TIP3    H1 2206   0.955   3.412   2.812
  755TIP3    H2 2207   1.025   3.389   2.944
  756TIP3   OH2 2208   8.382   6.625   4.692
  756TIP3    H1 2209   8.382   6.542   4.739
  756TIP3    H2 2210   8.323   6.682   4.742
  757TIP3   OH2 2211   5.183   3.823   6.421
  757TIP3    H1 2212   5.147   3.792   6.504
  757TIP3    H2 2213   5.107   3.853   6.371
  758TIP3   OH2 2214   7.878   1.005   6.509
  758TIP3    H1 2215   7.949   0.941   6.512
  758TIP3    H2 2216   7.874   1.042   6.597
  759TIP3   OH2 2217   7.353   7.917   1.997
  759TIP3    H1 2218   7.267   7.877   2.004
  759TIP3    H2 2219   7.403   7.858   1.941
  760TIP3   OH2 2220   7.415   3.134   3.647
  760TIP3    H1 2221   7.477   3.115   3.718
  760TIP3    H2 2222   7.469   3.132   3.567
  761TIP3   OH2 2223   3.376   0.867   1.157
  761TIP3    H1 2224   3.363   0.774   1.136
  761TIP3    H2 2225   3.467   0.885   1.133
  762TIP3   OH2 2226   5.993   7.224   5.841
  762TIP3    H1 2227   5.921   7.283   5.865
  762TIP3    H2 2228   5.977   7.145   5.892
  763TIP3   OH2 2229   7.341   4.402   2.893
  763TIP3    H1 2230   7.312   4.324   2.941
  763TIP3    H2 2231   7.391   4.452   2.958
  764TIP3   OH2 2232   2.958   0.665   5.157
  764TIP3    H1 2233   2.916   0.622   5.083
  764TIP3    H2 2234   2.920   0.624   5.235
  765TIP3   OH2 2235   2.285   1.850   3.801
  765TIP3    H1 2236   2.307   1.796   3.725
  765TIP3    H2 2237   2.224   1.796   3.851
  766TIP3   OH2 2238   6.350   7.254   3.441
  766TIP3    H1 2239   6.420   7.236   3.378
  766TIP3    H2 2240   6.285   7.185   3.426
  767TIP3   OH2 2241   3.181   3.201   3.863
  767TIP3    H1 2242   3.148   3.238   3.944
  767TIP3    H2 2243   3.210   3.276   3.812
  768TIP3   OH2 2244   2.314   1.511   2.465
  768TIP3    H1 2245   2.339   1.595   2.502
  768TIP3    H2 2246   2.394   1.458   2.471
  769TIP3   OH2 2247   1.263   3.741   2.773
  769TIP3    H1 2248   1.170   3.732   2.795
  769TIP3    H2 2249   1.266   3.817   2.714
  770TIP3   OH2 2250   7.948   0.719   3.404
  770TIP3    H1 2251   8.013   0.765   3.457
  770TIP3    H2 2252   7.999   0.668   3.342
  771TIP3   OH2 2253   2.976   5.769   2.461
  771TIP3    H1 2254   2.944   5.808   2.380
  771TIP3    H2 2255   3.055   5.819   2.482
  772TIP3   OH2 2256   1.419   2.215   3.548
  772TIP3    H1 2257   1.498   2.206   3.601
  772TIP3    H2 2258   1.417   2.307   3.523
  773TIP3   OH2 2259   1.707   2.338   5.514
  773TIP3    H1 2260   1.735   2.284   5.440
  773TIP3    H2 2261   1.626   2.379   5.485
  774TIP3   OH2 2262   3.573   4.741   1.571
  774TIP3    H1 2263   3.508   4.693   1.520
  774TIP3    H2 2264   3.603   4.677   1.636
  775TIP3   OH2 2265   5.849   6.766   1.947
  775TIP3    H1 2266   5.842   6.688   1.892
  775TIP3    H2 2267   5.908   6.740   2.018
  776TIP3   OH2 2268   0.157   6.710   3.323
  776TIP3    H1 2269   0.201   6.645   3.377
  776TIP3    H2 2270   0.064   6.694   3.337
  777TIP3   OH2 2271   3.637   2.298   2.515
  777TIP3    H1 2272   3.667   2.258   2.433
  777TIP3    H2 2273   3.676   2.385   2.514
  778TIP3   OH2 2274   1.792   3.634   2.534
  778TIP3    H1 2275   1.867   3.675   2.575
  778TIP3    H2 2276   1.808   3.540   2.542
  779TIP3   OH2 2277   5.980   2.707   4.018
  779TIP3    H1 2278   6.053   2.647   4.032
  779TIP3    H2 2279   5.903   2.656   4.044
  780TIP3   OH2 2280   6.279   3.387   4.075
  780TIP3    H1 2281   6.247   3.476   4.091
  780TIP3    H2 2282   6.308   3.388   3.983
  781TIP3   OH2 2283   7.288   5.132   4.868
  781TIP3    H1 2284   7.231   5.132   4.945
  781TIP3    H2 2285   7.232   5.102   4.797
  782TIP3   OH2 2286   0.523   2.209   0.421
  782TIP3    H1 2287   0.471   2.284   0.448
  782TIP3    H2 2288   0.547   2.228   0.331
  783TIP3   OH2 2289   4.178   3.829   4.813
  783TIP3    H1 2290   4.117   3.793   4.748
  783TIP3    H2 2291   4.128   3.830   4.895
  784TIP3   OH2 2292   7.902   6.041   2.819
  784TIP3    H1 2293   7.978   6.015   2.767
  784TIP3    H2 2294   7.893   5.971   2.884
  785TIP3   OH2 2295   1.615   1.753   0.062
  785TIP3    H1 2296   1.682   1.729  -0.002
  785TIP3    H2 2297   1.623   1.687   0.131
  786TIP3   OH2 2298   7.176   0.320   0.255
  786TIP3    H1 2299   7.134   0.271   0.325
  786TIP3    H2 2300   7.269   0.295   0.259
  787TIP3   OH2 2301   1.303   1.983   4.192
  787TIP3    H1 2302   1.264   2.027   4.117
  787TIP3    H2 2303   1.259   1.899   4.197
  788TIP3   OH2 2304   0.251   5.838   5.699
  788TIP3    H1 2305   0.177   5.816   5.755
  788TIP3    H2 2306   0.216   5.837   5.610
  789TIP3   OH2 2307   4.216   3.597   6.076
  789TIP3    H1 2308   4.263   3.536   6.135
  789TIP3    H2 2309   4.128   3.603   6.113
  790TIP3   OH2 2310   1.801   5.118   5.504
  790TIP3    H1 2311   1.854   5.061   5.447
  790TIP3    H2 2312   1.726   5.141   5.450
  791TIP3   OH2 2313   4.636   5.533   1.312
  791TIP3    H1 2314   4.700   5.496   1.252
  791TIP3    H2 2315   4.654   5.627   1.312
  792TIP3   OH2 2316   4.494   2.780   5.989
  792TIP3    H1 2317   4.579   2.823   5.997
  792TIP3    H2 2318   4.515   2.687   5.984
  793TIP3   OH2 2319   5.056   3.819   2.794
  793TIP3    H1 2320   5.036   3.819   2.888
  793TIP3    H2 2321   5.083   3.909   2.776
  794TIP3   OH2 2322   7.847   5.583   4.851
  794TIP3    H1 2323   7.936   5.616   4.861
  794TIP3    H2 2324   7.837   5.568   4.757
  795TIP3   OH2 2325   7.000   6.110   5.374
  795TIP3    H1 2326   6.923   6.133   5.427
  795TIP3    H2 2327   7.053   6.056   5.432
  796TIP3   OH2 2328   7.988   2.864   2.310
  796TIP3    H1 2329   7.943   2.923   2.371
  796TIP3    H2 2330   8.081   2.882   2.323
  797TIP3   OH2 2331   6.405   7.271   6.188
  797TIP3    H1 2332   6.354   7.247   6.111
  797TIP3    H2 2333   6.348   7.330   6.237
  798TIP3   OH2 2334   1.664   4.634   6.254
  798TIP3    H1 2335   1.671   4.667   6.164
  798TIP3    H2 2336   1.571   4.643   6.275
  799TIP3   OH2 2337   6.360   5.157   5.628
  799TIP3    H1 2338   6.392   5.102   5.699
  799TIP3    H2 2339   6.267   5.170   5.647
  800TIP3   OH2 2340   2.320   2.060   5.013
  800TIP3    H1 2341   2.377   2.068   5.090
  800TIP3    H2 2342   2.377   2.081   4.939
  801TIP3   OH2 2343   4.963   1.760   5.906
  801TIP3    H1 2344   4.900   1.692   5.882
  801TIP3    H2 2345   5.046   1.729   5.871
  802TIP3   OH2 2346   0.881   0.858   6.051
  802TIP3    H1 2347   0.795   0.894   6.030
  802TIP3    H2 2348   0.931   0.867   5.970
  803TIP3   OH2 2349   7.553   7.051   2.356
  803TIP3    H1 2350   7.579   7.008   2.437
  803TIP3    H2 2351   7.582   6.992   2.287
  804TIP3   OH2 2352   5.558   2.591   2.632
  804TIP3    H1 2353   5.592   2.606   2.720
  804TIP3    H2 2354   5.534   2.499   2.631
  805TIP3   OH2 2355   0.918   2.944   6.269
  805TIP3    H1 2356   0.939   2.919   6.179
  805TIP3    H2 2357   0.858   2.875   6.299
  806TIP3   OH2 2358   2.586   4.017   5.763
  806TIP3    H1 2359   2.496   4.046   5.748
  806TIP3    H2 2360   2.620   4.000   5.675
  807TIP3   OH2 2361   5.417   6.954   3.953
  807TIP3    H1 2362   5.376   6.978   4.036
  807TIP3    H2 2363   5.507   6.930   3.977
  808TIP3   OH2 2364   7.888   5.937   0.032
  808TIP3    H1 2365   7.851   5.946   0.120
  808TIP3    H2 2366   7.946   6.012   0.022
  809TIP3   OH2 2367   6.275   7.031   1.005
  809TIP3    H1 2368   6.276   6.969   0.932
  809TIP3    H2 2369   6.203   7.002   1.060
  810TIP3   OH2 2370   3.859   1.347   0.761
  810TIP3    H1 2371   3.862   1.428   0.710
  810TIP3    H2 2372   3.945   1.308   0.747
  811TIP3   OH2 2373   7.059   3.665   0.582
  811TIP3    H1 2374   6.973   3.630   0.605
  811TIP3    H2 2375   7.121   3.604   0.622
  812TIP3   OH2 2376   1.869   4.365   4.828
  812TIP3    H1 2377   1.801   4.381   4.894
  812TIP3    H2 2378   1.875   4.447   4.780
  813TIP3   OH2 2379   3.853   2.226   2.704
  813TIP3    H1 2380   3.798   2.269   2.769
  813TIP3    H2 2381   3.800   2.226   2.624
  814TIP3   OH2 2382   1.159   4.091   4.783
  814TIP3    H1 2383   1.137   4.130   4.868
  814TIP3    H2 2384   1.223   4.151   4.745
  815TIP3   OH2 2385   0.291   1.284   5.250
  815TIP3    H1 2386   0.314   1.269   5.341
  815TIP3    H2 2387   0.370   1.262   5.200
  816TIP3   OH2 2388   6.818   7.576   5.649
  816TIP3    H1 2389   6.732   7.615   5.636
  816TIP3    H2 2390   6.851   7.616   5.730
  817TIP3   OH2 2391   6.677   4.778   5.727
  817TIP3    H1 2392   6.734   4.715   5.684
  817TIP3    H2 2393   6.724   4.862   5.721
  818TIP3   OH2 2394   4.717   7.055   0.812
  818TIP3    H1 2395   4.738   7.089   0.899
  818TIP3    H2 2396   4.802   7.035   0.772
  819TIP3   OH2 2397   4.752   1.927   6.657
  819TIP3    H1 2398   4.848   1.921   6.659
  819TIP3    H2 2399   4.722   1.836   6.662
  820TIP3   OH2 2400   8.288   5.669   2.803
  820TIP3    H1 2401   8.329   5.583   2.817
  820TIP3    H2 2402   8.199   5.658   2.836
  821TIP3   OH2 2403   4.931   5.066   5.004
  821TIP3    H1 2404   4.904   5.047   5.094
  821TIP3    H2 2405   4.900   5.155   4.987
  822TIP3   OH2 2406   4.346   0.430   5.280
  822TIP3    H1 2407   4.313   0.520   5.285
  822TIP3    H2 2408   4.295   0.389   5.210
  823TIP3   OH2 2409   3.366   3.526   4.710
  823TIP3    H1 2410   3.366   3.558   4.800
  823TIP3    H2 2411   3.277   3.542   4.679
  824TIP3   OH2 2412   3.621   0.379   1.526
  824TIP3    H1 2413   3.632   0.401   1.433
  824TIP3    H2 2414   3.673   0.300   1.538
  825TIP3   OH2 2415   4.302   4.179   4.041
  825TIP3    H1 2416   4.336   4.266   4.021
  825TIP3    H2 2417   4.368   4.118   4.007
  826TIP3   OH2 2418   6.101   7.143   2.903
  826TIP3    H1 2419   6.087   7.094   2.983
  826TIP3    H2 2420   6.094   7.078   2.833
  827TIP3   OH2 2421   2.669   2.340   4.523
  827TIP3    H1 2422   2.682   2.414   4.584
  827TIP3    H2 2423   2.708   2.370   4.441
  828TIP3   OH2 2424   2.131   0.678   3.799
  828TIP3    H1 2425   2.218   0.638   3.791
  828TIP3    H2 2426   2.119   0.690   3.893
  829TIP3   OH2 2427   0.606   5.045   6.830
  829TIP3    H1 2428   0.632   5.022   6.919
  829TIP3    H2 2429   0.688   5.070   6.787
  830TIP3   OH2 2430   8.011   0.359   6.476
  830TIP3    H1 2431   7.926   0.390   6.505
  830TIP3    H2 2432   8.020   0.272   6.513
  831TIP3   OH2 2433   6.504   0.093   0.191
  831TIP3    H1 2434   6.474   0.090   0.282
  831TIP3    H2 2435   6.531   0.004   0.172
  832TIP3   OH2 2436   2.852   2.758   1.300
  832TIP3    H1 2437   2.873   2.667   1.320
  832TIP3    H2 2438   2.819   2.756   1.210
  833TIP3   OH2 2439   5.304   2.756   6.629
  833TIP3    H1 2440   5.323   2.848   6.651
  833TIP3    H2 2441   5.387   2.722   6.596
  834TIP3   OH2 2442   1.038   7.391   0.579
  834TIP3    H1 2443   0.950   7.378   0.543
  834TIP3    H2 2444   1.084   7.309   0.559
  835TIP3   OH2 2445   5.290   4.899   3.942
  835TIP3    H1 2446   5.363   4.889   3.881
  835TIP3    H2 2447   5.310   4.981   3.988
  836TIP3   OH2 2448   5.917   4.821   1.809
  836TIP3    H1 2449   5.906   4.807   1.903
  836TIP3    H2 2450   5.862   4.755   1.768
  837TIP3   OH2 2451   6.707   6.698   0.569
  837TIP3    H1 2452   6.625   6.673   0.610
  837TIP3    H2 2453   6.689   6.784   0.531
  838TIP3   OH2 2454   3.892   6.291   1.099
  838TIP3    H1 2455   3.978   6.323   1.126
  838TIP3    H2 2456   3.907   6.199   1.075
  839TIP3   OH2 2457   7.277   2.791   3.078
  839TIP3    H1 2458   7.295   2.830   3.164
  839TIP3    H2 2459   7.223   2.857   3.033
  840TIP3   OH2 2460   4.595   1.301   0.029
  840TIP3    H1 2461   4.538   1.272  -0.041
  840TIP3    H2 2462   4.615   1.222   0.079
  841TIP3   OH2 2463   4.487   4.269   3.525
  841TIP3    H1 2464   4.479   4.219   3.606
  841TIP3    H2 2465   4.569   4.238   3.486
  842TIP3   OH2 2466   3.675   6.892   5.690
  842TIP3    H1 2467   3.617   6.921   5.760
  842TIP3    H2 2468   3.753   6.860   5.735
  843TIP3   OH2 2469   2.785   4.399   3.111
  843TIP3    H1 2470   2.734   4.399   3.192
  843TIP3    H2 2471   2.807   4.307   3.097
  844TIP3   OH2 2472   6.921   3.440   0.107
  844TIP3    H1 2473   6.832   3.464   0.134
  844TIP3    H2 2474   6.962   3.404   0.186
  845TIP3   OH2 2475   0.408   5.848   0.816
  845TIP3    H1 2476   0.454   5.764   0.821
  845TIP3    H2 2477   0.471   5.908   0.775
  846TIP3   OH2 2478   0.337   7.878   5.412
  846TIP3    H1 2479   0.242   7.891   5.409
  846TIP3    H2 2480   0.369   7.914   5.329
  847TIP3   OH2 2481   1.791   3.530   4.288
  847TIP3    H1 2482   1.813   3.441   4.261
  847TIP3    H2 2483   1.851   3.586   4.240
  848TIP3   OH2 2484   2.178   0.125   5.752
  848TIP3    H1 2485   2.150   0.133   5.844
  848TIP3    H2 2486   2.250   0.063   5.754
  849TIP3   OH2 2487   7.157   2.297   4.760
  849TIP3    H1 2488   7.124   2.209   4.779
  849TIP3    H2 2489   7.205   2.322   4.838
  850TIP3   OH2 2490   7.616   1.716   6.221
  850TIP3    H1 2491   7.706   1.683   6.219
  850TIP3    H2 2492   7.614   1.781   6.151
  851TIP3   OH2 2493   8.103   6.611   4.545
  851TIP3    H1 2494   8.119   6.517   4.548
  851TIP3    H2 2495   8.154   6.647   4.617
  852TIP3   OH2 2496   5.761   7.263   1.395
  852TIP3    H1 2497   5.790   7.213   1.319
  852TIP3    H2 2498   5.812   7.229   1.468
  853TIP3   OH2 2499   5.924   0.235   1.221
  853TIP3    H1 2500   5.891   0.322   1.202
  853TIP3    H2 2501   5.986   0.248   1.293
  854TIP3   OH2 2502   4.718   5.301   0.401
  854TIP3    H1 2503   4.747   5.316   0.491
  854TIP3    H2 2504   4.674   5.382   0.376
  855TIP3   OH2 2505   5.661   5.661   5.736
  855TIP3    H1 2506   5.568   5.681   5.736
  855TIP3    H2 2507   5.691   5.683   5.648
  856TIP3   OH2 2508   4.734   1.120   1.778
  856TIP3    H1 2509   4.695   1.040   1.744
  856TIP3    H2 2510   4.825   1.096   1.797
  857TIP3   OH2 2511  -0.030   2.609   5.173
  857TIP3    H1 2512  -0.071   2.534   5.128
  857TIP3    H2 2513   0.060   2.610   5.140
  858TIP3   OH2 2514   7.098   3.016   2.993
  858TIP3    H1 2515   7.087   3.026   2.899
  858TIP3    H2 2516   7.010   2.997   3.026
  859TIP3   OH2 2517   1.550   3.611   3.164
  859TIP3    H1 2518   1.566   3.690   3.215
  859TIP3    H2 2519   1.467   3.628   3.118
  860TIP3   OH2 2520   0.296   5.527   5.888
  860TIP3    H1 2521   0.253   5.589   5.947
  860TIP3    H2 2522   0.279   5.561   5.800
  861TIP3   OH2 2523   7.577   3.490   5.501
  861TIP3    H1 2524   7.538   3.464   5.418
  861TIP3    H2 2525   7.504   3.525   5.553
  862TIP3   OH2 2526   5.976   2.942   2.557
  862TIP3    H1 2527   6.046   2.997   2.590
  862TIP3    H2 2528   5.944   2.894   2.634
  863TIP3   OH2 2529   5.940   6.305   6.188
  863TIP3    H1 2530   5.981   6.375   6.239
  863TIP3    H2 2531   5.848   6.330   6.182
  864TIP3   OH2 2532   7.049   7.815   5.428
  864TIP3    H1 2533   7.133   7.856   5.407
  864TIP3    H2 2534   6.985   7.884   5.412
  865TIP3   OH2 2535   4.304   1.383   4.122
  865TIP3    H1 2536   4.269   1.410   4.207
  865TIP3    H2 2537   4.393   1.353   4.142
  866TIP3   OH2 2538   3.407   1.991   0.526
  866TIP3    H1 2539   3.405   1.914   0.470
  866TIP3    H2 2540   3.433   2.062   0.467
  867TIP3   OH2 2541   1.201   3.587   0.377
  867TIP3    H1 2542   1.196   3.643   0.299
  867TIP3    H2 2543   1.143   3.513   0.357
  868TIP3   OH2 2544   3.570   4.659   5.799
  868TIP3    H1 2545   3.580   4.565   5.785
  868TIP3    H2 2546   3.496   4.685   5.744
  869TIP3   OH2 2547   1.751   7.029   2.284
  869TIP3    H1 2548   1.709   7.000   2.365
  869TIP3    H2 2549   1.753   7.125   2.291
  870TIP3   OH2 2550   7.669   6.887   0.133
  870TIP3    H1 2551   7.635   6.814   0.082
  870TIP3    H2 2552   7.678   6.959   0.070
  871TIP3   OH2 2553   3.970   4.108   2.114
  871TIP3    H1 2554   4.048   4.157   2.087
  871TIP3    H2 2555   3.922   4.093   2.033
  872TIP3   OH2 2556   1.355   0.894   2.627
  872TIP3    H1 2557   1.425   0.847   2.584
  872TIP3    H2 2558   1.399   0.961   2.679
  873TIP3   OH2 2559   3.391   0.762   5.567
  873TIP3    H1 2560   3.304   0.721   5.563
  873TIP3    H2 2561   3.442   0.715   5.501
  874TIP3   OH2 2562   2.617   6.917   1.628
  874TIP3    H1 2563   2.602   6.978   1.556
  874TIP3    H2 2564   2.681   6.855   1.594
  875TIP3   OH2 2565   2.988   2.587   0.539
  875TIP3    H1 2566   2.909   2.561   0.586
  875TIP3    H2 2567   2.990   2.530   0.462
  876TIP3   OH2 2568   4.790   7.820   3.206
  876TIP3    H1 2569   4.881   7.838   3.181
  876TIP3    H2 2570   4.762   7.898   3.254
  877TIP3   OH2 2571   0.974   5.120   5.684
  877TIP3    H1 2572   1.009   5.042   5.640
  877TIP3    H2 2573   0.923   5.164   5.616
  878TIP3   OH2 2574   7.807   7.109   5.150
  878TIP3    H1 2575   7.888   7.118   5.201
  878TIP3    H2 2576   7.832   7.132   5.061
  879TIP3   OH2 2577   7.132   6.889   2.090
  879TIP3    H1 2578   7.170   6.954   2.150
  879TIP3    H2 2579   7.053   6.859   2.134
  880TIP3   OH2 2580   1.208   3.355   6.308
  880TIP3    H1 2581   1.129   3.406   6.292
  880TIP3    H2 2582   1.179   3.264   6.308
  881TIP3   OH2 2583   4.803   5.368   3.749
  881TIP3    H1 2584   4.857   5.445   3.728
  881TIP3    H2 2585   4.783   5.378   3.842
  882TIP3   OH2 2586   2.567   4.310   1.051
  882TIP3    H1 2587   2.475   4.316   1.075
  882TIP3    H2 2588   2.608   4.265   1.124
  883TIP3   OH2 2589   4.382   2.928   1.230
  883TIP3    H1 2590   4.375   3.023   1.234
  883TIP3    H2 2591   4.308   2.896   1.281
  884TIP3   OH2 2592   1.963   4.717   1.170
  884TIP3    H1 2593   1.901   4.698   1.100
  884TIP3    H2 2594   2.005   4.799   1.144
  885TIP3   OH2 2595   2.557   7.451   6.115
  885TIP3    H1 2596   2.589   7.429   6.027
  885TIP3    H2 2597   2.630   7.428   6.173
  886TIP3   OH2 2598   6.673   3.697   1.172
  886TIP3    H1 2599   6.583   3.729   1.166
  886TIP3    H2 2600   6.681   3.663   1.261
  887TIP3   OH2 2601   3.130   3.723   5.553
  887TIP3    H1 2602   3.154   3.797   5.498
  887TIP3    H2 2603   3.137   3.756   5.642
  888TIP3   OH2 2604   2.564   2.274   1.135
  888TIP3    H1 2605   2.533   2.192   1.097
  888TIP3    H2 2606   2.484   2.323   1.155
  889TIP3   OH2 2607   8.302   5.567   4.745
  889TIP3    H1 2608   8.342   5.516   4.674
  889TIP3    H2 2609   8.260   5.501   4.801
  890TIP3   OH2 2610   6.116   6.030   4.885
  890TIP3    H1 2611   6.200   6.011   4.928
  890TIP3    H2 2612   6.133   6.014   4.792
  891TIP3   OH2 2613   3.292   3.833   5.986
  891TIP3    H1 2614   3.352   3.837   6.060
  891TIP3    H2 2615   3.334   3.772   5.925
  892TIP3   OH2 2616   6.007   2.584   6.516
  892TIP3    H1 2617   6.039   2.495   6.530
  892TIP3    H2 2618   5.960   2.606   6.597
  893TIP3   OH2 2619   7.797   7.051   0.680
  893TIP3    H1 2620   7.750   7.134   0.678
  893TIP3    H2 2621   7.845   7.053   0.764
  894TIP3   OH2 2622   6.406   2.472   3.681
  894TIP3    H1 2623   6.460   2.510   3.750
  894TIP3    H2 2624   6.374   2.390   3.717
  895TIP3   OH2 2625   7.912   6.056   5.384
  895TIP3    H1 2626   7.969   6.112   5.438
  895TIP3    H2 2627   7.852   6.117   5.342
  896TIP3   OH2 2628   8.299   1.208   1.708
  896TIP3    H1 2629   8.242   1.150   1.657
  896TIP3    H2 2630   8.331   1.152   1.779
  897TIP3   OH2 2631   1.733   1.856   4.383
  897TIP3    H1 2632   1.744   1.815   4.297
  897TIP3    H2 2633   1.639   1.851   4.399
  898TIP3   OH2 2634   6.028   2.258   4.663
  898TIP3    H1 2635   5.957   2.266   4.727
  898TIP3    H2 2636   5.987   2.217   4.587
  899TIP3   OH2 2637   2.758   4.234   2.734
  899TIP3    H1 2638   2.822   4.260   2.667
  899TIP3    H2 2639   2.734   4.144   2.711
  900TIP3   OH2 2640   7.061   0.246   4.332
  900TIP3    H1 2641   7.156   0.243   4.324
  900TIP3    H2 2642   7.044   0.307   4.404
  901TIP3   OH2 2643   1.181   4.910   4.339
  901TIP3    H1 2644   1.192   4.816   4.356
  901TIP3    H2 2645   1.087   4.925   4.346
  902TIP3   OH2 2646   5.619   0.455   4.352
  902TIP3    H1 2647   5.541   0.421   4.307
  902TIP3    H2 2648   5.669   0.499   4.284
  903TIP3   OH2 2649   0.639   7.794   6.034
  903TIP3    H1 2650   0.606   7.883   6.049
  903TIP3    H2 2651   0.705   7.781   6.101
  904TIP3   OH2 2652   1.199   2.757   2.569
  904TIP3    H1 2653   1.224   2.665   2.569
  904TIP3    H2 2654   1.123   2.762   2.626
  905TIP3   OH2 2655   8.295   0.069   2.376
  905TIP3    H1 2656   8.250  -0.005   2.417
  905TIP3    H2 2657   8.377   0.032   2.342
  906TIP3   OH2 2658   3.955   0.565   6.877
  906TIP3    H1 2659   3.901   0.582   6.800
  906TIP3    H2 2660   4.027   0.512   6.844
  907TIP3   OH2 2661   1.982   0.713   1.408
  907TIP3    H1 2662   1.973   0.808   1.409
  907TIP3    H2 2663   1.954   0.685   1.495
  908TIP3   OH2 2664   7.173   6.849   1.650
  908TIP3    H1 2665   7.151   6.782   1.715
  908TIP3    H2 2666   7.135   6.817   1.569
  909TIP3   OH2 2667   4.829   0.445   1.773
  909TIP3    H1 2668   4.872   0.512   1.719
  909TIP3    H2 2669   4.818   0.485   1.859
  910TIP3   OH2 2670   5.371   6.754   6.094
  910TIP3    H1 2671   5.447   6.813   6.094
  910TIP3    H2 2672   5.300   6.805   6.056
  911TIP3   OH2 2673   4.829   3.769   5.170
  911TIP3    H1 2674   4.919   3.742   5.152
  911TIP3    H2 2675   4.834   3.865   5.172
  912TIP3   OH2 2676   6.101   6.019   5.760
  912TIP3    H1 2677   6.104   5.924   5.776
  912TIP3    H2 2678   6.074   6.056   5.844
  913TIP3   OH2 2679   0.885   4.578   3.403
  913TIP3    H1 2680   0.789   4.578   3.397
  913TIP3    H2 2681   0.903   4.623   3.485
  914TIP3   OH2 2682   3.644   7.946   6.257
  914TIP3    H1 2683   3.703   7.965   6.330
  914TIP3    H2 2684   3.684   7.871   6.213
  915TIP3   OH2 2685   7.763   4.700   5.651
  915TIP3    H1 2686   7.690   4.720   5.593
  915TIP3    H2 2687   7.789   4.611   5.628
  916TIP3   OH2 2688   7.544   3.734   4.390
  916TIP3    H1 2689   7.486   3.748   4.316
  916TIP3    H2 2690   7.629   3.768   4.361
  917TIP3   OH2 2691   1.473   6.610   2.873
  917TIP3    H1 2692   1.426   6.620   2.791
  917TIP3    H2 2693   1.443   6.526   2.908
  918TIP3   OH2 2694   4.049   7.687   3.134
  918TIP3    H1 2695   3.984   7.616   3.135
  918TIP3    H2 2696   3.999   7.764   3.108
  919TIP3   OH2 2697   4.948   0.111   3.472
  919TIP3    H1 2698   4.869   0.080   3.429
  919TIP3    H2 2699   5.007   0.035   3.471
  920TIP3   OH2 2700   3.623   7.353   6.262
  920TIP3    H1 2701   3.592   7.325   6.176
  920TIP3    H2 2702   3.545   7.354   6.317
  921TIP3   OH2 2703   5.308   7.407   0.995
  921TIP3    H1 2704   5.368   7.406   0.920
  921TIP3    H2 2705   5.221   7.419   0.955
  922TIP3   OH2 2706   3.328   6.651   0.279
  922TIP3    H1 2707   3.309   6.721   0.216
  922TIP3    H2 2708   3.382   6.693   0.346
  923TIP3   OH2 2709   6.522   5.124   6.697
  923TIP3    H1 2710   6.531   5.057   6.765
  923TIP3    H2 2711   6.607   5.168   6.696
  924TIP3   OH2 2712   2.726   6.409   2.606
  924TIP3    H1 2713   2.784   6.458   2.548
  924TIP3    H2 2714   2.781   6.340   2.642
  925TIP3   OH2 2715   1.786   7.047   4.647
  925TIP3    H1 2716   1.808   6.953   4.647
  925TIP3    H2 2717   1.692   7.049   4.663
  926TIP3   OH2 2718   7.707   5.192   1.720
  926TIP3    H1 2719   7.622   5.181   1.678
  926TIP3    H2 2720   7.691   5.255   1.791
  927TIP3   OH2 2721   7.006   4.172   4.600
  927TIP3    H1 2722   7.058   4.093   4.613
  927TIP3    H2 2723   6.934   4.144   4.544
  928TIP3   OH2 2724   1.801   4.724   0.591
  928TIP3    H1 2725   1.723   4.671   0.575
  928TIP3    H2 2726   1.770   4.814   0.587
  929TIP3   OH2 2727   2.406   5.250   6.030
  929TIP3    H1 2728   2.354   5.329   6.014
  929TIP3    H2 2729   2.344   5.178   6.023
  930TIP3   OH2 2730   5.736   4.445   2.815
  930TIP3    H1 2731   5.783   4.363   2.833
  930TIP3    H2 2732   5.644   4.421   2.818
  931TIP3   OH2 2733   7.117   7.496   3.008
  931TIP3    H1 2734   7.144   7.427   2.948
  931TIP3    H2 2735   7.078   7.450   3.082
  932TIP3   OH2 2736   2.896   5.893   1.555
  932TIP3    H1 2737   2.976   5.885   1.504
  932TIP3    H2 2738   2.913   5.844   1.636
  933TIP3   OH2 2739   6.083   1.361   4.019
  933TIP3    H1 2740   6.102   1.451   4.047
  933TIP3    H2 2741   6.166   1.314   4.027
  934TIP3   OH2 2742   7.673   5.106   2.968
  934TIP3    H1 2743   7.641   5.120   2.879
  934TIP3    H2 2744   7.624   5.168   3.021
  935TIP3   OH2 2745   6.170   0.046   0.597
  935TIP3    H1 2746   6.218  -0.029   0.632
  935TIP3    H2 2747   6.085   0.042   0.642
  936TIP3   OH2 2748   3.543   3.995   2.774
  936TIP3    H1 2749   3.497   4.071   2.811
  936TIP3    H2 2750   3.560   3.938   2.850
  937TIP3   OH2 2751   7.756   7.460   6.666
  937TIP3    H1 2752   7.698   7.418   6.730
  937TIP3    H2 2753   7.703   7.465   6.586
  938TIP3   OH2 2754   0.975   1.920   2.545
  938TIP3    H1 2755   0.921   1.951   2.473
  938TIP3    H2 2756   0.923   1.936   2.624
  939TIP3   OH2 2757   2.218   6.695   0.832
  939TIP3    H1 2758   2.257   6.776   0.798
  939TIP3    H2 2759   2.233   6.630   0.763
  940TIP3   OH2 2760   7.804   5.218   0.597
  940TIP3    H1 2761   7.852   5.144   0.560
  940TIP3    H2 2762   7.854   5.295   0.571
  941TIP3   OH2 2763   6.042   3.067   3.646
  941TIP3    H1 2764   6.108   3.075   3.714
  941TIP3    H2 2765   5.960   3.050   3.693
  942TIP3   OH2 2766   2.452   1.528   4.866
  942TIP3    H1 2767   2.540   1.509   4.899
  942TIP3    H2 2768   2.460   1.612   4.822
  943TIP3   OH2 2769   0.894   7.075   4.422
  943TIP3    H1 2770   0.823   7.012   4.431
  943TIP3    H2 2771   0.949   7.061   4.500
  944TIP3   OH2 2772   1.301   0.129   2.900
  944TIP3    H1 2773   1.371   0.068   2.922
  944TIP3    H2 2774   1.246   0.132   2.978
  945TIP3   OH2 2775   7.904   4.480   6.672
  945TIP3    H1 2776   7.870   4.438   6.593
  945TIP3    H2 2777   7.963   4.415   6.710
  946TIP3   OH2 2778   0.111   3.633   2.607
  946TIP3    H1 2779   0.046   3.594   2.549
  946TIP3    H2 2780   0.195   3.605   2.571
  947TIP3   OH2 2781   7.387   4.559   5.806
  947TIP3    H1 2782   7.363   4.632   5.863
  947TIP3    H2 2783   7.435   4.499   5.864
  948TIP3   OH2 2784   5.265   3.960   5.833
  948TIP3    H1 2785   5.305   3.897   5.893
  948TIP3    H2 2786   5.185   3.988   5.878
  949TIP3   OH2 2787   2.340   4.940   3.233
  949TIP3    H1 2788   2.376   4.911   3.149
  949TIP3    H2 2789   2.408   4.920   3.297
  950TIP3   OH2 2790   6.285   0.642   5.805
  950TIP3    H1 2791   6.239   0.724   5.790
  950TIP3    H2 2792   6.233   0.576   5.761
  951TIP3   OH2 2793   1.309   6.581   5.724
  951TIP3    H1 2794   1.341   6.535   5.646
  951TIP3    H2 2795   1.260   6.514   5.772
  952TIP3   OH2 2796   7.724   6.671   2.489
  952TIP3    H1 2797   7.656   6.655   2.423
  952TIP3    H2 2798   7.799   6.704   2.439
  953TIP3   OH2 2799   3.411   4.130   6.304
  953TIP3    H1 2800   3.492   4.180   6.291
  953TIP3    H2 2801   3.437   4.039   6.297
  954TIP3   OH2 2802   5.629   3.036   1.603
  954TIP3    H1 2803   5.537   3.025   1.580
  954TIP3    H2 2804   5.627   3.084   1.686
  955TIP3   OH2 2805   3.717   3.182   4.129
  955TIP3    H1 2806   3.643   3.177   4.068
  955TIP3    H2 2807   3.681   3.154   4.213
  956TIP3   OH2 2808   3.437   1.858   6.407
  956TIP3    H1 2809   3.436   1.913   6.329
  956TIP3    H2 2810   3.432   1.919   6.481
  957TIP3   OH2 2811   4.942   0.227   3.926
  957TIP3    H1 2812   5.009   0.257   3.988
  957TIP3    H2 2813   4.984   0.235   3.840
  958TIP3   OH2 2814   0.767   3.442   3.996
  958TIP3    H1 2815   0.785   3.379   4.066
  958TIP3    H2 2816   0.726   3.390   3.927
  959TIP3   OH2 2817   6.722   4.101   3.915
  959TIP3    H1 2818   6.802   4.096   3.862
  959TIP3    H2 2819   6.736   4.036   3.984
  960TIP3   OH2 2820   7.884   7.532   1.098
  960TIP3    H1 2821   7.847   7.603   1.151
  960TIP3    H2 2822   7.904   7.463   1.162
  961TIP3   OH2 2823   6.002   2.727   0.481
  961TIP3    H1 2824   6.016   2.634   0.464
  961TIP3    H2 2825   6.007   2.768   0.395
  962TIP3   OH2 2826   1.392   0.134   4.429
  962TIP3    H1 2827   1.327   0.175   4.372
  962TIP3    H2 2828   1.382   0.179   4.513
  963TIP3   OH2 2829   5.310   6.695   0.217
  963TIP3    H1 2830   5.400   6.694   0.250
  963TIP3    H2 2831   5.271   6.774   0.255
  964TIP3   OH2 2832   2.471   3.388   0.291
  964TIP3    H1 2833   2.393   3.443   0.286
  964TIP3    H2 2834   2.515   3.401   0.207
  965TIP3   OH2 2835   1.122   5.738   5.480
  965TIP3    H1 2836   1.204   5.778   5.509
  965TIP3    H2 2837   1.080   5.707   5.560
  966TIP3   OH2 2838   8.105   5.642   1.545
  966TIP3    H1 2839   8.066   5.730   1.542
  966TIP3    H2 2840   8.030   5.583   1.538
  967TIP3   OH2 2841   2.065   1.176   3.000
  967TIP3    H1 2842   2.096   1.261   2.969
  967TIP3    H2 2843   2.084   1.116   2.928
  968TIP3   OH2 2844   2.180   2.567   5.573
  968TIP3    H1 2845   2.267   2.603   5.593
  968TIP3    H2 2846   2.193   2.513   5.495
  969TIP3   OH2 2847   4.505   2.975   5.120
  969TIP3    H1 2848   4.452   2.922   5.179
  969TIP3    H2 2849   4.491   2.937   5.033
  970TIP3   OH2 2850   7.589   7.614   3.553
  970TIP3    H1 2851   7.567   7.526   3.522
  970TIP3    H2 2852   7.504   7.656   3.567
  971TIP3   OH2 2853   4.305   4.681   2.393
  971TIP3    H1 2854   4.368   4.665   2.323
  971TIP3    H2 2855   4.344   4.639   2.471
  972TIP3   OH2 2856   8.153   3.823   3.286
  972TIP3    H1 2857   8.084   3.887   3.270
  972TIP3    H2 2858   8.169   3.828   3.380
  973TIP3   OH2 2859   4.561   6.777   4.306
  973TIP3    H1 2860   4.581   6.819   4.222
  973TIP3    H2 2861   4.568   6.684   4.288
  974TIP3   OH2 2862   8.305   0.854   6.869
  974TIP3    H1 2863   8.347   0.910   6.934
  974TIP3    H2 2864   8.224   0.900   6.846
  975TIP3   OH2 2865   3.184   6.259   4.866
  975TIP3    H1 2866   3.114   6.193   4.871
  975TIP3    H2 2867   3.257   6.214   4.824
  976TIP3   OH2 2868   2.246   0.861   3.599
  976TIP3    H1 2869   2.152   0.872   3.586
  976TIP3    H2 2870   2.253   0.782   3.653
  977TIP3   OH2 2871   3.675   2.464   2.821
  977TIP3    H1 2872   3.663   2.458   2.916
  977TIP3    H2 2873   3.727   2.543   2.808
  978TIP3   OH2 2874   5.726   3.655   5.142
  978TIP3    H1 2875   5.707   3.565   5.118
  978TIP3    H2 2876   5.820   3.666   5.124
  979TIP3   OH2 2877   1.104   0.910   6.664
  979TIP3    H1 2878   1.030   0.941   6.611
  979TIP3    H2 2879   1.080   0.820   6.688
  980TIP3   OH2 2880   1.035   2.954   1.307
  980TIP3    H1 2881   1.017   3.046   1.289
  980TIP3    H2 2882   1.127   2.951   1.330
  981TIP3   OH2 2883   6.039   4.319   4.842
  981TIP3    H1 2884   5.999   4.399   4.874
  981TIP3    H2 2885   6.128   4.320   4.878
  982TIP3   OH2 2886   2.218   4.518   5.675
  982TIP3    H1 2887   2.227   4.576   5.750
  982TIP3    H2 2888   2.274   4.557   5.607
  983TIP3   OH2 2889   3.414   2.422   3.029
  983TIP3    H1 2890   3.500   2.445   3.063
  983TIP3    H2 2891   3.356   2.490   3.064
  984TIP3   OH2 2892   1.453   2.598   6.243
  984TIP3    H1 2893   1.544   2.580   6.220
  984TIP3    H2 2894   1.406   2.520   6.215
  985TIP3   OH2 2895   5.299   0.912   6.439
  985TIP3    H1 2896   5.315   0.819   6.450
  985TIP3    H2 2897   5.221   0.917   6.384
  986TIP3   OH2 2898   3.538   3.699   6.051
  986TIP3    H1 2899   3.559   3.776   5.998
  986TIP3    H2 2900   3.556   3.624   5.994
  987TIP3   OH2 2901   0.510   6.436   0.426
  987TIP3    H1 2902   0.437   6.380   0.451
  987TIP3    H2 2903   0.481   6.525   0.445
  988TIP3   OH2 2904   7.484   6.281   5.902
  988TIP3    H1 2905   7.467   6.280   5.807
  988TIP3    H2 2906   7.407   6.322   5.940
  989TIP3   OH2 2907   5.042   5.699   3.913
  989TIP3    H1 2908   5.079   5.612   3.900
  989TIP3    H2 2909   5.097   5.757   3.860
  990TIP3   OH2 2910   5.751   6.046   0.428
  990TIP3    H1 2911   5.776   5.970   0.376
  990TIP3    H2 2912   5.682   6.014   0.486
  991TIP3   OH2 2913   3.508   4.632   5.129
  991TIP3    H1 2914   3.515   4.663   5.220
  991TIP3    H2 2915   3.521   4.538   5.135
  992TIP3   OH2 2916   6.240   4.786   0.565
  992TIP3    H1 2917   6.229   4.707   0.512
  992TIP3    H2 2918   6.160   4.836   0.551
  993TIP3   OH2 2919   4.151   2.461   0.417
  993TIP3    H1 2920   4.085   2.530   0.416
  993TIP3    H2 2921   4.102   2.381   0.433
  994TIP3   OH2 2922   1.715   7.532   4.130
  994TIP3    H1 2923   1.763   7.605   4.090
  994TIP3    H2 2924   1.771   7.503   4.202
  995TIP3   OH2 2925   5.601   3.200   1.826
  995TIP3    H1 2926   5.672   3.246   1.870
  995TIP3    H2 2927   5.525   3.214   1.882
  996TIP3   OH2 2928   6.906   0.545   5.208
  996TIP3    H1 2929   6.901   0.508   5.120
  996TIP3    H2 2930   6.820   0.586   5.221
  997TIP3   OH2 2931   2.269   5.613   0.098
  997TIP3    H1 2932   2.198   5.600   0.161
  997TIP3    H2 2933   2.240   5.567   0.020
  998TIP3   OH2 2934   5.839   3.766   4.796
  998TIP3    H1 2935   5.820   3.680   4.757
  998TIP3    H2 2936   5.792   3.827   4.739
  999TIP3   OH2 2937   8.227   4.712   6.689
  999TIP3    H1 2938   8.200   4.768   6.617
  999TIP3    H2 2939   8.172   4.738   6.762
 1000TIP3   OH2 2940   7.899   3.755   5.277
 1000TIP3    H1 2941   7.808   3.727   5.285
 1000TIP3    H2 2942   7.939   3.692   5.218
 1001TIP3   OH2 2943   3.673   2.959   4.344
 1001TIP3    H1 2944   3.594   3.011   4.359
 1001TIP3    H2 2945   3.739   2.999   4.401
 1002TIP3   OH2 2946   5.503   2.188   5.721
 1002TIP3    H1 2947   5.594   2.217   5.717
 1002TIP3    H2 2948   5.457   2.259   5.766
 1003TIP3   OH2 2949   5.000   3.470   3.182
 1003TIP3    H1 2950   4.909   3.442   3.173
 1003TIP3    H2 2951   5.002   3.523   3.262
 1004TIP3   OH2 2952   0.772   7.717   3.979
 1004TIP3    H1 2953   0.824   7.783   3.935
 1004TIP3    H2 2954   0.785   7.637   3.927
 1005TIP3   OH2 2955   7.670   5.904   3.613
 1005TIP3    H1 2956   7.683   5.966   3.686
 1005TIP3    H2 2957   7.575   5.902   3.601
 1006TIP3   OH2 2958   8.311   0.673   0.621
 1006TIP3    H1 2959   8.240   0.612   0.640
 1006TIP3    H2 2960   8.381   0.619   0.586
 1007TIP3   OH2 2961   6.087   3.014   2.016
 1007TIP3    H1 2962   6.065   2.922   2.031
 1007TIP3    H2 2963   6.177   3.023   2.046
 1008TIP3   OH2 2964   3.868   0.791   6.183
 1008TIP3    H1 2965   3.802   0.858   6.202
 1008TIP3    H2 2966   3.941   0.814   6.240
 1009TIP3   OH2 2967   4.685   4.541   5.058
 1009TIP3    H1 2968   4.741   4.469   5.029
 1009TIP3    H2 2969   4.627   4.502   5.123
 1010TIP3   OH2 2970   1.303   1.313   0.214
 1010TIP3    H1 2971   1.270   1.341   0.129
 1010TIP3    H2 2972   1.391   1.279   0.197
 1011TIP3   OH2 2973   4.805   3.884   1.995
 1011TIP3    H1 2974   4.780   3.977   1.999
 1011TIP3    H2 2975   4.722   3.837   2.004
 1012TIP3   OH2 2976   5.450   7.479   5.928
 1012TIP3    H1 2977   5.406   7.452   5.847
 1012TIP3    H2 2978   5.537   7.440   5.923
 1013TIP3   OH2 2979   4.396   1.233   1.493
 1013TIP3    H1 2980   4.388   1.162   1.557
 1013TIP3    H2 2981   4.475   1.212   1.443
 1014TIP3   OH2 2982   5.866  -0.014   5.186
 1014TIP3    H1 2983   5.812   0.045   5.133
 1014TIP3    H2 2984   5.839   0.003   5.276
 1015TIP3   OH2 2985   2.077   5.982   5.714
 1015TIP3    H1 2986   2.158   5.954   5.756
 1015TIP3    H2 2987   2.048   5.906   5.664
 1016TIP3   OH2 2988   2.497   4.998   3.632
 1016TIP3    H1 2989   2.520   5.003   3.724
 1016TIP3    H2 2990   2.581   4.998   3.586
 1017TIP3   OH2 2991   4.126   7.917   4.993
 1017TIP3    H1 2992   4.147   7.843   4.936
 1017TIP3    H2 2993   4.093   7.984   4.933
 1018TIP3   OH2 2994   1.043   7.222   5.569
 1018TIP3    H1 2995   1.087   7.192   5.649
 1018TIP3    H2 2996   1.112   7.229   5.504
 1019TIP3   OH2 2997   7.825   4.131   2.588
 1019TIP3    H1 2998   7.890   4.063   2.606
 1019TIP3    H2 2999   7.859   4.177   2.511
 1020TIP3   OH2 3000   7.315   7.307   3.988
 1020TIP3    H1 3001   7.323   7.246   4.060
 1020TIP3    H2 3002   7.355   7.388   4.020
 1021TIP3   OH2 3003   4.596   6.842   5.063
 1021TIP3    H1 3004   4.666   6.875   5.119
 1021TIP3    H2 3005   4.559   6.919   5.021
 1022TIP3   OH2 3006   6.334   1.028   1.474
 1022TIP3    H1 3007   6.244   1.004   1.496
 1022TIP3    H2 3008   6.325   1.092   1.403
 1023TIP3   OH2 3009   5.502   3.795   3.221
 1023TIP3    H1 3010   5.467   3.742   3.293
 1023TIP3    H2 3011   5.446   3.772   3.147
 1024TIP3   OH2 3012   3.166   4.357   5.636
 1024TIP3    H1 3013   3.121   4.427   5.588
 1024TIP3    H2 3014   3.095   4.298   5.664
 1025TIP3   OH2 3015   6.954   3.402   3.508
 1025TIP3    H1 3016   7.022   3.463   3.535
 1025TIP3    H2 3017   7.002   3.325   3.477
 1026TIP3   OH2 3018   5.444   7.812   0.610
 1026TIP3    H1 3019   5.494   7.731   0.622
 1026TIP3    H2 3020   5.472   7.869   0.681
 1027TIP3   OH2 3021   3.853   2.135   0.762
 1027TIP3    H1 3022   3.923   2.078   0.731
 1027TIP3    H2 3023   3.774   2.101   0.720
 1028TIP3   OH2 3024   2.030   6.047   4.346
 1028TIP3    H1 3025   2.098   6.090   4.294
 1028TIP3    H2 3026   2.057   5.955   4.349
 1029TIP3   OH2 3027   3.004   1.398   0.233
 1029TIP3    H1 3028   3.091   1.401   0.273
 1029TIP3    H2 3029   3.015   1.342   0.156
 1030TIP3   OH2 3030   0.612   4.912   4.111
 1030TIP3    H1 3031   0.580   4.967   4.039
 1030TIP3    H2 3032   0.557   4.935   4.186
 1031TIP3   OH2 3033   7.487   0.118   3.343
 1031TIP3    H1 3034   7.479   0.069   3.425
 1031TIP3    H2 3035   7.456   0.206   3.365
 1032TIP3   OH2 3036   2.448   4.540   6.183
 1032TIP3    H1 3037   2.396   4.620   6.172
 1032TIP3    H2 3038   2.396   4.485   6.241
 1033TIP3   OH2 3039   1.532   2.115   0.208
 1033TIP3    H1 3040   1.502   2.053   0.274
 1033TIP3    H2 3041   1.493   2.083   0.126
 1034TIP3   OH2 3042   4.555   5.457   6.221
 1034TIP3    H1 3043   4.616   5.528   6.200
 1034TIP3    H2 3044   4.494   5.457   6.147
 1035TIP3   OH2 3045   0.956   1.485   0.403
 1035TIP3    H1 3046   1.019   1.414   0.394
 1035TIP3    H2 3047   0.985   1.534   0.480
 1036TIP3   OH2 3048   7.385   0.392   5.871
 1036TIP3    H1 3049   7.404   0.485   5.856
 1036TIP3    H2 3050   7.361   0.358   5.784
 1037TIP3   OH2 3051   0.403   0.534   2.827
 1037TIP3    H1 3052   0.432   0.603   2.886
 1037TIP3    H2 3053   0.483   0.504   2.783
 1038TIP3   OH2 3054   3.064   7.519   2.360
 1038TIP3    H1 3055   2.977   7.492   2.388
 1038TIP3    H2 3056   3.061   7.615   2.361
 1039TIP3   OH2 3057   1.803   5.203   6.500
 1039TIP3    H1 3058   1.746   5.142   6.547
 1039TIP3    H2 3059   1.753   5.230   6.424
 1040TIP3   OH2 3060   4.512   6.615   2.546
 1040TIP3    H1 3061   4.526   6.544   2.483
 1040TIP3    H2 3062   4.549   6.692   2.503
 1041TIP3   OH2 3063   0.110   6.024   0.759
 1041TIP3    H1 3064   0.052   5.997   0.688
 1041TIP3    H2 3065   0.197   6.028   0.720
 1042TIP3   OH2 3066   3.256   4.935   2.862
 1042TIP3    H1 3067   3.348   4.927   2.885
 1042TIP3    H2 3068   3.253   5.000   2.792
 1043TIP3   OH2 3069   3.481   3.796   1.316
 1043TIP3    H1 3070   3.502   3.868   1.256
 1043TIP3    H2 3071   3.415   3.745   1.269
 1044TIP3   OH2 3072   0.694   0.319   6.628
 1044TIP3    H1 3073   0.695   0.257   6.555
 1044TIP3    H2 3074   0.776   0.368   6.619
 1045TIP3   OH2 3075   4.372   1.913   4.568
 1045TIP3    H1 3076   4.286   1.923   4.610
 1045TIP3    H2 3077   4.406   2.002   4.561
 1046TIP3   OH2 3078   6.015   0.251   6.162
 1046TIP3    H1 3079   6.058   0.172   6.197
 1046TIP3    H2 3080   6.080   0.291   6.105
 1047TIP3   OH2 3081   2.586   0.332   1.906
 1047TIP3    H1 3082   2.628   0.336   1.821
 1047TIP3    H2 3083   2.610   0.415   1.949
 1048TIP3   OH2 3084   3.247   6.029   3.840
 1048TIP3    H1 3085   3.170   5.982   3.870
 1048TIP3    H2 3086   3.243   6.113   3.885
 1049TIP3   OH2 3087   5.146   5.184   1.798
 1049TIP3    H1 3088   5.190   5.257   1.754
 1049TIP3    H2 3089   5.139   5.212   1.889
 1050TIP3   OH2 3090   8.075   4.961   5.676
 1050TIP3    H1 3091   8.134   5.015   5.729
 1050TIP3    H2 3092   8.044   5.019   5.607
 1051TIP3   OH2 3093   7.667   5.398   0.093
 1051TIP3    H1 3094   7.751   5.363   0.062
 1051TIP3    H2 3095   7.689   5.481   0.134
 1052TIP3   OH2 3096   2.695   6.087   2.439
 1052TIP3    H1 3097   2.712   6.088   2.344
 1052TIP3    H2 3098   2.642   6.009   2.453
 1053TIP3   OH2 3099   2.111   6.350   0.446
 1053TIP3    H1 3100   2.053   6.374   0.517
 1053TIP3    H2 3101   2.053   6.323   0.375
 1054TIP3   OH2 3102   6.411   3.588   2.158
 1054TIP3    H1 3103   6.345   3.520   2.169
 1054TIP3    H2 3104   6.486   3.543   2.120
 1055TIP3   OH2 3105   0.750   1.733   2.157
 1055TIP3    H1 3106   0.767   1.796   2.088
 1055TIP3    H2 3107   0.837   1.710   2.191
 1056TIP3   OH2 3108   7.688   2.418   1.879
 1056TIP3    H1 3109   7.682   2.512   1.860
 1056TIP3    H2 3110   7.741   2.413   1.959
 1057TIP3   OH2 3111   7.033   1.534   4.261
 1057TIP3    H1 3112   7.072   1.616   4.291
 1057TIP3    H2 3113   7.101   1.468   4.277
 1058TIP3   OH2 3114   3.208   3.090   1.064
 1058TIP3    H1 3115   3.193   3.184   1.068
 1058TIP3    H2 3116   3.294   3.078   1.104
 1059TIP3   OH2 3117   6.775   3.564   1.747
 1059TIP3    H1 3118   6.822   3.647   1.753
 1059TIP3    H2 3119   6.817   3.519   1.674
 1060TIP3   OH2 3120   7.781   0.970   0.146
 1060TIP3    H1 3121   7.794   1.055   0.189
 1060TIP3    H2 3122   7.845   0.970   0.074
 1061TIP3   OH2 3123   0.314   3.997   0.455
 1061TIP3    H1 3124   0.348   3.908   0.468
 1061TIP3    H2 3125   0.386   4.045   0.413
 1062TIP3   OH2 3126   7.866   3.883   6.153
 1062TIP3    H1 3127   7.792   3.944   6.159
 1062TIP3    H2 3128   7.943   3.939   6.152
 1063TIP3   OH2 3129   0.998   0.663   6.721
 1063TIP3    H1 3130   0.929   0.670   6.787
 1063TIP3    H2 3131   1.042   0.580   6.740
 1064TIP3   OH2 3132   7.162   0.667   2.371
 1064TIP3    H1 3133   7.070   0.657   2.394
 1064TIP3    H2 3134   7.199   0.720   2.442
 1065TIP3   OH2 3135   6.928   0.518   5.840
 1065TIP3    H1 3136   7.003   0.558   5.796
 1065TIP3    H2 3137   6.917   0.433   5.796
 1066TIP3   OH2 3138   2.694   0.141   2.923
 1066TIP3    H1 3139   2.622   0.196   2.952
 1066TIP3    H2 3140   2.742   0.120   3.004
 1067TIP3   OH2 3141   7.279   2.668   0.463
 1067TIP3    H1 3142   7.322   2.589   0.496
 1067TIP3    H2 3143   7.196   2.637   0.428
 1068TIP3   OH2 3144   2.630   1.451   6.528
 1068TIP3    H1 3145   2.677   1.393   6.468
 1068TIP3    H2 3146   2.663   1.427   6.614
 1069TIP3   OH2 3147   3.866   3.506   4.995
 1069TIP3    H1 3148   3.927   3.577   5.014
 1069TIP3    H2 3149   3.921   3.432   4.969
 1070TIP3   OH2 3150   6.237   4.534   6.260
 1070TIP3    H1 3151   6.201   4.470   6.320
 1070TIP3    H2 3152   6.332   4.522   6.265
 1071TIP3   OH2 3153   5.687   2.858   2.367
 1071TIP3    H1 3154   5.754   2.918   2.334
 1071TIP3    H2 3155   5.675   2.884   2.458
 1072TIP3   OH2 3156   2.504   1.192   3.904
 1072TIP3    H1 3157   2.592   1.185   3.866
 1072TIP3    H2 3158   2.445   1.170   3.832
 1073TIP3   OH2 3159   1.162   2.154   4.899
 1073TIP3    H1 3160   1.108   2.169   4.977
 1073TIP3    H2 3161   1.133   2.069   4.866
 1074TIP3   OH2 3162   7.739   0.614   6.823
 1074TIP3    H1 3163   7.667   0.578   6.874
 1074TIP3    H2 3164   7.782   0.537   6.785
 1075TIP3   OH2 3165   8.341   1.576   2.546
 1075TIP3    H1 3166   8.424   1.550   2.586
 1075TIP3    H2 3167   8.277   1.568   2.617
 1076TIP3   OH2 3168   1.748   3.181   2.978
 1076TIP3    H1 3169   1.779   3.259   3.024
 1076TIP3    H2 3170   1.797   3.109   3.016
 1077TIP3   OH2 3171   5.319   0.304   1.631
 1077TIP3    H1 3172   5.322   0.399   1.642
 1077TIP3    H2 3173   5.411   0.277   1.627
 1078TIP3   OH2 3174   5.069   4.289   2.065
 1078TIP3    H1 3175   5.126   4.261   1.993
 1078TIP3    H2 3176   4.998   4.225   2.065
 1079TIP3   OH2 3177   0.300   6.610   4.782
 1079TIP3    H1 3178   0.303   6.517   4.806
 1079TIP3    H2 3179   0.208   6.627   4.763
 1080TIP3   OH2 3180   3.400   7.305   6.446
 1080TIP3    H1 3181   3.465   7.346   6.504
 1080TIP3    H2 3182   3.339   7.263   6.505
 1081TIP3   OH2 3183   6.639   5.902   6.096
 1081TIP3    H1 3184   6.719   5.934   6.054
 1081TIP3    H2 3185   6.572   5.966   6.071
 1082TIP3   OH2 3186   5.095   6.554   0.613
 1082TIP3    H1 3187   5.143   6.631   0.645
 1082TIP3    H2 3188   5.005   6.568   0.644
 1083TIP3   OH2 3189   2.860   7.782   1.330
 1083TIP3    H1 3190   2.782   7.833   1.349
 1083TIP3    H2 3191   2.871   7.724   1.406
 1084TIP3   OH2 3192   3.506   2.784   4.527
 1084TIP3    H1 3193   3.538   2.868   4.558
 1084TIP3    H2 3194   3.431   2.805   4.471
 1085TIP3   OH2 3195   4.314   1.116   4.373
 1085TIP3    H1 3196   4.276   1.042   4.326
 1085TIP3    H2 3197   4.248   1.139   4.439
 1086TIP3   OH2 3198   6.130   2.987   2.803
 1086TIP3    H1 3199   6.086   2.903   2.814
 1086TIP3    H2 3200   6.093   3.043   2.870
 1087TIP3   OH2 3201   8.437   5.604   3.754
 1087TIP3    H1 3202   8.352   5.614   3.710
 1087TIP3    H2 3203   8.464   5.693   3.776
 1088TIP3   OH2 3204   0.031   0.514   6.503
 1088TIP3    H1 3205   0.041   0.431   6.549
 1088TIP3    H2 3206   0.110   0.522   6.449
 1089TIP3   OH2 3207   0.629   5.542   4.014
 1089TIP3    H1 3208   0.628   5.501   3.928
 1089TIP3    H2 3209   0.707   5.599   4.013
 1090TIP3   OH2 3210   6.228   5.878   5.490
 1090TIP3    H1 3211   6.234   5.886   5.586
 1090TIP3    H2 3212   6.134   5.886   5.472
 1091TIP3   OH2 3213   0.852   4.828   5.783
 1091TIP3    H1 3214   0.827   4.890   5.852
 1091TIP3    H2 3215   0.779   4.830   5.722
 1092TIP3   OH2 3216   1.360   3.029   1.137
 1092TIP3    H1 3217   1.301   3.085   1.188
 1092TIP3    H2 3218   1.371   2.951   1.191
 1093TIP3   OH2 3219   5.994   0.301   1.956
 1093TIP3    H1 3220   6.032   0.244   1.888
 1093TIP3    H2 3221   6.069   0.326   2.011
 1094TIP3   OH2 3222   2.080   7.478   5.174
 1094TIP3    H1 3223   2.123   7.564   5.163
 1094TIP3    H2 3224   2.052   7.455   5.085
 1095TIP3   OH2 3225   6.992   6.904   4.020
 1095TIP3    H1 3226   6.925   6.971   4.005
 1095TIP3    H2 3227   6.988   6.848   3.942
 1096TIP3   OH2 3228   6.271   2.080   4.735
 1096TIP3    H1 3229   6.233   2.093   4.822
 1096TIP3    H2 3230   6.206   2.116   4.675
 1097TIP3   OH2 3231   1.268   3.900   0.366
 1097TIP3    H1 3232   1.292   3.977   0.418
 1097TIP3    H2 3233   1.252   3.832   0.432
 1098TIP3   OH2 3234   7.989   1.730   0.276
 1098TIP3    H1 3235   7.911   1.722   0.220
 1098TIP3    H2 3236   8.026   1.642   0.278
 1099TIP3   OH2 3237   0.614   4.122   4.260
 1099TIP3    H1 3238   0.525   4.153   4.275
 1099TIP3    H2 3239   0.607   4.066   4.182
 1100TIP3   OH2 3240   2.047   3.774   2.617
 1100TIP3    H1 3241   2.047   3.687   2.656
 1100TIP3    H2 3242   2.118   3.771   2.553
 1101TIP3   OH2 3243   2.474   1.477   6.101
 1101TIP3    H1 3244   2.541   1.509   6.161
 1101TIP3    H2 3245   2.514   1.483   6.014
 1102TIP3   OH2 3246   0.628   6.554   4.700
 1102TIP3    H1 3247   0.580   6.627   4.661
 1102TIP3    H2 3248   0.613   6.481   4.640
 1103TIP3   OH2 3249   1.614   1.408   5.035
 1103TIP3    H1 3250   1.563   1.443   4.963
 1103TIP3    H2 3251   1.646   1.486   5.082
 1104TIP3   OH2 3252   3.527   4.211   0.253
 1104TIP3    H1 3253   3.510   4.176   0.165
 1104TIP3    H2 3254   3.499   4.141   0.312
 1105TIP3   OH2 3255   7.476   2.844   5.531
 1105TIP3    H1 3256   7.512   2.812   5.614
 1105TIP3    H2 3257   7.484   2.939   5.536
 1106TIP3   OH2 3258   3.720   3.712   5.148
 1106TIP3    H1 3259   3.800   3.683   5.104
 1106TIP3    H2 3260   3.667   3.632   5.156
 1107TIP3   OH2 3261   4.714   6.130   3.970
 1107TIP3    H1 3262   4.650   6.181   4.020
 1107TIP3    H2 3263   4.667   6.052   3.942
 1108TIP3   OH2 3264   4.348   2.442   3.633
 1108TIP3    H1 3265   4.296   2.496   3.574
 1108TIP3    H2 3266   4.439   2.461   3.609
 1109TIP3   OH2 3267   7.072   0.282   6.576
 1109TIP3    H1 3268   7.010   0.244   6.514
 1109TIP3    H2 3269   7.158   0.264   6.538
 1110TIP3   OH2 3270   5.066   2.776   6.096
 1110TIP3    H1 3271   4.983   2.820   6.116
 1110TIP3    H2 3272   5.060   2.753   6.003
 1111TIP3   OH2 3273   4.170   2.657   4.482
 1111TIP3    H1 3274   4.158   2.614   4.566
 1111TIP3    H2 3275   4.097   2.719   4.475
 1112TIP3   OH2 3276   2.872   0.091   6.255
 1112TIP3    H1 3277   2.959   0.053   6.241
 1112TIP3    H2 3278   2.817   0.017   6.281
 1113TIP3   OH2 3279   2.295   1.523   5.086
 1113TIP3    H1 3280   2.367   1.504   5.147
 1113TIP3    H2 3281   2.338   1.532   5.001
 1114TIP3   OH2 3282   4.366   2.189   4.078
 1114TIP3    H1 3283   4.274   2.178   4.102
 1114TIP3    H2 3284   4.407   2.105   4.100
 1115TIP3   OH2 3285   2.640   5.361   0.677
 1115TIP3    H1 3286   2.550   5.395   0.683
 1115TIP3    H2 3287   2.632   5.284   0.620
 1116TIP3   OH2 3288   4.483   7.818   5.038
 1116TIP3    H1 3289   4.432   7.741   5.013
 1116TIP3    H2 3290   4.444   7.848   5.119
 1117TIP3   OH2 3291   2.723   5.050   4.543
 1117TIP3    H1 3292   2.776   4.989   4.594
 1117TIP3    H2 3293   2.632   5.027   4.563
 1118TIP3   OH2 3294   5.427   3.671   2.998
 1118TIP3    H1 3295   5.407   3.688   2.906
 1118TIP3    H2 3296   5.424   3.576   3.006
 1119TIP3   OH2 3297   5.237   4.065   2.269
 1119TIP3    H1 3298   5.320   4.038   2.231
 1119TIP3    H2 3299   5.170   4.020   2.218
 1120TIP3   OH2 3300   1.690   3.514   0.364
 1120TIP3    H1 3301   1.600   3.494   0.338
 1120TIP3    H2 3302   1.681   3.566   0.444
 1121TIP3   OH2 3303   3.685   2.847   4.747
 1121TIP3    H1 3304   3.715   2.863   4.658
 1121TIP3    H2 3305   3.759   2.873   4.802
 1122TIP3   OH2 3306   5.627   7.078   0.408
 1122TIP3    H1 3307   5.573   6.999   0.399
 1122TIP3    H2 3308   5.669   7.067   0.494
 1123TIP3   OH2 3309   0.499   7.713   1.624
 1123TIP3    H1 3310   0.502   7.768   1.702
 1123TIP3    H2 3311   0.582   7.729   1.579
 1124TIP3   OH2 3312   8.401   3.496   2.376
 1124TIP3    H1 3313   8.464   3.528   2.312
 1124TIP3    H2 3314   8.372   3.411   2.342
 1125TIP3   OH2 3315   7.798   7.124   1.669
 1125TIP3    H1 3316   7.750   7.060   1.618
 1125TIP3    H2 3317   7.733   7.190   1.694
 1126TIP3   OH2 3318   0.580   4.747   6.559
 1126TIP3    H1 3319   0.511   4.787   6.612
 1126TIP3    H2 3320   0.637   4.820   6.535
 1127TIP3   OH2 3321   5.227   4.290   6.674
 1127TIP3    H1 3322   5.183   4.267   6.593
 1127TIP3    H2 3323   5.234   4.208   6.722
 1128TIP3   OH2 3324   5.695   4.120   0.295
 1128TIP3    H1 3325   5.634   4.058   0.337
 1128TIP3    H2 3326   5.767   4.065   0.266
 1129TIP3   OH2 3327   7.222   6.443   4.182
 1129TIP3    H1 3328   7.176   6.500   4.121
 1129TIP3    H2 3329   7.310   6.478   4.187
 1130TIP3   OH2 3330   3.635   0.015   6.611
 1130TIP3    H1 3331   3.636   0.063   6.528
 1130TIP3    H2 3332   3.720  -0.029   6.614
 1131TIP3   OH2 3333   2.058   4.002   5.738
 1131TIP3    H1 3334   2.082   3.938   5.805
 1131TIP3    H2 3335   2.009   3.951   5.673
 1132TIP3   OH2 3336   1.934   0.541   1.861
 1132TIP3    H1 3337   1.871   0.580   1.802
 1132TIP3    H2 3338   1.989   0.486   1.805
 1133TIP3   OH2 3339   6.796   4.538   6.692
 1133TIP3    H1 3340   6.749   4.525   6.774
 1133TIP3    H2 3341   6.739   4.502   6.625
 1134TIP3   OH2 3342   7.189   3.480   2.928
 1134TIP3    H1 3343   7.211   3.571   2.945
 1134TIP3    H2 3344   7.095   3.482   2.907
 1135TIP3   OH2 3345   0.244   5.203   2.261
 1135TIP3    H1 3346   0.215   5.211   2.352
 1135TIP3    H2 3347   0.167   5.229   2.209
 1136TIP3   OH2 3348   8.348   5.516   1.343
 1136TIP3    H1 3349   8.338   5.538   1.435
 1136TIP3    H2 3350   8.268   5.549   1.301
 1137TIP3   OH2 3351   2.903   1.572   0.018
 1137TIP3    H1 3352   2.901   1.657   0.063
 1137TIP3    H2 3353   2.877   1.509   0.086
 1138TIP3   OH2 3354   3.231   4.615   4.787
 1138TIP3    H1 3355   3.175   4.539   4.799
 1138TIP3    H2 3356   3.198   4.658   4.709
 1139TIP3   OH2 3357   5.941   2.736   4.396
 1139TIP3    H1 3358   6.035   2.754   4.395
 1139TIP3    H2 3359   5.931   2.664   4.459
 1140TIP3   OH2 3360   5.938   2.026   3.959
 1140TIP3    H1 3361   5.894   1.990   4.037
 1140TIP3    H2 3362   5.896   2.111   3.946
 1141TIP3   OH2 3363   7.239   7.147   3.452
 1141TIP3    H1 3364   7.180   7.192   3.512
 1141TIP3    H2 3365   7.266   7.214   3.390
 1142TIP3   OH2 3366   0.589   4.459   6.139
 1142TIP3    H1 3367   0.503   4.468   6.181
 1142TIP3    H2 3368   0.568   4.446   6.046
 1143TIP3   OH2 3369   8.325   1.711   2.977
 1143TIP3    H1 3370   8.297   1.716   3.068
 1143TIP3    H2 3371   8.267   1.772   2.930
 1144TIP3   OH2 3372   4.783   5.372   1.831
 1144TIP3    H1 3373   4.842   5.438   1.867
 1144TIP3    H2 3374   4.748   5.411   1.751
 1145TIP3   OH2 3375   2.148   5.176   4.509
 1145TIP3    H1 3376   2.135   5.252   4.565
 1145TIP3    H2 3377   2.219   5.127   4.551
 1146TIP3   OH2 3378   6.561   5.345   0.786
 1146TIP3    H1 3379   6.654   5.328   0.769
 1146TIP3    H2 3380   6.546   5.433   0.752
 1147TIP3   OH2 3381   1.906   6.340   1.064
 1147TIP3    H1 3382   1.862   6.405   1.010
 1147TIP3    H2 3383   1.860   6.343   1.148
 1148TIP3   OH2 3384   0.184   2.995   3.335
 1148TIP3    H1 3385   0.216   3.013   3.424
 1148TIP3    H2 3386   0.242   3.045   3.278
 1149TIP3   OH2 3387   2.915   5.098   6.507
 1149TIP3    H1 3388   2.823   5.105   6.532
 1149TIP3    H2 3389   2.914   5.103   6.411
 1150TIP3   OH2 3390   4.426   1.459   3.188
 1150TIP3    H1 3391   4.358   1.489   3.248
 1150TIP3    H2 3392   4.464   1.382   3.230
 1151TIP3   OH2 3393   7.420   2.405   1.996
 1151TIP3    H1 3394   7.497   2.354   1.972
 1151TIP3    H2 3395   7.401   2.459   1.920
 1152TIP3   OH2 3396   0.404   5.775   5.128
 1152TIP3    H1 3397   0.446   5.820   5.201
 1152TIP3    H2 3398   0.333   5.834   5.102
 1153TIP3   OH2 3399   5.498   5.236   2.734
 1153TIP3    H1 3400   5.499   5.198   2.822
 1153TIP3    H2 3401   5.450   5.171   2.681
 1154TIP3   OH2 3402   7.815   7.787   4.295
 1154TIP3    H1 3403   7.821   7.741   4.211
 1154TIP3    H2 3404   7.877   7.741   4.352
 1155TIP3   OH2 3405   5.376   3.217   1.987
 1155TIP3    H1 3406   5.332   3.244   2.068
 1155TIP3    H2 3407   5.316   3.243   1.917
 1156TIP3   OH2 3408   2.869   7.879   6.242
 1156TIP3    H1 3409   2.962   7.859   6.253
 1156TIP3    H2 3410   2.841   7.824   6.168
 1157TIP3   OH2 3411   3.841   6.930   2.777
 1157TIP3    H1 3412   3.772   6.958   2.717
 1157TIP3    H2 3413   3.921   6.969   2.742
 1158TIP3   OH2 3414   6.353   5.628   0.283
 1158TIP3    H1 3415   6.303   5.561   0.237
 1158TIP3    H2 3416   6.289   5.697   0.302
 1159TIP3   OH2 3417   2.952   0.016   6.539
 1159TIP3    H1 3418   2.919   0.077   6.605
 1159TIP3    H2 3419   2.951   0.067   6.458
 1160TIP3   OH2 3420   6.136   4.197   6.689
 1160TIP3    H1 3421   6.148   4.102   6.690
 1160TIP3    H2 3422   6.042   4.210   6.672
 1161TIP3   OH2 3423   7.797   1.896   2.200
 1161TIP3    H1 3424   7.724   1.867   2.255
 1161TIP3    H2 3425   7.761   1.965   2.145
 1162TIP3   OH2 3426   7.933   4.465   4.477
 1162TIP3    H1 3427   7.868   4.490   4.411
 1162TIP3    H2 3428   7.910   4.516   4.554
 1163TIP3   OH2 3429   5.793   0.988   2.965
 1163TIP3    H1 3430   5.875   0.971   3.011
 1163TIP3    H2 3431   5.738   0.912   2.984
 1164TIP3   OH2 3432   5.630   4.544   5.310
 1164TIP3    H1 3433   5.536   4.534   5.298
 1164TIP3    H2 3434   5.639   4.613   5.375
 1165TIP3   OH2 3435   4.846   3.301   4.021
 1165TIP3    H1 3436   4.833   3.305   4.116
 1165TIP3    H2 3437   4.808   3.217   3.996
 1166TIP3   OH2 3438   7.471   4.654   4.150
 1166TIP3    H1 3439   7.469   4.606   4.233
 1166TIP3    H2 3440   7.491   4.744   4.175
 1167TIP3   OH2 3441   4.201   3.875   1.068
 1167TIP3    H1 3442   4.254   3.908   0.995
 1167TIP3    H2 3443   4.233   3.922   1.144
 1168TIP3   OH2 3444   3.404   4.461   2.206
 1168TIP3    H1 3445   3.426   4.536   2.150
 1168TIP3    H2 3446   3.461   4.391   2.175
 1169TIP3   OH2 3447   5.428   1.087   6.244
 1169TIP3    H1 3448   5.460   1.024   6.308
 1169TIP3    H2 3449   5.338   1.105   6.271
 1170TIP3   OH2 3450   0.523   1.289   2.576
 1170TIP3    H1 3451   0.465   1.227   2.533
 1170TIP3    H2 3452   0.474   1.317   2.654
 1171TIP3   OH2 3453   7.989   4.549   4.168
 1171TIP3    H1 3454   7.901   4.515   4.184
 1171TIP3    H2 3455   7.991   4.633   4.214
 1172TIP3   OH2 3456   1.583   3.398   4.481
 1172TIP3    H1 3457   1.624   3.362   4.402
 1172TIP3    H2 3458   1.648   3.460   4.515
 1173TIP3   OH2 3459   1.933   3.107   4.294
 1173TIP3    H1 3460   1.851   3.148   4.266
 1173TIP3    H2 3461   1.957   3.154   4.374
 1174TIP3   OH2 3462   1.175   4.164   6.491
 1174TIP3    H1 3463   1.136   4.142   6.406
 1174TIP3    H2 3464   1.109   4.217   6.535
 1175TIP3   OH2 3465   5.866   1.173   3.725
 1175TIP3    H1 3466   5.872   1.138   3.636
 1175TIP3    H2 3467   5.858   1.267   3.713
 1176TIP3   OH2 3468   6.866   1.328   6.355
 1176TIP3    H1 3469   6.954   1.359   6.378
 1176TIP3    H2 3470   6.808   1.396   6.391
 1177TIP3   OH2 3471   0.878   5.745   3.675
 1177TIP3    H1 3472   0.870   5.651   3.686
 1177TIP3    H2 3473   0.962   5.757   3.630
 1178TIP3   OH2 3474   7.186   1.200   2.421
 1178TIP3    H1 3475   7.111   1.259   2.413
 1178TIP3    H2 3476   7.156   1.132   2.481
 1179TIP3   OH2 3477   5.593   1.818   5.698
 1179TIP3    H1 3478   5.686   1.841   5.708
 1179TIP3    H2 3479   5.559   1.816   5.787
 1180TIP3   OH2 3480   0.319   4.429   2.373
 1180TIP3    H1 3481   0.288   4.339   2.379
 1180TIP3    H2 3482   0.244   4.483   2.399
 1181TIP3   OH2 3483   2.258   3.426   5.844
 1181TIP3    H1 3484   2.323   3.439   5.775
 1181TIP3    H2 3485   2.219   3.341   5.825
 1182TIP3   OH2 3486   6.322   6.746   1.889
 1182TIP3    H1 3487   6.355   6.754   1.800
 1182TIP3    H2 3488   6.352   6.660   1.919
 1183TIP3   OH2 3489   7.892   6.442   3.129
 1183TIP3    H1 3490   7.940   6.433   3.047
 1183TIP3    H2 3491   7.959   6.434   3.197
 1184TIP3   OH2 3492   5.009   1.786   0.391
 1184TIP3    H1 3493   5.063   1.854   0.433
 1184TIP3    H2 3494   4.921   1.822   0.391
 1185TIP3   OH2 3495   6.488   4.725   4.177
 1185TIP3    H1 3496   6.508   4.735   4.084
 1185TIP3    H2 3497   6.505   4.812   4.215
 1186TIP3   OH2 3498   1.204   7.821   4.592
 1186TIP3    H1 3499   1.200   7.767   4.670
 1186TIP3    H2 3500   1.206   7.758   4.519
 1187TIP3   OH2 3501   2.736   1.939   3.794
 1187TIP3    H1 3502   2.750   1.930   3.700
 1187TIP3    H2 3503   2.649   1.978   3.802
 1188TIP3   OH2 3504   4.966   4.344   4.310
 1188TIP3    H1 3505   4.948   4.275   4.374
 1188TIP3    H2 3506   5.058   4.331   4.287
 1189TIP3   OH2 3507   4.646   1.826   5.436
 1189TIP3    H1 3508   4.599   1.894   5.485
 1189TIP3    H2 3509   4.730   1.865   5.415
 1190TIP3   OH2 3510   6.306   5.530   4.451
 1190TIP3    H1 3511   6.268   5.541   4.538
 1190TIP3    H2 3512   6.230   5.530   4.392
 1191TIP3   OH2 3513   1.729   4.827   1.895
 1191TIP3    H1 3514   1.666   4.897   1.874
 1191TIP3    H2 3515   1.675   4.748   1.898
 1192TIP3   OH2 3516   2.027   1.855   0.038
 1192TIP3    H1 3517   2.013   1.923  -0.028
 1192TIP3    H2 3518   1.975   1.781   0.006
 1193TIP3   OH2 3519   5.654   1.806   5.404
 1193TIP3    H1 3520   5.736   1.766   5.430
 1193TIP3    H2 3521   5.641   1.777   5.313
 1194TIP3   OH2 3522   7.033   5.390   1.713
 1194TIP3    H1 3523   7.059   5.340   1.636
 1194TIP3    H2 3524   6.941   5.366   1.727
 1195TIP3   OH2 3525   4.950   2.129   0.864
 1195TIP3    H1 3526   5.041   2.099   0.859
 1195TIP3    H2 3527   4.904   2.079   0.797
 1196TIP3   OH2 3528   0.821   5.178   2.332
 1196TIP3    H1 3529   0.750   5.118   2.351
 1196TIP3    H2 3530   0.875   5.179   2.411
 1197TIP3   OH2 3531   3.827   0.543   0.063
 1197TIP3    H1 3532   3.781   0.626   0.075
 1197TIP3    H2 3533   3.830   0.505   0.151
 1198TIP3   OH2 3534   2.054   1.002   3.271
 1198TIP3    H1 3535   1.983   0.984   3.209
 1198TIP3    H2 3536   2.043   0.935   3.339
 1199TIP3   OH2 3537   3.264   3.582   5.238
 1199TIP3    H1 3538   3.272   3.674   5.213
 1199TIP3    H2 3539   3.235   3.584   5.329
 1200TIP3   OH2 3540   3.941   5.652   2.141
 1200TIP3    H1 3541   3.889   5.576   2.115
 1200TIP3    H2 3542   3.934   5.655   2.236
 1201TIP3   OH2 3543   5.742   4.967   2.937
 1201TIP3    H1 3544   5.656   5.007   2.947
 1201TIP3    H2 3545   5.724   4.875   2.919
 1202TIP3   OH2 3546   2.376   1.538   0.888
 1202TIP3    H1 3547   2.328   1.570   0.965
 1202TIP3    H2 3548   2.364   1.443   0.890
 1203TIP3   OH2 3549   6.079   4.542   6.042
 1203TIP3    H1 3550   6.067   4.449   6.025
 1203TIP3    H2 3551   6.139   4.546   6.116
 1204TIP3   OH2 3552   5.826   6.233   2.049
 1204TIP3    H1 3553   5.879   6.311   2.036
 1204TIP3    H2 3554   5.878   6.161   2.013
 1205TIP3   OH2 3555   5.082   2.387   4.175
 1205TIP3    H1 3556   5.106   2.458   4.115
 1205TIP3    H2 3557   5.163   2.366   4.221
 1206TIP3   OH2 3558   0.318   7.392   6.272
 1206TIP3    H1 3559   0.226   7.416   6.282
 1206TIP3    H2 3560   0.352   7.454   6.208
 1207TIP3   OH2 3561   4.464   1.598   0.076
 1207TIP3    H1 3562   4.468   1.503   0.074
 1207TIP3    H2 3563   4.534   1.627   0.018
 1208TIP3   OH2 3564   4.839   3.217   1.702
 1208TIP3    H1 3565   4.898   3.152   1.740
 1208TIP3    H2 3566   4.784   3.167   1.641
 1209TIP3   OH2 3567   0.561   0.005   6.113
 1209TIP3    H1 3568   0.643   0.053   6.108
 1209TIP3    H2 3569   0.506   0.058   6.171
 1210TIP3   OH2 3570   2.535   5.614   4.242
 1210TIP3    H1 3571   2.613   5.595   4.191
 1210TIP3    H2 3572   2.504   5.698   4.208
 1211TIP3   OH2 3573   8.218   4.181   5.447
 1211TIP3    H1 3574   8.279   4.177   5.520
 1211TIP3    H2 3575   8.269   4.220   5.375
 1212TIP3   OH2 3576   1.653   1.763   3.165
 1212TIP3    H1 3577   1.585   1.798   3.107
 1212TIP3    H2 3578   1.733   1.809   3.139
 1213TIP3   OH2 3579   4.188   5.152   3.367
 1213TIP3    H1 3580   4.280   5.175   3.357
 1213TIP3    H2 3581   4.166   5.181   3.456
 1214TIP3   OH2 3582   6.890   7.124   5.961
 1214TIP3    H1 3583   6.816   7.181   5.941
 1214TIP3    H2 3584   6.896   7.066   5.886
 1215TIP3   OH2 3585   5.488   7.127   4.615
 1215TIP3    H1 3586   5.431   7.052   4.598
 1215TIP3    H2 3587   5.431   7.192   4.656
 1216TIP3   OH2 3588   7.594   1.348   3.902
 1216TIP3    H1 3589   7.501   1.363   3.883
 1216TIP3    H2 3590   7.622   1.428   3.947
 1217TIP3   OH2 3591   4.487   0.474   3.148
 1217TIP3    H1 3592   4.542   0.519   3.085
 1217TIP3    H2 3593   4.429   0.541   3.183
 1218TIP3   OH2 3594   0.756   3.159   4.170
 1218TIP3    H1 3595   0.758   3.152   4.266
 1218TIP3    H2 3596   0.669   3.125   4.145
 1219TIP3   OH2 3597   7.518   7.365   5.570
 1219TIP3    H1 3598   7.483   7.454   5.572
 1219TIP3    H2 3599   7.442   7.310   5.549
 1220TIP3   OH2 3600   7.127   3.207   3.414
 1220TIP3    H1 3601   7.103   3.158   3.335
 1220TIP3    H2 3602   7.215   3.240   3.397
 1221TIP3   OH2 3603   8.001   1.512   0.069
 1221TIP3    H1 3604   8.077   1.493   0.015
 1221TIP3    H2 3605   8.025   1.480   0.156
 1222TIP3   OH2 3606   5.273   0.247   2.161
 1222TIP3    H1 3607   5.240   0.185   2.226
 1222TIP3    H2 3608   5.329   0.306   2.210
 1223TIP3   OH2 3609   5.750   7.114   6.052
 1223TIP3    H1 3610   5.672   7.074   6.014
 1223TIP3    H2 3611   5.819   7.049   6.037
 1224TIP3   OH2 3612   0.435   4.903   5.333
 1224TIP3    H1 3613   0.360   4.931   5.386
 1224TIP3    H2 3614   0.404   4.913   5.243
 1225TIP3   OH2 3615   0.968   3.283   1.275
 1225TIP3    H1 3616   0.973   3.378   1.290
 1225TIP3    H2 3617   1.052   3.249   1.305
 1226TIP3   OH2 3618   4.047   4.320   1.922
 1226TIP3    H1 3619   4.052   4.246   1.861
 1226TIP3    H2 3620   4.126   4.312   1.976
 1227TIP3   OH2 3621   4.483   4.531   3.211
 1227TIP3    H1 3622   4.574   4.503   3.198
 1227TIP3    H2 3623   4.431   4.461   3.171
 1228TIP3   OH2 3624   4.672   7.540   4.971
 1228TIP3    H1 3625   4.666   7.458   4.921
 1228TIP3    H2 3626   4.582   7.571   4.976
 1229TIP3   OH2 3627   7.458   6.112   5.313
 1229TIP3    H1 3628   7.544   6.135   5.279
 1229TIP3    H2 3629   7.433   6.033   5.266
 1230TIP3   OH2 3630   4.158   2.315   4.968
 1230TIP3    H1 3631   4.110   2.307   4.886
 1230TIP3    H2 3632   4.106   2.376   5.020
 1231TIP3   OH2 3633   0.189   4.256   5.976
 1231TIP3    H1 3634   0.219   4.293   5.893
 1231TIP3    H2 3635   0.214   4.164   5.971
 1232TIP3   OH2 3636   1.034   2.599   6.326
 1232TIP3    H1 3637   1.079   2.620   6.408
 1232TIP3    H2 3638   0.943   2.625   6.342
 1233TIP3   OH2 3639   3.111   2.627   4.274
 1233TIP3    H1 3640   3.152   2.563   4.216
 1233TIP3    H2 3641   3.182   2.686   4.299
 1234TIP3   OH2 3642   4.803   4.547   6.227
 1234TIP3    H1 3643   4.860   4.599   6.171
 1234TIP3    H2 3644   4.744   4.502   6.166
 1235TIP3   OH2 3645   2.810   5.540   5.004
 1235TIP3    H1 3646   2.733   5.585   5.039
 1235TIP3    H2 3647   2.861   5.610   4.962
 1236TIP3   OH2 3648   6.912   1.848   6.521
 1236TIP3    H1 3649   6.872   1.902   6.452
 1236TIP3    H2 3650   6.840   1.829   6.581
 1237TIP3   OH2 3651   0.303   1.429   3.102
 1237TIP3    H1 3652   0.350   1.355   3.063
 1237TIP3    H2 3653   0.287   1.488   3.028
 1238TIP3   OH2 3654   1.281   3.661   2.312
 1238TIP3    H1 3655   1.283   3.743   2.263
 1238TIP3    H2 3656   1.373   3.643   2.333
 1239TIP3   OH2 3657   0.619   3.014   6.394
 1239TIP3    H1 3658   0.678   2.970   6.455
 1239TIP3    H2 3659   0.579   2.944   6.343
 1240TIP3   OH2 3660   0.829   0.072   5.859
 1240TIP3    H1 3661   0.791   0.136   5.920
 1240TIP3    H2 3662   0.859   0.001   5.915
 1241TIP3   OH2 3663   7.786   5.043   2.082
 1241TIP3    H1 3664   7.715   4.983   2.059
 1241TIP3    H2 3665   7.837   4.996   2.148
 1242TIP3   OH2 3666   2.381   1.223   2.646
 1242TIP3    H1 3667   2.452   1.277   2.612
 1242TIP3    H2 3668   2.350   1.174   2.570
 1243TIP3   OH2 3669   0.464   3.984   1.733
 1243TIP3    H1 3670   0.448   3.890   1.726
 1243TIP3    H2 3671   0.547   3.991   1.779
 1244TIP3   OH2 3672   0.679   0.460   2.754
 1244TIP3    H1 3673   0.765   0.502   2.749
 1244TIP3    H2 3674   0.698   0.366   2.751
 1245TIP3   OH2 3675   5.331   5.399   3.062
 1245TIP3    H1 3676   5.301   5.339   3.130
 1245TIP3    H2 3677   5.426   5.386   3.058
 1246TIP3   OH2 3678   3.965   7.601   1.049
 1246TIP3    H1 3679   4.024   7.602   1.124
 1246TIP3    H2 3680   4.022   7.592   0.973
 1247TIP3   OH2 3681   1.265   2.437   5.899
 1247TIP3    H1 3682   1.197   2.496   5.929
 1247TIP3    H2 3683   1.308   2.408   5.980
 1248TIP3   OH2 3684   7.767   3.737   0.014
 1248TIP3    H1 3685   7.822   3.771  -0.056
 1248TIP3    H2 3686   7.765   3.807   0.080
 1249TIP3   OH2 3687   6.038   6.504   5.877
 1249TIP3    H1 3688   5.965   6.442   5.872
 1249TIP3    H2 3689   6.095   6.479   5.804
 1250TIP3   OH2 3690   2.145   3.669   1.429
 1250TIP3    H1 3691   2.215   3.715   1.475
 1250TIP3    H2 3692   2.117   3.729   1.360
 1251TIP3   OH2 3693   5.307   2.725   1.998
 1251TIP3    H1 3694   5.273   2.683   1.920
 1251TIP3    H2 3695   5.358   2.799   1.966
 1252TIP3   OH2 3696   8.254   5.389   0.232
 1252TIP3    H1 3697   8.167   5.350   0.234
 1252TIP3    H2 3698   8.264   5.429   0.319
 1253TIP3   OH2 3699   7.008   0.213   6.097
 1253TIP3    H1 3700   7.051   0.157   6.032
 1253TIP3    H2 3701   6.926   0.239   6.056
 1254TIP3   OH2 3702   0.580   4.272   3.935
 1254TIP3    H1 3703   0.663   4.229   3.916
 1254TIP3    H2 3704   0.550   4.304   3.850
 1255TIP3   OH2 3705   4.718   5.739   1.962
 1255TIP3    H1 3706   4.760   5.824   1.951
 1255TIP3    H2 3707   4.768   5.698   2.033
 1256TIP3   OH2 3708   8.161   0.596   6.505
 1256TIP3    H1 3709   8.254   0.577   6.517
 1256TIP3    H2 3710   8.131   0.530   6.442
 1257TIP3   OH2 3711   5.372   7.005   1.396
 1257TIP3    H1 3712   5.381   7.024   1.303
 1257TIP3    H2 3713   5.295   7.055   1.423
 1258TIP3   OH2 3714   4.100   5.491   4.703
 1258TIP3    H1 3715   4.018   5.520   4.744
 1258TIP3    H2 3716   4.095   5.526   4.613
 1259TIP3   OH2 3717   3.387   5.651   0.906
 1259TIP3    H1 3718   3.407   5.605   0.825
 1259TIP3    H2 3719   3.427   5.737   0.895
 1260TIP3   OH2 3720   5.070   3.572   1.925
 1260TIP3    H1 3721   5.044   3.559   1.834
 1260TIP3    H2 3722   5.058   3.487   1.967
 1261TIP3   OH2 3723   1.009   1.948   5.855
 1261TIP3    H1 3724   1.026   1.867   5.808
 1261TIP3    H2 3725   0.994   2.013   5.786
 1262TIP3   OH2 3726   0.542   5.078   2.791
 1262TIP3    H1 3727   0.561   5.094   2.699
 1262TIP3    H2 3728   0.619   5.113   2.837
 1263TIP3   OH2 3729   0.972   4.876   6.486
 1263TIP3    H1 3730   1.050   4.911   6.528
 1263TIP3    H2 3731   0.996   4.865   6.394
 1264TIP3   OH2 3732   8.331   2.321   4.338
 1264TIP3    H1 3733   8.391   2.392   4.358
 1264TIP3    H2 3734   8.375   2.242   4.370
 1265TIP3   OH2 3735   3.702   7.182   3.795
 1265TIP3    H1 3736   3.705   7.111   3.732
 1265TIP3    H2 3737   3.716   7.262   3.743
 1266TIP3   OH2 3738   3.356   5.550   6.456
 1266TIP3    H1 3739   3.359   5.617   6.387
 1266TIP3    H2 3740   3.447   5.520   6.463
 1267TIP3   OH2 3741   5.638   6.260   1.836
 1267TIP3    H1 3742   5.698   6.247   1.910
 1267TIP3    H2 3743   5.695   6.284   1.763
 1268TIP3   OH2 3744   8.271   0.180   5.769
 1268TIP3    H1 3745   8.176   0.166   5.763
 1268TIP3    H2 3746   8.290   0.172   5.862
 1269TIP3   OH2 3747   7.156   1.862   6.612
 1269TIP3    H1 3748   7.063   1.860   6.591
 1269TIP3    H2 3749   7.174   1.953   6.634
 1270TIP3   OH2 3750   5.590   7.440   4.156
 1270TIP3    H1 3751   5.523   7.375   4.179
 1270TIP3    H2 3752   5.666   7.387   4.133
 1271TIP3   OH2 3753   5.625   6.827   4.596
 1271TIP3    H1 3754   5.686   6.891   4.634
 1271TIP3    H2 3755   5.543   6.842   4.643
 1272TIP3   OH2 3756   3.797   1.385   5.342
 1272TIP3    H1 3757   3.754   1.432   5.414
 1272TIP3    H2 3758   3.772   1.434   5.263
 1273TIP3   OH2 3759   7.437   7.901   3.642
 1273TIP3    H1 3760   7.409   7.857   3.562
 1273TIP3    H2 3761   7.516   7.949   3.617
 1274TIP3   OH2 3762   4.729   4.499   4.727
 1274TIP3    H1 3763   4.641   4.463   4.723
 1274TIP3    H2 3764   4.716   4.594   4.736
 1275TIP3   OH2 3765   6.340   0.912   5.438
 1275TIP3    H1 3766   6.259   0.875   5.403
 1275TIP3    H2 3767   6.409   0.861   5.397
 1276TIP3   OH2 3768   1.159   1.284   6.028
 1276TIP3    H1 3769   1.232   1.346   6.022
 1276TIP3    H2 3770   1.199   1.199   6.012
 1277TIP3   OH2 3771   0.927   7.525   5.046
 1277TIP3    H1 3772   0.891   7.598   4.995
 1277TIP3    H2 3773   0.908   7.547   5.137
 1278TIP3   OH2 3774   2.139   6.788   4.070
 1278TIP3    H1 3775   2.168   6.864   4.020
 1278TIP3    H2 3776   2.049   6.810   4.096
 1279TIP3   OH2 3777   7.467   2.997   5.130
 1279TIP3    H1 3778   7.533   2.932   5.151
 1279TIP3    H2 3779   7.451   2.987   5.036
 1280TIP3   OH2 3780   8.037   4.432   3.037
 1280TIP3    H1 3781   7.983   4.362   3.001
 1280TIP3    H2 3782   8.049   4.409   3.129
 1281TIP3   OH2 3783   3.742   0.436   2.103
 1281TIP3    H1 3784   3.662   0.473   2.141
 1281TIP3    H2 3785   3.789   0.511   2.069
 1282TIP3   OH2 3786   3.627   1.092   4.725
 1282TIP3    H1 3787   3.619   1.002   4.757
 1282TIP3    H2 3788   3.598   1.146   4.798
 1283TIP3   OH2 3789   1.420   3.109   2.241
 1283TIP3    H1 3790   1.471   3.056   2.302
 1283TIP3    H2 3791   1.371   3.169   2.296
 1284TIP3   OH2 3792   6.057   1.493   6.485
 1284TIP3    H1 3793   5.977   1.467   6.439
 1284TIP3    H2 3794   6.128   1.459   6.431
 1285TIP3   OH2 3795   5.962   5.167   2.388
 1285TIP3    H1 3796   5.942   5.155   2.295
 1285TIP3    H2 3797   6.057   5.159   2.394
 1286TIP3   OH2 3798   1.198   4.553   2.602
 1286TIP3    H1 3799   1.251   4.530   2.679
 1286TIP3    H2 3800   1.155   4.471   2.577
 1287TIP3   OH2 3801   0.574   1.723   1.364
 1287TIP3    H1 3802   0.638   1.709   1.434
 1287TIP3    H2 3803   0.564   1.638   1.323
 1288TIP3   OH2 3804   3.065   6.470   2.800
 1288TIP3    H1 3805   3.110   6.532   2.857
 1288TIP3    H2 3806   2.982   6.451   2.845
 1289TIP3   OH2 3807   8.029   4.957   0.888
 1289TIP3    H1 3808   8.122   4.950   0.911
 1289TIP3    H2 3809   8.002   4.867   0.869
 1290TIP3   OH2 3810   3.738   3.232   3.288
 1290TIP3    H1 3811   3.695   3.230   3.373
 1290TIP3    H2 3812   3.776   3.320   3.283
 1291TIP3   OH2 3813   4.951   6.915   6.881
 1291TIP3    H1 3814   4.983   6.841   6.934
 1291TIP3    H2 3815   4.921   6.875   6.799
 1292TIP3   OH2 3816   1.614   4.891   6.794
 1292TIP3    H1 3817   1.616   4.929   6.706
 1292TIP3    H2 3818   1.531   4.844   6.798
 1293TIP3   OH2 3819   3.150   0.470   2.159
 1293TIP3    H1 3820   3.151   0.376   2.141
 1293TIP3    H2 3821   3.074   0.503   2.111
 1294TIP3   OH2 3822   5.176   4.455   2.686
 1294TIP3    H1 3823   5.151   4.363   2.685
 1294TIP3    H2 3824   5.103   4.501   2.645
 1295TIP3   OH2 3825   3.323   3.328   4.128
 1295TIP3    H1 3826   3.313   3.341   4.223
 1295TIP3    H2 3827   3.298   3.412   4.090
 1296TIP3   OH2 3828   5.925   2.232   0.968
 1296TIP3    H1 3829   6.018   2.256   0.959
 1296TIP3    H2 3830   5.879   2.315   0.971
 1297TIP3   OH2 3831   3.634   2.323   1.427
 1297TIP3    H1 3832   3.585   2.247   1.394
 1297TIP3    H2 3833   3.575   2.363   1.491
 1298TIP3   OH2 3834   4.686   1.632   0.786
 1298TIP3    H1 3835   4.762   1.575   0.769
 1298TIP3    H2 3836   4.688   1.648   0.880
 1299TIP3   OH2 3837   3.824   4.794   5.793
 1299TIP3    H1 3838   3.891   4.727   5.788
 1299TIP3    H2 3839   3.742   4.747   5.778
 1300TIP3   OH2 3840   6.312   1.593   3.305
 1300TIP3    H1 3841   6.342   1.611   3.394
 1300TIP3    H2 3842   6.382   1.540   3.267
 1301TIP3   OH2 3843   2.775   4.461   1.852
 1301TIP3    H1 3844   2.729   4.394   1.802
 1301TIP3    H2 3845   2.857   4.420   1.878
 1302TIP3   OH2 3846   4.689   1.753   3.713
 1302TIP3    H1 3847   4.665   1.691   3.782
 1302TIP3    H2 3848   4.682   1.839   3.755
 1303TIP3   OH2 3849   2.642   4.967   3.869
 1303TIP3    H1 3850   2.665   4.881   3.904
 1303TIP3    H2 3851   2.708   5.026   3.905
 1304TIP3   OH2 3852   6.111   6.619   3.678
 1304TIP3    H1 3853   6.202   6.645   3.665
 1304TIP3    H2 3854   6.072   6.691   3.728
 1305TIP3   OH2 3855   4.388   2.884   4.863
 1305TIP3    H1 3856   4.444   2.811   4.889
 1305TIP3    H2 3857   4.441   2.934   4.800
 1306TIP3   OH2 3858   3.652   4.944   5.623
 1306TIP3    H1 3859   3.604   4.895   5.556
 1306TIP3    H2 3860   3.720   4.883   5.653
 1307TIP3   OH2 3861   4.938   4.995   5.269
 1307TIP3    H1 3862   4.931   4.900   5.266
 1307TIP3    H2 3863   5.023   5.011   5.311
 1308TIP3   OH2 3864   7.845   2.603   3.719
 1308TIP3    H1 3865   7.771   2.543   3.718
 1308TIP3    H2 3866   7.813   2.682   3.676
 1309TIP3   OH2 3867   8.153   6.334   4.541
 1309TIP3    H1 3868   8.074   6.308   4.589
 1309TIP3    H2 3869   8.224   6.287   4.584
 1310TIP3   OH2 3870   0.766   0.311   3.115
 1310TIP3    H1 3871   0.841   0.346   3.067
 1310TIP3    H2 3872   0.736   0.384   3.169
 1311TIP3   OH2 3873   8.349   3.362   5.931
 1311TIP3    H1 3874   8.282   3.301   5.901
 1311TIP3    H2 3875   8.299   3.437   5.966
 1312TIP3   OH2 3876   5.465   5.115   2.223
 1312TIP3    H1 3877   5.531   5.060   2.265
 1312TIP3    H2 3878   5.382   5.082   2.257
 1313TIP3   OH2 3879   0.700   0.503   4.544
 1313TIP3    H1 3880   0.784   0.469   4.574
 1313TIP3    H2 3881   0.716   0.595   4.526
 1314TIP3   OH2 3882   7.497   4.956   0.102
 1314TIP3    H1 3883   7.573   4.922   0.054
 1314TIP3    H2 3884   7.422   4.914   0.061
 1315TIP3   OH2 3885   8.088   2.448   0.762
 1315TIP3    H1 3886   8.009   2.497   0.784
 1315TIP3    H2 3887   8.097   2.382   0.831
 1316TIP3   OH2 3888   7.754   0.011   4.469
 1316TIP3    H1 3889   7.797   0.086   4.511
 1316TIP3    H2 3890   7.759   0.030   4.376
 1317TIP3   OH2 3891   0.330   4.923   2.842
 1317TIP3    H1 3892   0.415   4.966   2.834
 1317TIP3    H2 3893   0.278   4.983   2.896
 1318TIP3   OH2 3894   7.394   5.205   5.852
 1318TIP3    H1 3895   7.328   5.273   5.838
 1318TIP3    H2 3896   7.350   5.123   5.828
 1319TIP3   OH2 3897   1.727   1.086   3.411
 1319TIP3    H1 3898   1.692   0.997   3.400
 1319TIP3    H2 3899   1.766   1.084   3.499
 1320TIP3   OH2 3900   2.374   2.426   2.956
 1320TIP3    H1 3901   2.356   2.502   2.900
 1320TIP3    H2 3902   2.291   2.378   2.960
 1321TIP3   OH2 3903   6.124   4.012   5.257
 1321TIP3    H1 3904   6.131   3.953   5.332
 1321TIP3    H2 3905   6.156   4.096   5.290
 1322TIP3   OH2 3906   5.597   6.828   1.843
 1322TIP3    H1 3907   5.685   6.801   1.870
 1322TIP3    H2 3908   5.602   6.832   1.748
 1323TIP3   OH2 3909   6.123   6.570   0.072
 1323TIP3    H1 3910   6.128   6.528  -0.013
 1323TIP3    H2 3911   6.180   6.517   0.128
 1324TIP3   OH2 3912   4.787   2.521   4.858
 1324TIP3    H1 3913   4.712   2.548   4.911
 1324TIP3    H2 3914   4.776   2.566   4.775
 1325TIP3   OH2 3915   3.942   6.625   2.368
 1325TIP3    H1 3916   3.996   6.591   2.440
 1325TIP3    H2 3917   3.975   6.714   2.354
 1326TIP3   OH2 3918   6.921   6.083   6.640
 1326TIP3    H1 3919   6.827   6.089   6.625
 1326TIP3    H2 3920   6.955   6.043   6.560
 1327TIP3   OH2 3921   5.600   0.035   5.302
 1327TIP3    H1 3922   5.624   0.127   5.293
 1327TIP3    H2 3923   5.545   0.018   5.226
 1328TIP3   OH2 3924   5.884   6.466   4.873
 1328TIP3    H1 3925   5.793   6.462   4.842
 1328TIP3    H2 3926   5.914   6.553   4.850
 1329TIP3   OH2 3927   5.423   3.738   6.327
 1329TIP3    H1 3928   5.433   3.643   6.330
 1329TIP3    H2 3929   5.340   3.755   6.371
 1330TIP3   OH2 3930   4.571   3.480   6.841
 1330TIP3    H1 3931   4.520   3.530   6.905
 1330TIP3    H2 3932   4.607   3.546   6.782
 1331TIP3   OH2 3933   6.162   0.382   6.575
 1331TIP3    H1 3934   6.126   0.323   6.642
 1331TIP3    H2 3935   6.095   0.384   6.507
 1332TIP3   OH2 3936   4.359   0.668   0.642
 1332TIP3    H1 3937   4.433   0.626   0.599
 1332TIP3    H2 3938   4.346   0.749   0.593
 1333TIP3   OH2 3939   6.459   5.807   5.710
 1333TIP3    H1 3940   6.488   5.716   5.707
 1333TIP3    H2 3941   6.535   5.858   5.681
 1334TIP3   OH2 3942   5.255   7.039   5.875
 1334TIP3    H1 3943   5.220   6.949   5.879
 1334TIP3    H2 3944   5.178   7.093   5.859
 1335TIP3   OH2 3945   4.321   0.512   2.247
 1335TIP3    H1 3946   4.234   0.483   2.274
 1335TIP3    H2 3947   4.332   0.598   2.287
 1336TIP3   OH2 3948   4.917   7.213   6.612
 1336TIP3    H1 3949   4.922   7.135   6.557
 1336TIP3    H2 3950   5.005   7.251   6.609
 1337TIP3   OH2 3951   7.640   0.375   5.187
 1337TIP3    H1 3952   7.700   0.408   5.253
 1337TIP3    H2 3953   7.618   0.451   5.134
 1338TIP3   OH2 3954   7.940   7.216   6.302
 1338TIP3    H1 3955   8.024   7.241   6.262
 1338TIP3    H2 3956   7.874   7.241   6.237
 1339TIP3   OH2 3957   3.752   0.588   4.480
 1339TIP3    H1 3958   3.662   0.590   4.448
 1339TIP3    H2 3959   3.796   0.524   4.424
 1340TIP3   OH2 3960   8.028   5.599   2.873
 1340TIP3    H1 3961   8.081   5.533   2.917
 1340TIP3    H2 3962   7.944   5.557   2.858
 1341TIP3   OH2 3963   8.120   1.053   2.473
 1341TIP3    H1 3964   8.030   1.021   2.476
 1341TIP3    H2 3965   8.135   1.074   2.381
 1342TIP3   OH2 3966   0.366   5.385   4.906
 1342TIP3    H1 3967   0.456   5.355   4.892
 1342TIP3    H2 3968   0.311   5.324   4.858
 1343TIP3   OH2 3969   3.539   5.911   2.227
 1343TIP3    H1 3970   3.469   5.945   2.173
 1343TIP3    H2 3971   3.617   5.958   2.197
 1344TIP3   OH2 3972   6.734   0.192   0.740
 1344TIP3    H1 3973   6.672   0.259   0.768
 1344TIP3    H2 3974   6.814   0.210   0.790
 1345TIP3   OH2 3975   0.270   0.379   4.545
 1345TIP3    H1 3976   0.363   0.400   4.536
 1345TIP3    H2 3977   0.225   0.462   4.527
 1346TIP3   OH2 3978   5.661   5.649   0.109
 1346TIP3    H1 3979   5.600   5.634   0.037
 1346TIP3    H2 3980   5.694   5.562   0.131
 1347TIP3   OH2 3981   5.887   3.040   1.796
 1347TIP3    H1 3982   5.824   2.970   1.810
 1347TIP3    H2 3983   5.929   3.052   1.881
 1348TIP3   OH2 3984   5.011   2.720   2.638
 1348TIP3    H1 3985   5.035   2.805   2.602
 1348TIP3    H2 3986   5.029   2.727   2.732
 1349TIP3   OH2 3987   5.520   6.000   1.849
 1349TIP3    H1 3988   5.475   5.979   1.767
 1349TIP3    H2 3989   5.550   6.091   1.837
 1350TIP3   OH2 3990   6.760   3.567   3.684
 1350TIP3    H1 3991   6.690   3.628   3.662
 1350TIP3    H2 3992   6.772   3.514   3.606
 1351TIP3   OH2 3993   2.853   6.648   4.614
 1351TIP3    H1 3994   2.770   6.666   4.658
 1351TIP3    H2 3995   2.882   6.734   4.582
 1352TIP3   OH2 3996   7.339   1.960   4.026
 1352TIP3    H1 3997   7.413   1.997   3.978
 1352TIP3    H2 3998   7.361   1.868   4.036
 1353TIP3   OH2 3999   8.014   1.802   2.003
 1353TIP3    H1 4000   7.952   1.791   2.076
 1353TIP3    H2 4001   8.094   1.758   2.033
 1354TIP3   OH2 4002   7.290   7.084   5.943
 1354TIP3    H1 4003   7.230   7.154   5.968
 1354TIP3    H2 4004   7.323   7.050   6.026
 1355TIP3   OH2 4005   1.955   5.263   2.522
 1355TIP3    H1 4006   1.861   5.274   2.535
 1355TIP3    H2 4007   1.992   5.351   2.536
 1356TIP3   OH2 4008   5.120   0.111   1.705
 1356TIP3    H1 4009   5.107   0.164   1.784
 1356TIP3    H2 4010   5.156   0.172   1.641
 1357TIP3   OH2 4011   2.102   5.180   6.485
 1357TIP3    H1 4012   2.125   5.185   6.578
 1357TIP3    H2 4013   2.007   5.191   6.484
 1358TIP3   OH2 4014   5.181   1.496   1.110
 1358TIP3    H1 4015   5.223   1.579   1.135
 1358TIP3    H2 4016   5.141   1.464   1.191
 1359TIP3   OH2 4017   6.510   7.035   6.360
 1359TIP3    H1 4018   6.545   7.118   6.330
 1359TIP3    H2 4019   6.481   6.991   6.280
 1360TIP3   OH2 4020   5.833   4.216   2.938
 1360TIP3    H1 4021   5.790   4.131   2.926
 1360TIP3    H2 4022   5.821   4.236   3.030
 1361TIP3   OH2 4023   0.254   2.469   6.287
 1361TIP3    H1 4024   0.221   2.390   6.330
 1361TIP3    H2 4025   0.346   2.475   6.314
 1362TIP3   OH2 4026   2.513   4.518   6.611
 1362TIP3    H1 4027   2.433   4.532   6.559
 1362TIP3    H2 4028   2.482   4.478   6.692
 1363TIP3   OH2 4029   0.954   2.146   5.064
 1363TIP3    H1 4030   0.904   2.066   5.050
 1363TIP3    H2 4031   0.889   2.210   5.092
 1364TIP3   OH2 4032   6.565   4.298   1.759
 1364TIP3    H1 4033   6.539   4.206   1.756
 1364TIP3    H2 4034   6.545   4.331   1.671
 1365TIP3   OH2 4035   3.810   4.164   6.098
 1365TIP3    H1 4036   3.868   4.233   6.130
 1365TIP3    H2 4037   3.765   4.133   6.177
 1366TIP3   OH2 4038   4.683   5.204   5.286
 1366TIP3    H1 4039   4.660   5.250   5.367
 1366TIP3    H2 4040   4.771   5.170   5.301
 1367TIP3   OH2 4041   6.317   1.026   4.887
 1367TIP3    H1 4042   6.255   1.069   4.829
 1367TIP3    H2 4043   6.387   0.994   4.829
 1368TIP3   OH2 4044   4.816   7.338   5.256
 1368TIP3    H1 4045   4.775   7.423   5.274
 1368TIP3    H2 4046   4.873   7.355   5.182
 1369TIP3   OH2 4047   7.418   1.155   2.595
 1369TIP3    H1 4048   7.338   1.104   2.611
 1369TIP3    H2 4049   7.412   1.228   2.657
 1370TIP3   OH2 4050   2.687   1.823   0.790
 1370TIP3    H1 4051   2.612   1.793   0.738
 1370TIP3    H2 4052   2.740   1.744   0.802
 1371TIP3   OH2 4053   3.275   0.381   0.607
 1371TIP3    H1 4054   3.211   0.438   0.566
 1371TIP3    H2 4055   3.223   0.313   0.649
 1372TIP3   OH2 4056   5.428   1.146   4.378
 1372TIP3    H1 4057   5.488   1.193   4.436
 1372TIP3    H2 4058   5.343   1.149   4.423
 1373TIP3   OH2 4059   0.172   1.227   1.042
 1373TIP3    H1 4060   0.179   1.154   1.103
 1373TIP3    H2 4061   0.137   1.187   0.962
 1374TIP3   OH2 4062   4.369   3.558   3.693
 1374TIP3    H1 4063   4.380   3.650   3.668
 1374TIP3    H2 4064   4.301   3.526   3.634
 1375TIP3   OH2 4065   4.450   2.596   4.073
 1375TIP3    H1 4066   4.395   2.641   4.137
 1375TIP3    H2 4067   4.389   2.566   4.006
 1376TIP3   OH2 4068   2.639   6.939   3.269
 1376TIP3    H1 4069   2.708   6.966   3.329
 1376TIP3    H2 4070   2.678   6.948   3.182
 1377TIP3   OH2 4071   0.320   7.332   4.207
 1377TIP3    H1 4072   0.412   7.356   4.192
 1377TIP3    H2 4073   0.298   7.274   4.134
 1378TIP3   OH2 4074   0.711   4.909   3.638
 1378TIP3    H1 4075   0.658   4.983   3.607
 1378TIP3    H2 4076   0.790   4.950   3.673
 1379TIP3   OH2 4077   7.837   3.679   6.547
 1379TIP3    H1 4078   7.869   3.686   6.637
 1379TIP3    H2 4079   7.864   3.761   6.506
 1380TIP3   OH2 4080   0.093   0.359   6.717
 1380TIP3    H1 4081   0.047   0.435   6.752
 1380TIP3    H2 4082   0.170   0.350   6.773
 1381TIP3   OH2 4083   1.565   6.993   2.496
 1381TIP3    H1 4084   1.562   7.079   2.538
 1381TIP3    H2 4085   1.616   6.938   2.555
 1382TIP3   OH2 4086   4.687   3.769   5.849
 1382TIP3    H1 4087   4.625   3.712   5.804
 1382TIP3    H2 4088   4.641   3.796   5.929
 1383TIP3   OH2 4089   6.803   0.314   1.904
 1383TIP3    H1 4090   6.721   0.352   1.871
 1383TIP3    H2 4091   6.809   0.229   1.860
 1384TIP3   OH2 4092   8.153   3.668   4.813
 1384TIP3    H1 4093   8.236   3.624   4.796
 1384TIP3    H2 4094   8.108   3.669   4.729
 1385TIP3   OH2 4095   7.482   7.838   4.191
 1385TIP3    H1 4096   7.397   7.871   4.163
 1385TIP3    H2 4097   7.540   7.853   4.116
 1386TIP3   OH2 4098   6.352   2.005   4.492
 1386TIP3    H1 4099   6.418   1.936   4.491
 1386TIP3    H2 4100   6.362   2.047   4.577
 1387TIP3   OH2 4101   7.453   1.821   6.412
 1387TIP3    H1 4102   7.491   1.789   6.494
 1387TIP3    H2 4103   7.494   1.768   6.344
 1388TIP3   OH2 4104   6.881   3.119   5.056
 1388TIP3    H1 4105   6.961   3.072   5.079
 1388TIP3    H2 4106   6.845   3.070   4.983
 1389TIP3   OH2 4107   7.296   6.688   6.784
 1389TIP3    H1 4108   7.304   6.719   6.694
 1389TIP3    H2 4109   7.297   6.593   6.777
 1390TIP3   OH2 4110   6.911   5.347   5.244
 1390TIP3    H1 4111   6.904   5.343   5.340
 1390TIP3    H2 4112   6.888   5.438   5.223
 1391TIP3   OH2 4113   2.909   7.843   5.526
 1391TIP3    H1 4114   2.957   7.919   5.559
 1391TIP3    H2 4115   2.865   7.874   5.447
 1392TIP3   OH2 4116   7.304   4.180   6.154
 1392TIP3    H1 4117   7.210   4.189   6.173
 1392TIP3    H2 4118   7.308   4.114   6.085
 1393TIP3   OH2 4119   6.963   4.681   3.790
 1393TIP3    H1 4120   6.889   4.670   3.730
 1393TIP3    H2 4121   6.923   4.685   3.877
 1394TIP3   OH2 4122   5.402   4.950   5.825
 1394TIP3    H1 4123   5.459   4.904   5.886
 1394TIP3    H2 4124   5.379   5.031   5.870
 1395TIP3   OH2 4125   2.070   1.279   3.260
 1395TIP3    H1 4126   2.067   1.209   3.325
 1395TIP3    H2 4127   2.086   1.234   3.177
 1396TIP3   OH2 4128   1.921   1.236   2.334
 1396TIP3    H1 4129   1.911   1.192   2.249
 1396TIP3    H2 4130   1.983   1.307   2.318
 1397TIP3   OH2 4131   6.838   1.019   0.131
 1397TIP3    H1 4132   6.784   1.077   0.184
 1397TIP3    H2 4133   6.926   1.057   0.136
 1398TIP3   OH2 4134   6.758   0.675   5.995
 1398TIP3    H1 4135   6.682   0.618   5.981
 1398TIP3    H2 4136   6.828   0.632   5.946
 1399TIP3   OH2 4137   6.770   2.166   2.633
 1399TIP3    H1 4138   6.818   2.249   2.638
 1399TIP3    H2 4139   6.830   2.102   2.672
 1400TIP3   OH2 4140   0.654   5.899   2.188
 1400TIP3    H1 4141   0.733   5.933   2.231
 1400TIP3    H2 4142   0.673   5.807   2.173
 1401TIP3   OH2 4143   3.720   7.919   4.351
 1401TIP3    H1 4144   3.686   7.943   4.265
 1401TIP3    H2 4145   3.669   7.843   4.377
 1402TIP3   OH2 4146   1.032   1.294   2.962
 1402TIP3    H1 4147   1.114   1.303   3.010
 1402TIP3    H2 4148   1.059   1.280   2.871
 1403TIP3   OH2 4149   8.110   1.962   0.237
 1403TIP3    H1 4150   8.083   1.872   0.256
 1403TIP3    H2 4151   8.027   2.010   0.232
 1404TIP3   OH2 4152   5.780   1.422   3.656
 1404TIP3    H1 4153   5.785   1.473   3.576
 1404TIP3    H2 4154   5.697   1.374   3.649
 1405TIP3   OH2 4155   5.840   3.711   0.328
 1405TIP3    H1 4156   5.755   3.734   0.366
 1405TIP3    H2 4157   5.817   3.658   0.251
 1406TIP3   OH2 4158   0.948   7.357   3.929
 1406TIP3    H1 4159   0.885   7.301   3.883
 1406TIP3    H2 4160   1.025   7.302   3.941
 1407TIP3   OH2 4161   1.073   5.101   2.804
 1407TIP3    H1 4162   1.111   5.027   2.758
 1407TIP3    H2 4163   1.146   5.144   2.847
 1408TIP3   OH2 4164   0.158   3.066   0.640
 1408TIP3    H1 4165   0.105   3.063   0.561
 1408TIP3    H2 4166   0.107   3.018   0.705
 1409TIP3   OH2 4167   1.619   3.351   4.016
 1409TIP3    H1 4168   1.633   3.444   3.997
 1409TIP3    H2 4169   1.619   3.309   3.930
 1410TIP3   OH2 4170   6.415   6.683   0.377
 1410TIP3    H1 4171   6.330   6.679   0.421
 1410TIP3    H2 4172   6.449   6.770   0.400
 1411TIP3   OH2 4173   2.985   7.437   1.746
 1411TIP3    H1 4174   2.910   7.495   1.761
 1411TIP3    H2 4175   2.992   7.385   1.826
 1412TIP3   OH2 4176   3.885   7.934   5.179
 1412TIP3    H1 4177   3.955   7.912   5.117
 1412TIP3    H2 4178   3.931   7.946   5.262
 1413TIP3   OH2 4179   4.983   6.623   6.040
 1413TIP3    H1 4180   4.996   6.530   6.022
 1413TIP3    H2 4181   4.941   6.625   6.126
 1414TIP3   OH2 4182   6.074   7.126   3.198
 1414TIP3    H1 4183   6.053   7.034   3.212
 1414TIP3    H2 4184   6.017   7.174   3.259
 1415TIP3   OH2 4185   4.957   2.129   6.043
 1415TIP3    H1 4186   4.955   2.107   6.136
 1415TIP3    H2 4187   4.870   2.105   6.011
 1416TIP3   OH2 4188   5.848   1.413   5.017
 1416TIP3    H1 4189   5.874   1.490   5.068
 1416TIP3    H2 4190   5.808   1.354   5.081
 1417TIP3   OH2 4191   3.768   6.221   1.713
 1417TIP3    H1 4192   3.857   6.185   1.712
 1417TIP3    H2 4193   3.775   6.306   1.671
 1418TIP3   OH2 4194   5.510   0.062   5.843
 1418TIP3    H1 4195   5.490   0.072   5.750
 1418TIP3    H2 4196   5.559  -0.020   5.848
 1419TIP3   OH2 4197   7.499   7.356   1.765
 1419TIP3    H1 4198   7.442   7.307   1.706
 1419TIP3    H2 4199   7.512   7.298   1.840
 1420TIP3   OH2 4200   7.155   4.611   0.123
 1420TIP3    H1 4201   7.122   4.639   0.209
 1420TIP3    H2 4202   7.089   4.549   0.092
 1421TIP3   OH2 4203   0.248   0.210   0.245
 1421TIP3    H1 4204   0.256   0.192   0.338
 1421TIP3    H2 4205   0.317   0.158   0.204
 1422TIP3   OH2 4206   6.880   7.811   6.551
 1422TIP3    H1 4207   6.796   7.809   6.505
 1422TIP3    H2 4208   6.882   7.728   6.599
 1423TIP3   OH2 4209   3.538   3.644   4.913
 1423TIP3    H1 4210   3.578   3.612   4.832
 1423TIP3    H2 4211   3.553   3.574   4.976
 1424TIP3   OH2 4212   7.282   0.154   2.476
 1424TIP3    H1 4213   7.297   0.186   2.387
 1424TIP3    H2 4214   7.295   0.059   2.470
 1425TIP3   OH2 4215   4.492   0.391   2.699
 1425TIP3    H1 4216   4.437   0.328   2.653
 1425TIP3    H2 4217   4.563   0.410   2.637
 1426TIP3   OH2 4218   0.227   6.129   1.746
 1426TIP3    H1 4219   0.134   6.151   1.756
 1426TIP3    H2 4220   0.258   6.117   1.836
 1427TIP3   OH2 4221   6.963   2.800   1.521
 1427TIP3    H1 4222   6.941   2.805   1.428
 1427TIP3    H2 4223   6.903   2.861   1.564
 1428TIP3   OH2 4224   4.247   1.708   4.906
 1428TIP3    H1 4225   4.198   1.731   4.828
 1428TIP3    H2 4226   4.336   1.693   4.875
 1429TIP3   OH2 4227   2.170   0.329   6.325
 1429TIP3    H1 4228   2.105   0.367   6.267
 1429TIP3    H2 4229   2.178   0.238   6.296
 1430TIP3   OH2 4230   4.010   6.095   4.000
 1430TIP3    H1 4231   4.071   6.169   4.002
 1430TIP3    H2 4232   3.944   6.116   4.067
 1431TIP3   OH2 4233   2.561   2.518   3.497
 1431TIP3    H1 4234   2.636   2.541   3.442
 1431TIP3    H2 4235   2.539   2.428   3.471
 1432TIP3   OH2 4236   8.295   2.076   2.812
 1432TIP3    H1 4237   8.218   2.035   2.851
 1432TIP3    H2 4238   8.294   2.166   2.846
 1433TIP3   OH2 4239   4.108   5.802   1.739
 1433TIP3    H1 4240   4.198   5.811   1.707
 1433TIP3    H2 4241   4.115   5.809   1.834
 1434TIP3   OH2 4242   2.685   0.615   1.873
 1434TIP3    H1 4243   2.718   0.621   1.783
 1434TIP3    H2 4244   2.649   0.702   1.890
 1435TIP3   OH2 4245   0.195   4.138   3.999
 1435TIP3    H1 4246   0.106   4.162   3.973
 1435TIP3    H2 4247   0.240   4.120   3.917
 1436TIP3   OH2 4248   4.372   7.372   2.419
 1436TIP3    H1 4249   4.364   7.340   2.508
 1436TIP3    H2 4250   4.337   7.461   2.421
 1437TIP3   OH2 4251   6.929   4.729   3.340
 1437TIP3    H1 4252   7.011   4.735   3.389
 1437TIP3    H2 4253   6.948   4.667   3.269
 1438TIP3   OH2 4254   6.402   4.733   5.194
 1438TIP3    H1 4255   6.387   4.735   5.100
 1438TIP3    H2 4256   6.322   4.767   5.233
 1439TIP3   OH2 4257   1.843   2.352   2.126
 1439TIP3    H1 4258   1.933   2.322   2.118
 1439TIP3    H2 4259   1.849   2.436   2.171
 1440TIP3   OH2 4260   1.791   6.569   6.779
 1440TIP3    H1 4261   1.792   6.474   6.792
 1440TIP3    H2 4262   1.700   6.594   6.795
 1441TIP3   OH2 4263   0.666   2.336   4.297
 1441TIP3    H1 4264   0.593   2.398   4.306
 1441TIP3    H2 4265   0.637   2.275   4.229
 1442TIP3   OH2 4266   4.247   0.347   1.007
 1442TIP3    H1 4267   4.183   0.275   1.009
 1442TIP3    H2 4268   4.332   0.303   1.011
 1443TIP3   OH2 4269   0.016   7.013   4.608
 1443TIP3    H1 4270  -0.042   7.056   4.671
 1443TIP3    H2 4271   0.053   7.085   4.557
 1444TIP3   OH2 4272   7.491   5.606   6.014
 1444TIP3    H1 4273   7.541   5.552   5.953
 1444TIP3    H2 4274   7.448   5.543   6.072
 1445TIP3   OH2 4275   4.065   1.888   0.685
 1445TIP3    H1 4276   4.122   1.895   0.762
 1445TIP3    H2 4277   3.995   1.830   0.713
 1446TIP3   OH2 4278   1.787   7.191   0.567
 1446TIP3    H1 4279   1.722   7.141   0.517
 1446TIP3    H2 4280   1.842   7.124   0.609
 1447TIP3   OH2 4281   2.008   5.952   3.271
 1447TIP3    H1 4282   2.028   6.036   3.231
 1447TIP3    H2 4283   1.972   5.974   3.357
 1448TIP3   OH2 4284   5.008   7.124   4.876
 1448TIP3    H1 4285   5.012   7.219   4.861
 1448TIP3    H2 4286   4.927   7.097   4.832
 1449TIP3   OH2 4287   6.162   5.682   6.247
 1449TIP3    H1 4288   6.117   5.628   6.312
 1449TIP3    H2 4289   6.093   5.738   6.211
 1450TIP3   OH2 4290   6.317   6.985   5.938
 1450TIP3    H1 4291   6.370   6.935   5.999
 1450TIP3    H2 4292   6.289   7.062   5.987
 1451TIP3   OH2 4293   6.812   2.205   3.426
 1451TIP3    H1 4294   6.824   2.148   3.502
 1451TIP3    H2 4295   6.724   2.241   3.436
 1452TIP3   OH2 4296   7.895   7.011   6.759
 1452TIP3    H1 4297   7.938   7.035   6.677
 1452TIP3    H2 4298   7.849   6.929   6.740
 1453TIP3   OH2 4299   7.000   1.652   5.845
 1453TIP3    H1 4300   6.981   1.601   5.924
 1453TIP3    H2 4301   7.042   1.732   5.877
 1454TIP3   OH2 4302   6.271   7.947   5.632
 1454TIP3    H1 4303   6.243   7.857   5.652
 1454TIP3    H2 4304   6.323   7.973   5.709
 1455TIP3   OH2 4305   1.325   4.647   3.806
 1455TIP3    H1 4306   1.362   4.612   3.725
 1455TIP3    H2 4307   1.232   4.627   3.801
 1456TIP3   OH2 4308   3.474   0.550   2.114
 1456TIP3    H1 4309   3.454   0.533   2.022
 1456TIP3    H2 4310   3.399   0.600   2.146
 1457TIP3   OH2 4311   4.915   2.690   1.271
 1457TIP3    H1 4312   4.822   2.684   1.292
 1457TIP3    H2 4313   4.950   2.753   1.333
 1458TIP3   OH2 4314   7.539   5.676   4.033
 1458TIP3    H1 4315   7.553   5.581   4.028
 1458TIP3    H2 4316   7.621   5.709   4.071
 1459TIP3   OH2 4317   4.080   1.721   6.365
 1459TIP3    H1 4318   4.122   1.677   6.290
 1459TIP3    H2 4319   4.083   1.656   6.435
 1460TIP3   OH2 4320   4.543   0.056   2.346
 1460TIP3    H1 4321   4.491   0.088   2.420
 1460TIP3    H2 4322   4.517   0.112   2.273
 1461TIP3   OH2 4323   1.298   6.770   3.180
 1461TIP3    H1 4324   1.277   6.773   3.274
 1461TIP3    H2 4325   1.358   6.843   3.167
 1462TIP3   OH2 4326   6.925   5.007   0.780
 1462TIP3    H1 4327   7.012   4.996   0.741
 1462TIP3    H2 4328   6.941   5.049   0.864
 1463TIP3   OH2 4329   0.941   6.336   6.760
 1463TIP3    H1 4330   0.896   6.384   6.830
 1463TIP3    H2 4331   1.030   6.371   6.761
 1464TIP3   OH2 4332   5.425   1.484   2.590
 1464TIP3    H1 4333   5.486   1.473   2.663
 1464TIP3    H2 4334   5.338   1.490   2.631
 1465TIP3   OH2 4335   7.979   4.680   6.848
 1465TIP3    H1 4336   7.948   4.649   6.933
 1465TIP3    H2 4337   7.963   4.607   6.788
 1466TIP3   OH2 4338   5.530   2.026   5.216
 1466TIP3    H1 4339   5.616   2.047   5.252
 1466TIP3    H2 4340   5.474   2.013   5.293
 1467TIP3   OH2 4341   3.315   3.589   0.452
 1467TIP3    H1 4342   3.402   3.605   0.414
 1467TIP3    H2 4343   3.257   3.584   0.376
 1468TIP3   OH2 4344   1.339   2.706   0.876
 1468TIP3    H1 4345   1.432   2.701   0.855
 1468TIP3    H2 4346   1.330   2.654   0.956
 1469TIP3   OH2 4347   2.352   6.453   0.779
 1469TIP3    H1 4348   2.287   6.403   0.828
 1469TIP3    H2 4349   2.434   6.437   0.825
 1470TIP3   OH2 4350   7.895   2.576   4.207
 1470TIP3    H1 4351   7.884   2.523   4.286
 1470TIP3    H2 4352   7.860   2.522   4.136
 1471TIP3   OH2 4353   5.631   3.980   5.640
 1471TIP3    H1 4354   5.609   4.011   5.728
 1471TIP3    H2 4355   5.601   4.050   5.582
 1472TIP3   OH2 4356   7.093   6.693   1.356
 1472TIP3    H1 4357   7.148   6.622   1.323
 1472TIP3    H2 4358   7.097   6.761   1.288
 1473TIP3   OH2 4359   4.771   2.242   3.490
 1473TIP3    H1 4360   4.760   2.150   3.469
 1473TIP3    H2 4361   4.731   2.253   3.576
 1474TIP3   OH2 4362   3.741   7.713   0.839
 1474TIP3    H1 4363   3.741   7.628   0.883
 1474TIP3    H2 4364   3.799   7.768   0.891
 1475TIP3   OH2 4365   1.112   5.902   1.603
 1475TIP3    H1 4366   1.120   5.895   1.508
 1475TIP3    H2 4367   1.077   5.990   1.618
 1476TIP3   OH2 4368   2.452   2.765   6.144
 1476TIP3    H1 4369   2.393   2.695   6.118
 1476TIP3    H2 4370   2.434   2.836   6.081
 1477TIP3   OH2 4371   7.030   3.142   5.370
 1477TIP3    H1 4372   7.084   3.099   5.303
 1477TIP3    H2 4373   7.039   3.086   5.447
 1478TIP3   OH2 4374   0.084   0.449   0.525
 1478TIP3    H1 4375   0.080   0.428   0.431
 1478TIP3    H2 4376   0.074   0.365   0.569
 1479TIP3   OH2 4377   5.831   4.840   4.225
 1479TIP3    H1 4378   5.919   4.858   4.192
 1479TIP3    H2 4379   5.844   4.785   4.302
 1480TIP3   OH2 4380   0.750   0.109   1.782
 1480TIP3    H1 4381   0.727   0.029   1.735
 1480TIP3    H2 4382   0.666   0.152   1.800
 1481TIP3   OH2 4383   5.337   1.689   4.388
 1481TIP3    H1 4384   5.426   1.662   4.365
 1481TIP3    H2 4385   5.290   1.691   4.305
 1482TIP3   OH2 4386   1.155   6.471   2.902
 1482TIP3    H1 4387   1.223   6.421   2.858
 1482TIP3    H2 4388   1.105   6.511   2.830
 1483TIP3   OH2 4389   3.547   2.455   0.545
 1483TIP3    H1 4390   3.605   2.520   0.507
 1483TIP3    H2 4391   3.485   2.505   0.598
 1484TIP3   OH2 4392   0.247   5.137   4.042
 1484TIP3    H1 4393   0.293   5.071   3.990
 1484TIP3    H2 4394   0.154   5.120   4.028
 1485TIP3   OH2 4395   7.110   1.567   6.454
 1485TIP3    H1 4396   7.161   1.549   6.376
 1485TIP3    H2 4397   7.138   1.654   6.482
 1486TIP3   OH2 4398   7.840   0.367   6.749
 1486TIP3    H1 4399   7.884   0.303   6.806
 1486TIP3    H2 4400   7.772   0.316   6.705
 1487TIP3   OH2 4401   0.052   2.247   5.098
 1487TIP3    H1 4402   0.106   2.299   5.038
 1487TIP3    H2 4403   0.100   2.164   5.107
 1488TIP3   OH2 4404   5.877   0.332   0.774
 1488TIP3    H1 4405   5.827   0.258   0.808
 1488TIP3    H2 4406   5.928   0.363   0.848
 1489TIP3   OH2 4407   6.334   2.915   5.303
 1489TIP3    H1 4408   6.356   2.884   5.391
 1489TIP3    H2 4409   6.417   2.941   5.265
 1490TIP3   OH2 4410   3.340   0.510   4.102
 1490TIP3    H1 4411   3.256   0.504   4.057
 1490TIP3    H2 4412   3.322   0.480   4.191
 1491TIP3   OH2 4413   8.036   1.771   4.558
 1491TIP3    H1 4414   8.011   1.747   4.469
 1491TIP3    H2 4415   7.976   1.722   4.614
 1492TIP3   OH2 4416   8.182   7.513   5.023
 1492TIP3    H1 4417   8.216   7.588   4.975
 1492TIP3    H2 4418   8.089   7.510   5.002
 1493TIP3   OH2 4419   1.614   4.764   1.409
 1493TIP3    H1 4420   1.665   4.838   1.442
 1493TIP3    H2 4421   1.649   4.749   1.321
 1494TIP3   OH2 4422   7.190   7.408   4.838
 1494TIP3    H1 4423   7.142   7.491   4.838
 1494TIP3    H2 4424   7.181   7.375   4.748
 1495TIP3   OH2 4425   5.313   2.809   4.660
 1495TIP3    H1 4426   5.235   2.753   4.660
 1495TIP3    H2 4427   5.325   2.833   4.569
 1496TIP3   OH2 4428   6.378   3.799   4.058
 1496TIP3    H1 4429   6.440   3.836   4.120
 1496TIP3    H2 4430   6.359   3.869   3.996
 1497TIP3   OH2 4431   0.690   3.835   1.476
 1497TIP3    H1 4432   0.656   3.748   1.457
 1497TIP3    H2 4433   0.784   3.823   1.486
 1498TIP3   OH2 4434   7.062   1.158   0.121
 1498TIP3    H1 4435   7.072   1.247   0.157
 1498TIP3    H2 4436   7.132   1.108   0.164
 1499TIP3   OH2 4437   2.921   6.493   4.837
 1499TIP3    H1 4438   3.016   6.498   4.847
 1499TIP3    H2 4439   2.902   6.543   4.758
 1500TIP3   OH2 4440   7.387   2.017   2.878
 1500TIP3    H1 4441   7.466   1.963   2.884
 1500TIP3    H2 4442   7.318   1.962   2.914
 1501TIP3   OH2 4443   0.047   2.236   6.674
 1501TIP3    H1 4444   0.003   2.225   6.590
 1501TIP3    H2 4445   0.107   2.161   6.680
 1502TIP3   OH2 4446   6.768   5.218   5.468
 1502TIP3    H1 4447   6.762   5.125   5.447
 1502TIP3    H2 4448   6.681   5.252   5.449
 1503TIP3   OH2 4449   5.777   2.487   4.277
 1503TIP3    H1 4450   5.872   2.493   4.272
 1503TIP3    H2 4451   5.761   2.409   4.329
 1504TIP3   OH2 4452   5.364   5.524   5.751
 1504TIP3    H1 4453   5.419   5.504   5.827
 1504TIP3    H2 4454   5.399   5.467   5.682
 1505TIP3   OH2 4455   3.255   6.968   2.724
 1505TIP3    H1 4456   3.306   7.049   2.712
 1505TIP3    H2 4457   3.164   6.997   2.730
 1506TIP3   OH2 4458   1.401   1.899   1.826
 1506TIP3    H1 4459   1.491   1.879   1.851
 1506TIP3    H2 4460   1.364   1.815   1.799
 1507TIP3   OH2 4461   6.595   5.360   3.913
 1507TIP3    H1 4462   6.680   5.403   3.906
 1507TIP3    H2 4463   6.542   5.420   3.966
 1508TIP3   OH2 4464   3.161   0.606   5.490
 1508TIP3    H1 4465   3.163   0.566   5.403
 1508TIP3    H2 4466   3.086   0.666   5.487
 1509TIP3   OH2 4467   3.460   5.460   3.633
 1509TIP3    H1 4468   3.554   5.445   3.633
 1509TIP3    H2 4469   3.445   5.526   3.700
 1510TIP3   OH2 4470   7.724   1.550   1.059
 1510TIP3    H1 4471   7.722   1.573   0.966
 1510TIP3    H2 4472   7.643   1.502   1.074
 1511TIP3   OH2 4473   6.198   2.900   4.439
 1511TIP3    H1 4474   6.193   2.907   4.344
 1511TIP3    H2 4475   6.286   2.930   4.461
 1512TIP3   OH2 4476   7.267   3.250   1.572
 1512TIP3    H1 4477   7.202   3.280   1.509
 1512TIP3    H2 4478   7.338   3.214   1.519
 1513TIP3   OH2 4479   4.238   2.447   2.304
 1513TIP3    H1 4480   4.156   2.451   2.255
 1513TIP3    H2 4481   4.258   2.538   2.324
 1514TIP3   OH2 4482   6.437   1.317   4.596
 1514TIP3    H1 4483   6.478   1.352   4.516
 1514TIP3    H2 4484   6.507   1.266   4.637
 1515TIP3   OH2 4485   5.897   3.292   1.263
 1515TIP3    H1 4486   5.965   3.320   1.202
 1515TIP3    H2 4487   5.828   3.358   1.254
 1516TIP3   OH2 4488   1.416   2.193   2.796
 1516TIP3    H1 4489   1.371   2.180   2.713
 1516TIP3    H2 4490   1.402   2.285   2.817
 1517TIP3   OH2 4491   2.265   4.933   5.434
 1517TIP3    H1 4492   2.176   4.907   5.458
 1517TIP3    H2 4493   2.314   4.850   5.431
 1518TIP3   OH2 4494   3.263   4.515   2.438
 1518TIP3    H1 4495   3.286   4.486   2.526
 1518TIP3    H2 4496   3.323   4.469   2.380
 1519TIP3   OH2 4497   0.387   6.908   4.077
 1519TIP3    H1 4498   0.362   6.869   4.161
 1519TIP3    H2 4499   0.454   6.973   4.101
 1520TIP3   OH2 4500   5.567   2.461   4.838
 1520TIP3    H1 4501   5.594   2.435   4.750
 1520TIP3    H2 4502   5.564   2.557   4.834
 1521TIP3   OH2 4503   1.377   3.089   0.619
 1521TIP3    H1 4504   1.459   3.131   0.642
 1521TIP3    H2 4505   1.309   3.149   0.650
 1522TIP3   OH2 4506   2.565   7.738   5.285
 1522TIP3    H1 4507   2.583   7.694   5.202
 1522TIP3    H2 4508   2.474   7.716   5.305
 1523TIP3   OH2 4509   4.037   7.725   6.080
 1523TIP3    H1 4510   4.010   7.817   6.073
 1523TIP3    H2 4511   4.101   7.713   6.010
 1524TIP3   OH2 4512   2.511   2.088   5.181
 1524TIP3    H1 4513   2.555   2.034   5.247
 1524TIP3    H2 4514   2.579   2.110   5.118
 1525TIP3   OH2 4515   2.022   0.939   6.235
 1525TIP3    H1 4516   2.014   1.005   6.166
 1525TIP3    H2 4517   2.039   0.857   6.189
 1526TIP3   OH2 4518   6.113   3.405   1.130
 1526TIP3    H1 4519   6.126   3.445   1.044
 1526TIP3    H2 4520   6.201   3.401   1.168
 1527TIP3   OH2 4521   5.836   2.372   1.231
 1527TIP3    H1 4522   5.904   2.439   1.219
 1527TIP3    H2 4523   5.851   2.339   1.319
 1528TIP3   OH2 4524   1.480   7.429   3.984
 1528TIP3    H1 4525   1.451   7.368   4.052
 1528TIP3    H2 4526   1.572   7.445   4.004
 1529TIP3   OH2 4527   7.171   6.946   6.343
 1529TIP3    H1 4528   7.154   7.029   6.389
 1529TIP3    H2 4529   7.084   6.915   6.318
 1530TIP3   OH2 4530   4.004   5.591   6.114
 1530TIP3    H1 4531   3.919   5.595   6.157
 1530TIP3    H2 4532   3.993   5.641   6.033
 1531TIP3   OH2 4533   3.487   7.000   5.505
 1531TIP3    H1 4534   3.508   7.056   5.579
 1531TIP3    H2 4535   3.475   6.913   5.543
 1532TIP3   OH2 4536   3.380   6.946   3.210
 1532TIP3    H1 4537   3.292   6.908   3.215
 1532TIP3    H2 4538   3.401   6.948   3.117
 1533TIP3   OH2 4539   2.962   1.752   2.313
 1533TIP3    H1 4540   2.976   1.757   2.408
 1533TIP3    H2 4541   3.050   1.743   2.276
 1534TIP3   OH2 4542   1.159   1.389   2.315
 1534TIP3    H1 4543   1.172   1.295   2.325
 1534TIP3    H2 4544   1.162   1.405   2.221
 1535TIP3   OH2 4545   2.153   2.107   3.231
 1535TIP3    H1 4546   2.233   2.063   3.262
 1535TIP3    H2 4547   2.085   2.077   3.291
 1536TIP3   OH2 4548   2.403   0.929   4.209
 1536TIP3    H1 4549   2.411   0.838   4.183
 1536TIP3    H2 4550   2.493   0.959   4.223
 1537TIP3   OH2 4551   4.124   1.189   2.901
 1537TIP3    H1 4552   4.086   1.133   2.968
 1537TIP3    H2 4553   4.219   1.180   2.913
 1538TIP3   OH2 4554   2.077   0.129   3.615
 1538TIP3    H1 4555   2.081   0.201   3.553
 1538TIP3    H2 4556   2.086   0.170   3.701
 1539TIP3   OH2 4557   4.850   1.404   4.615
 1539TIP3    H1 4558   4.873   1.385   4.524
 1539TIP3    H2 4559   4.903   1.342   4.666
 1540TIP3   OH2 4560   3.903   3.753   4.417
 1540TIP3    H1 4561   3.979   3.788   4.370
 1540TIP3    H2 4562   3.842   3.727   4.349
 1541TIP3   OH2 4563   5.312   7.605   1.182
 1541TIP3    H1 4564   5.355   7.681   1.142
 1541TIP3    H2 4565   5.312   7.539   1.112
 1542TIP3   OH2 4566   0.735   4.001   5.913
 1542TIP3    H1 4567   0.744   4.085   5.956
 1542TIP3    H2 4568   0.640   3.989   5.905
 1543TIP3   OH2 4569   4.289   1.618   3.955
 1543TIP3    H1 4570   4.263   1.554   4.021
 1543TIP3    H2 4571   4.278   1.703   3.998
 1544TIP3   OH2 4572   7.382   0.540   2.517
 1544TIP3    H1 4573   7.454   0.602   2.527
 1544TIP3    H2 4574   7.320   0.585   2.459
 1545TIP3   OH2 4575   5.968   1.867   4.202
 1545TIP3    H1 4576   5.945   1.774   4.200
 1545TIP3    H2 4577   6.003   1.881   4.290
 1546TIP3   OH2 4578   4.565   3.300   6.375
 1546TIP3    H1 4579   4.552   3.366   6.443
 1546TIP3    H2 4580   4.508   3.227   6.401
 1547TIP3   OH2 4581   3.766   2.165   2.288
 1547TIP3    H1 4582   3.715   2.094   2.249
 1547TIP3    H2 4583   3.856   2.145   2.262
 1548TIP3   OH2 4584   7.053   3.356   0.413
 1548TIP3    H1 4585   7.083   3.270   0.441
 1548TIP3    H2 4586   7.132   3.410   0.411
 1549TIP3   OH2 4587   8.235   7.376   0.696
 1549TIP3    H1 4588   8.212   7.306   0.758
 1549TIP3    H2 4589   8.282   7.440   0.750
 1550TIP3   OH2 4590   3.814   0.755   2.403
 1550TIP3    H1 4591   3.895   0.756   2.454
 1550TIP3    H2 4592   3.781   0.665   2.412
 1551TIP3   OH2 4593   5.073   2.694   3.260
 1551TIP3    H1 4594   5.056   2.618   3.205
 1551TIP3    H2 4595   5.123   2.753   3.205
 1552TIP3   OH2 4596   2.781   1.068   4.766
 1552TIP3    H1 4597   2.813   1.135   4.705
 1552TIP3    H2 4598   2.861   1.025   4.798
 1553TIP3   OH2 4599   4.639   5.130   6.110
 1553TIP3    H1 4600   4.727   5.105   6.136
 1553TIP3    H2 4601   4.652   5.203   6.049
 1554TIP3   OH2 4602   4.959   6.567   4.837
 1554TIP3    H1 4603   4.932   6.512   4.763
 1554TIP3    H2 4604   4.949   6.510   4.914
 1555TIP3   OH2 4605   6.810   2.976   2.100
 1555TIP3    H1 4606   6.886   2.931   2.064
 1555TIP3    H2 4607   6.828   2.983   2.194
 1556TIP3   OH2 4608   3.087   4.749   1.782
 1556TIP3    H1 4609   3.135   4.821   1.741
 1556TIP3    H2 4610   3.136   4.671   1.758
 1557TIP3   OH2 4611   4.808   5.846   4.203
 1557TIP3    H1 4612   4.776   5.834   4.114
 1557TIP3    H2 4613   4.887   5.900   4.193
 1558TIP3   OH2 4614   1.351   7.284   6.423
 1558TIP3    H1 4615   1.400   7.216   6.377
 1558TIP3    H2 4616   1.409   7.313   6.493
 1559TIP3   OH2 4617   1.403   1.145   2.739
 1559TIP3    H1 4618   1.416   1.217   2.801
 1559TIP3    H2 4619   1.374   1.187   2.659
 1560TIP3   OH2 4620   1.180   7.626   0.947
 1560TIP3    H1 4621   1.098   7.663   0.913
 1560TIP3    H2 4622   1.153   7.574   1.022
 1561TIP3   OH2 4623   2.272   4.781   4.032
 1561TIP3    H1 4624   2.321   4.837   4.092
 1561TIP3    H2 4625   2.185   4.775   4.071
 1562TIP3   OH2 4626   4.322   6.493   6.018
 1562TIP3    H1 4627   4.282   6.420   5.970
 1562TIP3    H2 4628   4.254   6.523   6.078
 1563TIP3   OH2 4629   4.360   6.348   4.898
 1563TIP3    H1 4630   4.344   6.425   4.843
 1563TIP3    H2 4631   4.455   6.346   4.909
 1564TIP3   OH2 4632   0.488   2.969   2.519
 1564TIP3    H1 4633   0.515   2.907   2.451
 1564TIP3    H2 4634   0.396   2.946   2.537
 1565TIP3   OH2 4635   0.543   0.887   1.803
 1565TIP3    H1 4636   0.450   0.881   1.824
 1565TIP3    H2 4637   0.577   0.956   1.859
 1566TIP3   OH2 4638   1.199   6.463   6.817
 1566TIP3    H1 4639   1.262   6.531   6.842
 1566TIP3    H2 4640   1.241   6.415   6.746
 1567TIP3   OH2 4641   3.630   4.525   0.591
 1567TIP3    H1 4642   3.573   4.600   0.604
 1567TIP3    H2 4643   3.641   4.519   0.496
 1568TIP3   OH2 4644   7.564   4.872   6.243
 1568TIP3    H1 4645   7.543   4.801   6.302
 1568TIP3    H2 4646   7.616   4.832   6.173
 1569TIP3   OH2 4647   4.059   0.462   3.247
 1569TIP3    H1 4648   4.116   0.387   3.263
 1569TIP3    H2 4649   4.003   0.467   3.324
 1570TIP3   OH2 4650   6.233   7.528   2.886
 1570TIP3    H1 4651   6.277   7.506   2.967
 1570TIP3    H2 4652   6.294   7.502   2.817
 1571TIP3   OH2 4653   0.875   0.680   5.214
 1571TIP3    H1 4654   0.866   0.636   5.298
 1571TIP3    H2 4655   0.840   0.617   5.150
 1572TIP3   OH2 4656   2.018   6.774   6.250
 1572TIP3    H1 4657   2.049   6.684   6.239
 1572TIP3    H2 4658   2.064   6.806   6.328
 1573TIP3   OH2 4659   2.184   6.244   1.690
 1573TIP3    H1 4660   2.272   6.277   1.708
 1573TIP3    H2 4661   2.126   6.304   1.737
 1574TIP3   OH2 4662   6.937   0.740   0.393
 1574TIP3    H1 4663   6.937   0.737   0.297
 1574TIP3    H2 4664   6.958   0.831   0.414
 1575TIP3   OH2 4665   2.313   2.144   1.108
 1575TIP3    H1 4666   2.283   2.082   1.175
 1575TIP3    H2 4667   2.355   2.089   1.041
 1576TIP3   OH2 4668   1.202   3.611   1.557
 1576TIP3    H1 4669   1.149   3.684   1.523
 1576TIP3    H2 4670   1.138   3.543   1.576
 1577TIP3   OH2 4671   0.241   2.578   1.307
 1577TIP3    H1 4672   0.201   2.500   1.345
 1577TIP3    H2 4673   0.281   2.548   1.226
 1578TIP3   OH2 4674   7.533   5.721   3.220
 1578TIP3    H1 4675   7.493   5.661   3.283
 1578TIP3    H2 4676   7.599   5.768   3.270
 1579TIP3   OH2 4677   3.926   5.177   5.148
 1579TIP3    H1 4678   3.880   5.195   5.230
 1579TIP3    H2 4679   3.965   5.261   5.124
 1580TIP3   OH2 4680   7.506   7.044   3.523
 1580TIP3    H1 4681   7.421   7.083   3.541
 1580TIP3    H2 4682   7.499   6.954   3.557
 1581TIP3   OH2 4683   3.060   6.485   1.041
 1581TIP3    H1 4684   2.994   6.445   0.985
 1581TIP3    H2 4685   3.134   6.501   0.982
 1582TIP3   OH2 4686   6.883   2.001   1.605
 1582TIP3    H1 4687   6.940   2.061   1.653
 1582TIP3    H2 4688   6.899   1.915   1.644
 1583TIP3   OH2 4689   4.496   4.438   6.376
 1583TIP3    H1 4690   4.582   4.439   6.417
 1583TIP3    H2 4691   4.506   4.492   6.297
 1584TIP3   OH2 4692   4.492   2.353   6.298
 1584TIP3    H1 4693   4.518   2.268   6.262
 1584TIP3    H2 4694   4.538   2.359   6.382
 1585TIP3   OH2 4695   4.988   3.732   6.659
 1585TIP3    H1 4696   4.983   3.715   6.753
 1585TIP3    H2 4697   5.030   3.653   6.624
 1586TIP3   OH2 4698   6.974   6.965   2.916
 1586TIP3    H1 4699   6.987   7.059   2.902
 1586TIP3    H2 4700   7.052   6.938   2.965
 1587TIP3   OH2 4701   4.867   7.736   6.696
 1587TIP3    H1 4702   4.859   7.752   6.602
 1587TIP3    H2 4703   4.960   7.717   6.709
 1588TIP3   OH2 4704   1.812   1.420   3.755
 1588TIP3    H1 4705   1.720   1.399   3.740
 1588TIP3    H2 4706   1.848   1.437   3.668
 1589TIP3   OH2 4707   4.689   6.346   5.347
 1589TIP3    H1 4708   4.675   6.387   5.432
 1589TIP3    H2 4709   4.656   6.410   5.283
 1590TIP3   OH2 4710   7.712   6.786   6.805
 1590TIP3    H1 4711   7.668   6.800   6.722
 1590TIP3    H2 4712   7.642   6.760   6.866
 1591TIP3   OH2 4713   3.758   0.730   3.711
 1591TIP3    H1 4714   3.724   0.646   3.743
 1591TIP3    H2 4715   3.696   0.795   3.744
 1592TIP3   OH2 4716   0.012   0.187   5.068
 1592TIP3    H1 4717   0.015   0.141   4.984
 1592TIP3    H2 4718   0.101   0.175   5.104
 1593TIP3   OH2 4719   2.682   3.118   0.922
 1593TIP3    H1 4720   2.629   3.058   0.973
 1593TIP3    H2 4721   2.748   3.150   0.984
 1594TIP3   OH2 4722   4.826   5.834   5.565
 1594TIP3    H1 4723   4.762   5.902   5.543
 1594TIP3    H2 4724   4.821   5.826   5.660
 1595TIP3   OH2 4725   1.272   5.528   0.886
 1595TIP3    H1 4726   1.198   5.585   0.866
 1595TIP3    H2 4727   1.241   5.471   0.956
 1596TIP3   OH2 4728   1.960   4.486   2.595
 1596TIP3    H1 4729   1.909   4.503   2.515
 1596TIP3    H2 4730   1.984   4.393   2.588
 1597TIP3   OH2 4731   0.056   7.580   4.608
 1597TIP3    H1 4732  -0.018   7.610   4.556
 1597TIP3    H2 4733   0.112   7.534   4.545
 1598TIP3   OH2 4734   2.415   4.864   1.007
 1598TIP3    H1 4735   2.432   4.841   1.098
 1598TIP3    H2 4736   2.387   4.782   0.967
 1599TIP3   OH2 4737   5.652   2.946   4.598
 1599TIP3    H1 4738   5.729   2.994   4.569
 1599TIP3    H2 4739   5.607   2.922   4.516
 1600TIP3   OH2 4740   0.573   5.629   0.859
 1600TIP3    H1 4741   0.564   5.579   0.941
 1600TIP3    H2 4742   0.667   5.636   0.845
 1601TIP3   OH2 4743   0.038   1.950   2.602
 1601TIP3    H1 4744  -0.001   2.017   2.658
 1601TIP3    H2 4745  -0.036   1.909   2.558
 1602TIP3   OH2 4746   5.286   1.989   4.980
 1602TIP3    H1 4747   5.258   1.921   5.040
 1602TIP3    H2 4748   5.373   1.961   4.950
 1603TIP3   OH2 4749   0.584   4.631   3.839
 1603TIP3    H1 4750   0.521   4.654   3.771
 1603TIP3    H2 4751   0.535   4.641   3.921
 1604TIP3   OH2 4752   7.206   5.398   3.747
 1604TIP3    H1 4753   7.146   5.372   3.677
 1604TIP3    H2 4754   7.286   5.347   3.729
 1605TIP3   OH2 4755   0.187   7.540   0.684
 1605TIP3    H1 4756   0.113   7.558   0.626
 1605TIP3    H2 4757   0.147   7.515   0.767
 1606TIP3   OH2 4758   6.879   7.244   1.713
 1606TIP3    H1 4759   6.895   7.324   1.663
 1606TIP3    H2 4760   6.873   7.273   1.804
 1607TIP3   OH2 4761   1.782   7.516   2.170
 1607TIP3    H1 4762   1.809   7.575   2.241
 1607TIP3    H2 4763   1.746   7.440   2.215
 1608TIP3   OH2 4764   2.361   0.116   3.603
 1608TIP3    H1 4765   2.270   0.125   3.575
 1608TIP3    H2 4766   2.390   0.205   3.620
 1609TIP3   OH2 4767   4.194   3.048   1.419
 1609TIP3    H1 4768   4.184   2.953   1.412
 1609TIP3    H2 4769   4.170   3.069   1.509
 1610TIP3   OH2 4770   3.822   3.358   1.018
 1610TIP3    H1 4771   3.818   3.452   0.999
 1610TIP3    H2 4772   3.860   3.353   1.105
 1611TIP3   OH2 4773   3.473   1.333   5.287
 1611TIP3    H1 4774   3.552   1.386   5.283
 1611TIP3    H2 4775   3.404   1.389   5.250
 1612TIP3   OH2 4776   2.801   4.438   0.198
 1612TIP3    H1 4777   2.774   4.475   0.114
 1612TIP3    H2 4778   2.750   4.357   0.205
 1613TIP3   OH2 4779   5.516   6.848   4.327
 1613TIP3    H1 4780   5.572   6.805   4.263
 1613TIP3    H2 4781   5.567   6.846   4.408
 1614TIP3   OH2 4782   7.528   5.695   0.292
 1614TIP3    H1 4783   7.548   5.665   0.381
 1614TIP3    H2 4784   7.602   5.665   0.239
 1615TIP3   OH2 4785   4.651   5.787   2.976
 1615TIP3    H1 4786   4.743   5.787   3.000
 1615TIP3    H2 4787   4.617   5.705   3.013
 1616TIP3   OH2 4788   7.092   2.682   1.243
 1616TIP3    H1 4789   7.003   2.697   1.275
 1616TIP3    H2 4790   7.097   2.732   1.162
 1617TIP3   OH2 4791   0.254   2.694   4.944
 1617TIP3    H1 4792   0.267   2.683   4.850
 1617TIP3    H2 4793   0.259   2.789   4.958
 1618TIP3   OH2 4794   2.703   3.223   6.068
 1618TIP3    H1 4795   2.798   3.230   6.070
 1618TIP3    H2 4796   2.680   3.235   5.976
 1619TIP3   OH2 4797   6.162   4.748   2.935
 1619TIP3    H1 4798   6.184   4.700   3.015
 1619TIP3    H2 4799   6.091   4.698   2.895
 1620TIP3   OH2 4800   2.835   2.908   5.981
 1620TIP3    H1 4801   2.827   2.819   5.947
 1620TIP3    H2 4802   2.749   2.947   5.967
 1621TIP3   OH2 4803   3.371   5.580   5.266
 1621TIP3    H1 4804   3.425   5.501   5.267
 1621TIP3    H2 4805   3.297   5.557   5.209
 1622TIP3   OH2 4806   7.235   4.089   2.397
 1622TIP3    H1 4807   7.285   4.134   2.329
 1622TIP3    H2 4808   7.173   4.034   2.349
 1623TIP3   OH2 4809   8.156   1.871   1.004
 1623TIP3    H1 4810   8.092   1.879   0.933
 1623TIP3    H2 4811   8.123   1.800   1.059
 1624TIP3   OH2 4812   7.249   5.496   5.156
 1624TIP3    H1 4813   7.169   5.503   5.104
 1624TIP3    H2 4814   7.312   5.454   5.098
 1625TIP3   OH2 4815   5.155   7.259   3.609
 1625TIP3    H1 4816   5.194   7.233   3.526
 1625TIP3    H2 4817   5.221   7.237   3.675
 1626TIP3   OH2 4818   4.056   0.827   1.890
 1626TIP3    H1 4819   3.993   0.864   1.827
 1626TIP3    H2 4820   4.116   0.776   1.835
 1627TIP3   OH2 4821   1.276   0.384   4.274
 1627TIP3    H1 4822   1.334   0.450   4.236
 1627TIP3    H2 4823   1.249   0.330   4.200
 1628TIP3   OH2 4824   6.230   7.043   5.699
 1628TIP3    H1 4825   6.257   7.027   5.789
 1628TIP3    H2 4826   6.151   7.096   5.707
 1629TIP3   OH2 4827   2.220   5.509   5.082
 1629TIP3    H1 4828   2.273   5.483   5.006
 1629TIP3    H2 4829   2.130   5.487   5.057
 1630TIP3   OH2 4830   0.413   4.152   2.221
 1630TIP3    H1 4831   0.461   4.077   2.255
 1630TIP3    H2 4832   0.342   4.166   2.283
 1631TIP3   OH2 4833   4.173   0.790   6.580
 1631TIP3    H1 4834   4.129   0.710   6.551
 1631TIP3    H2 4835   4.266   0.766   6.581
 1632TIP3   OH2 4836   0.011   4.368   1.184
 1632TIP3    H1 4837   0.031   4.456   1.152
 1632TIP3    H2 4838  -0.065   4.380   1.240
 1633TIP3   OH2 4839   6.075   0.040   6.599
 1633TIP3    H1 4840   6.144   0.006   6.656
 1633TIP3    H2 4841   6.084  -0.011   6.519
 1634TIP3   OH2 4842   2.682   4.391   4.433
 1634TIP3    H1 4843   2.627   4.363   4.359
 1634TIP3    H2 4844   2.700   4.309   4.480
 1635TIP3   OH2 4845   3.872   5.608   4.788
 1635TIP3    H1 4846   3.797   5.622   4.730
 1635TIP3    H2 4847   3.883   5.692   4.833
 1636TIP3   OH2 4848   1.792   5.728   6.527
 1636TIP3    H1 4849   1.846   5.721   6.605
 1636TIP3    H2 4850   1.839   5.788   6.470
 1637TIP3   OH2 4851   0.269   0.635   5.156
 1637TIP3    H1 4852   0.306   0.612   5.071
 1637TIP3    H2 4853   0.311   0.575   5.218
 1638TIP3   OH2 4854   7.495   2.958   1.334
 1638TIP3    H1 4855   7.433   2.885   1.340
 1638TIP3    H2 4856   7.581   2.917   1.327
 1639TIP3   OH2 4857   1.083   7.109   4.703
 1639TIP3    H1 4858   1.008   7.120   4.761
 1639TIP3    H2 4859   1.086   7.191   4.652
 1640TIP3   OH2 4860   4.393   5.053   1.049
 1640TIP3    H1 4861   4.342   4.996   1.106
 1640TIP3    H2 4862   4.448   5.104   1.108
 1641TIP3   OH2 4863   0.790   3.385   0.265
 1641TIP3    H1 4864   0.780   3.476   0.235
 1641TIP3    H2 4865   0.852   3.391   0.338
 1642TIP3   OH2 4866   0.673   0.646   2.200
 1642TIP3    H1 4867   0.580   0.625   2.208
 1642TIP3    H2 4868   0.718   0.573   2.242
 1643TIP3   OH2 4869   7.173   5.773   5.819
 1643TIP3    H1 4870   7.266   5.755   5.829
 1643TIP3    H2 4871   7.150   5.732   5.735
 1644TIP3   OH2 4872   5.448   4.169   5.459
 1644TIP3    H1 4873   5.356   4.146   5.472
 1644TIP3    H2 4874   5.463   4.242   5.519
 1645TIP3   OH2 4875   0.501   6.433   0.795
 1645TIP3    H1 4876   0.565   6.398   0.856
 1645TIP3    H2 4877   0.418   6.394   0.823
 1646TIP3   OH2 4878   1.885   2.518   3.249
 1646TIP3    H1 4879   1.978   2.499   3.262
 1646TIP3    H2 4880   1.853   2.539   3.337
 1647TIP3   OH2 4881   6.129   2.438   3.137
 1647TIP3    H1 4882   6.102   2.355   3.176
 1647TIP3    H2 4883   6.204   2.416   3.081
 1648TIP3   OH2 4884   7.755   4.812   1.177
 1648TIP3    H1 4885   7.683   4.866   1.143
 1648TIP3    H2 4886   7.750   4.823   1.272
 1649TIP3   OH2 4887   3.718   7.851   5.941
 1649TIP3    H1 4888   3.639   7.821   5.896
 1649TIP3    H2 4889   3.741   7.780   6.000
 1650TIP3   OH2 4890   2.077   4.951   4.819
 1650TIP3    H1 4891   2.067   5.006   4.897
 1650TIP3    H2 4892   2.152   4.989   4.773
 1651TIP3   OH2 4893   2.574   0.368   2.670
 1651TIP3    H1 4894   2.553   0.442   2.613
 1651TIP3    H2 4895   2.635   0.403   2.734
 1652TIP3   OH2 4896   0.285   5.214   0.726
 1652TIP3    H1 4897   0.218   5.240   0.789
 1652TIP3    H2 4898   0.247   5.233   0.640
 1653TIP3   OH2 4899   7.281   6.430   6.692
 1653TIP3    H1 4900   7.368   6.390   6.686
 1653TIP3    H2 4901   7.224   6.371   6.643
 1654TIP3   OH2 4902   3.197   7.050   5.536
 1654TIP3    H1 4903   3.128   6.994   5.571
 1654TIP3    H2 4904   3.276   7.024   5.583
 1655TIP3   OH2 4905   4.220   6.910   4.704
 1655TIP3    H1 4906   4.137   6.890   4.661
 1655TIP3    H2 4907   4.286   6.866   4.650
 1656TIP3   OH2 4908   1.017   2.798   2.771
 1656TIP3    H1 4909   0.970   2.788   2.854
 1656TIP3    H2 4910   1.069   2.877   2.783
 1657TIP3   OH2 4911   4.140   0.836   0.922
 1657TIP3    H1 4912   4.109   0.859   0.834
 1657TIP3    H2 4913   4.162   0.921   0.962
 1658TIP3   OH2 4914   4.230   7.425   1.555
 1658TIP3    H1 4915   4.188   7.394   1.636
 1658TIP3    H2 4916   4.324   7.420   1.573
 1659TIP3   OH2 4917   4.192   1.840   6.712
 1659TIP3    H1 4918   4.115   1.812   6.761
 1659TIP3    H2 4919   4.250   1.764   6.712
 1660TIP3   OH2 4920   0.776   2.418   4.814
 1660TIP3    H1 4921   0.866   2.431   4.844
 1660TIP3    H2 4922   0.723   2.468   4.875
 1661TIP3   OH2 4923   5.294   4.100   6.119
 1661TIP3    H1 4924   5.346   4.029   6.081
 1661TIP3    H2 4925   5.299   4.085   6.213
 1662TIP3   OH2 4926   5.583   6.135   2.686
 1662TIP3    H1 4927   5.649   6.120   2.618
 1662TIP3    H2 4928   5.633   6.150   2.766
 1663TIP3   OH2 4929   4.440   7.330   4.022
 1663TIP3    H1 4930   4.414   7.238   4.018
 1663TIP3    H2 4931   4.517   7.335   3.965
 1664TIP3   OH2 4932   4.305   3.095   5.393
 1664TIP3    H1 4933   4.328   3.160   5.327
 1664TIP3    H2 4934   4.212   3.111   5.411
 1665TIP3   OH2 4935   2.742   3.851   5.522
 1665TIP3    H1 4936   2.804   3.846   5.595
 1665TIP3    H2 4937   2.781   3.796   5.454
 1666TIP3   OH2 4938   7.483   0.109   4.202
 1666TIP3    H1 4939   7.576   0.093   4.189
 1666TIP3    H2 4940   7.439   0.040   4.153
 1667TIP3   OH2 4941   0.856   0.538   0.115
 1667TIP3    H1 4942   0.809   0.486   0.181
 1667TIP3    H2 4943   0.812   0.517   0.033
 1668TIP3   OH2 4944   4.968   5.931   4.577
 1668TIP3    H1 4945   5.043   5.974   4.618
 1668TIP3    H2 4946   5.001   5.846   4.548
 1669TIP3   OH2 4947   2.131   2.397   1.848
 1669TIP3    H1 4948   2.089   2.352   1.774
 1669TIP3    H2 4949   2.123   2.336   1.921
 1670TIP3   OH2 4950   4.555   2.885   2.067
 1670TIP3    H1 4951   4.646   2.891   2.095
 1670TIP3    H2 4952   4.549   2.801   2.022
 1671TIP3   OH2 4953   2.291   2.391   2.641
 1671TIP3    H1 4954   2.265   2.320   2.700
 1671TIP3    H2 4955   2.226   2.390   2.571
 1672TIP3   OH2 4956   5.188   1.662   6.525
 1672TIP3    H1 4957   5.131   1.648   6.449
 1672TIP3    H2 4958   5.276   1.671   6.488
 1673TIP3   OH2 4959   0.854   2.787   1.181
 1673TIP3    H1 4960   0.916   2.714   1.185
 1673TIP3    H2 4961   0.906   2.864   1.201
 1674TIP3   OH2 4962   8.195   4.540   4.516
 1674TIP3    H1 4963   8.262   4.478   4.485
 1674TIP3    H2 4964   8.113   4.491   4.509
 1675TIP3   OH2 4965   6.381   2.164   0.485
 1675TIP3    H1 4966   6.470   2.134   0.502
 1675TIP3    H2 4967   6.347   2.191   0.571
 1676TIP3   OH2 4968   3.885   1.065   5.933
 1676TIP3    H1 4969   3.847   1.062   6.021
 1676TIP3    H2 4970   3.838   0.997   5.885
 1677TIP3   OH2 4971   1.392   1.209   1.603
 1677TIP3    H1 4972   1.464   1.154   1.633
 1677TIP3    H2 4973   1.433   1.275   1.547
 1678TIP3   OH2 4974   7.418   7.533   5.159
 1678TIP3    H1 4975   7.357   7.471   5.199
 1678TIP3    H2 4976   7.484   7.478   5.117
 1679TIP3   OH2 4977   4.262   6.658   4.241
 1679TIP3    H1 4978   4.293   6.572   4.265
 1679TIP3    H2 4979   4.211   6.687   4.317
 1680TIP3   OH2 4980   5.652   3.528   4.350
 1680TIP3    H1 4981   5.692   3.451   4.309
 1680TIP3    H2 4982   5.561   3.526   4.322
 1681TIP3   OH2 4983   6.663   7.716   0.123
 1681TIP3    H1 4984   6.597   7.651   0.149
 1681TIP3    H2 4985   6.719   7.669   0.062
 1682TIP3   OH2 4986   4.103   2.522   6.565
 1682TIP3    H1 4987   4.013   2.518   6.533
 1682TIP3    H2 4988   4.118   2.615   6.585
 1683TIP3   OH2 4989   4.860   6.177   1.583
 1683TIP3    H1 4990   4.927   6.218   1.638
 1683TIP3    H2 4991   4.847   6.238   1.511
 1684TIP3   OH2 4992   7.718   5.109   6.269
 1684TIP3    H1 4993   7.635   5.062   6.261
 1684TIP3    H2 4994   7.703   5.172   6.340
 1685TIP3   OH2 4995   6.910   1.680   1.232
 1685TIP3    H1 4996   6.952   1.709   1.313
 1685TIP3    H2 4997   6.828   1.642   1.260
 1686TIP3   OH2 4998   2.174   0.762   4.865
 1686TIP3    H1 4999   2.194   0.669   4.857
 1686TIP3    H2 5000   2.260   0.805   4.863
 1687TIP3   OH2 5001   3.653   5.477   0.283
 1687TIP3    H1 5002   3.696   5.393   0.272
 1687TIP3    H2 5003   3.708   5.524   0.345
 1688TIP3   OH2 5004   1.641   6.301   3.799
 1688TIP3    H1 5005   1.675   6.356   3.728
 1688TIP3    H2 5006   1.611   6.363   3.865
 1689TIP3   OH2 5007   5.873   4.899   3.517
 1689TIP3    H1 5008   5.877   4.988   3.554
 1689TIP3    H2 5009   5.800   4.903   3.454
 1690TIP3   OH2 5010   1.994   1.738   4.978
 1690TIP3    H1 5011   2.045   1.697   5.048
 1690TIP3    H2 5012   2.057   1.748   4.906
 1691TIP3   OH2 5013   4.508   3.220   0.914
 1691TIP3    H1 5014   4.518   3.186   0.825
 1691TIP3    H2 5015   4.576   3.287   0.921
 1692TIP3   OH2 5016   4.970   6.639   5.152
 1692TIP3    H1 5017   5.065   6.638   5.146
 1692TIP3    H2 5018   4.942   6.712   5.098
 1693TIP3   OH2 5019   1.032   5.256   4.361
 1693TIP3    H1 5020   0.980   5.179   4.339
 1693TIP3    H2 5021   0.993   5.287   4.443
 1694TIP3   OH2 5022   0.778   7.596   6.527
 1694TIP3    H1 5023   0.869   7.602   6.555
 1694TIP3    H2 5024   0.761   7.677   6.479
 1695TIP3   OH2 5025   5.383   7.802   1.016
 1695TIP3    H1 5026   5.311   7.792   0.954
 1695TIP3    H2 5027   5.456   7.754   0.976
 1696TIP3   OH2 5028   1.365   5.940   3.423
 1696TIP3    H1 5029   1.284   5.909   3.462
 1696TIP3    H2 5030   1.353   6.035   3.417
 1697TIP3   OH2 5031   8.391   3.580   3.759
 1697TIP3    H1 5032   8.303   3.616   3.756
 1697TIP3    H2 5033   8.404   3.556   3.851
 1698TIP3   OH2 5034   6.057   4.453   0.193
 1698TIP3    H1 5035   6.001   4.377   0.180
 1698TIP3    H2 5036   5.996   4.526   0.201
 1699TIP3   OH2 5037   0.514   7.255   6.446
 1699TIP3    H1 5038   0.438   7.280   6.394
 1699TIP3    H2 5039   0.477   7.217   6.526
 1700TIP3   OH2 5040   7.372   5.556   0.078
 1700TIP3    H1 5041   7.398   5.632   0.025
 1700TIP3    H2 5042   7.381   5.586   0.169
 1701TIP3   OH2 5043   6.132   5.878   2.447
 1701TIP3    H1 5044   6.194   5.934   2.401
 1701TIP3    H2 5045   6.056   5.873   2.388
 1702TIP3   OH2 5046   5.388   4.467   3.370
 1702TIP3    H1 5047   5.477   4.492   3.393
 1702TIP3    H2 5048   5.398   4.402   3.301
 1703TIP3   OH2 5049   8.134   0.485   3.214
 1703TIP3    H1 5050   8.201   0.550   3.235
 1703TIP3    H2 5051   8.149   0.414   3.275
 1704TIP3   OH2 5052   6.899   7.304   3.443
 1704TIP3    H1 5053   6.970   7.348   3.489
 1704TIP3    H2 5054   6.828   7.299   3.508
 1705TIP3   OH2 5055   7.469   3.481   1.018
 1705TIP3    H1 5056   7.513   3.509   1.098
 1705TIP3    H2 5057   7.427   3.560   0.984
 1706TIP3   OH2 5058   6.568   4.935   3.536
 1706TIP3    H1 5059   6.556   4.974   3.623
 1706TIP3    H2 5060   6.532   5.000   3.475
 1707TIP3   OH2 5061   1.034   5.276   0.328
 1707TIP3    H1 5062   1.103   5.327   0.285
 1707TIP3    H2 5063   0.954   5.301   0.282
 1708TIP3   OH2 5064   3.853   6.718   2.974
 1708TIP3    H1 5065   3.859   6.787   2.907
 1708TIP3    H2 5066   3.899   6.755   3.050
 1709TIP3   OH2 5067   7.869   0.177   2.967
 1709TIP3    H1 5068   7.930   0.191   2.894
 1709TIP3    H2 5069   7.787   0.216   2.938
 1710TIP3   OH2 5070   5.042   3.611   6.143
 1710TIP3    H1 5071   5.010   3.547   6.207
 1710TIP3    H2 5072   5.010   3.695   6.176
 1711TIP3   OH2 5073   6.614   7.085   5.203
 1711TIP3    H1 5074   6.700   7.127   5.214
 1711TIP3    H2 5075   6.619   7.041   5.119
 1712TIP3   OH2 5076   6.399   6.109   2.668
 1712TIP3    H1 5077   6.492   6.128   2.679
 1712TIP3    H2 5078   6.378   6.049   2.740
 1713TIP3   OH2 5079   5.754   2.854   5.288
 1713TIP3    H1 5080   5.681   2.876   5.230
 1713TIP3    H2 5081   5.832   2.888   5.242
 1714TIP3   OH2 5082   2.757   3.107   4.332
 1714TIP3    H1 5083   2.796   3.187   4.366
 1714TIP3    H2 5084   2.821   3.039   4.350
 1715TIP3   OH2 5085   3.507   1.251   0.744
 1715TIP3    H1 5086   3.563   1.329   0.744
 1715TIP3    H2 5087   3.482   1.241   0.652
 1716TIP3   OH2 5088   7.014   1.224   3.450
 1716TIP3    H1 5089   7.034   1.135   3.422
 1716TIP3    H2 5090   6.962   1.261   3.378
 1717TIP3   OH2 5091   6.506   5.987   6.495
 1717TIP3    H1 5092   6.565   5.995   6.420
 1717TIP3    H2 5093   6.419   6.009   6.460
 1718TIP3   OH2 5094   5.552   6.813   2.668
 1718TIP3    H1 5095   5.528   6.753   2.597
 1718TIP3    H2 5096   5.493   6.888   2.656
 1719TIP3   OH2 5097   8.080   5.533   2.433
 1719TIP3    H1 5098   8.141   5.482   2.486
 1719TIP3    H2 5099   8.019   5.468   2.398
 1720TIP3   OH2 5100   4.508   5.774   4.475
 1720TIP3    H1 5101   4.590   5.820   4.492
 1720TIP3    H2 5102   4.524   5.728   4.393
 1721TIP3   OH2 5103   3.781   5.764   1.085
 1721TIP3    H1 5104   3.781   5.847   1.132
 1721TIP3    H2 5105   3.856   5.716   1.121
 1722TIP3   OH2 5106   6.381   4.018   2.716
 1722TIP3    H1 5107   6.328   4.059   2.785
 1722TIP3    H2 5108   6.403   4.089   2.657
 1723TIP3   OH2 5109   0.040   1.429   3.207
 1723TIP3    H1 5110   0.125   1.450   3.168
 1723TIP3    H2 5111   0.060   1.366   3.276
 1724TIP3   OH2 5112   3.496   5.810   5.167
 1724TIP3    H1 5113   3.428   5.745   5.185
 1724TIP3    H2 5114   3.537   5.779   5.086
 1725TIP3   OH2 5115   6.216   5.239   3.321
 1725TIP3    H1 5116   6.216   5.307   3.253
 1725TIP3    H2 5117   6.123   5.225   3.340
 1726TIP3   OH2 5118   2.399   1.268   0.892
 1726TIP3    H1 5119   2.445   1.195   0.934
 1726TIP3    H2 5120   2.316   1.230   0.863
 1727TIP3   OH2 5121   5.194   6.033   3.410
 1727TIP3    H1 5122   5.155   6.118   3.426
 1727TIP3    H2 5123   5.192   6.022   3.315
 1728TIP3   OH2 5124   8.134   2.716   5.048
 1728TIP3    H1 5125   8.183   2.712   4.965
 1728TIP3    H2 5126   8.201   2.712   5.116
 1729TIP3   OH2 5127   0.485   0.484   6.653
 1729TIP3    H1 5128   0.561   0.428   6.640
 1729TIP3    H2 5129   0.425   0.431   6.706
 1730TIP3   OH2 5130   0.594   3.185   4.625
 1730TIP3    H1 5131   0.620   3.267   4.667
 1730TIP3    H2 5132   0.528   3.210   4.561
 1731TIP3   OH2 5133   5.951   4.964   6.231
 1731TIP3    H1 5134   5.898   4.927   6.301
 1731TIP3    H2 5135   5.985   5.046   6.267
 1732TIP3   OH2 5136   0.578   6.223   2.979
 1732TIP3    H1 5137   0.512   6.227   3.048
 1732TIP3    H2 5138   0.661   6.243   3.023
 1733TIP3   OH2 5139   6.338   0.340   4.135
 1733TIP3    H1 5140   6.398   0.279   4.091
 1733TIP3    H2 5141   6.264   0.285   4.161
 1734TIP3   OH2 5142   1.281   7.358   5.163
 1734TIP3    H1 5143   1.289   7.443   5.120
 1734TIP3    H2 5144   1.282   7.295   5.091
 1735TIP3   OH2 5145   2.606   5.588   4.512
 1735TIP3    H1 5146   2.582   5.633   4.432
 1735TIP3    H2 5147   2.616   5.496   4.486
 1736TIP3   OH2 5148   6.686   1.936   5.975
 1736TIP3    H1 5149   6.629   1.970   5.906
 1736TIP3    H2 5150   6.761   1.996   5.975
 1737TIP3   OH2 5151   4.305   6.274   5.425
 1737TIP3    H1 5152   4.307   6.206   5.358
 1737TIP3    H2 5153   4.365   6.341   5.391
 1738TIP3   OH2 5154   4.885   5.173   0.223
 1738TIP3    H1 5155   4.843   5.227   0.290
 1738TIP3    H2 5156   4.915   5.235   0.157
 1739TIP3   OH2 5157   0.319   1.155   2.426
 1739TIP3    H1 5158   0.301   1.063   2.407
 1739TIP3    H2 5159   0.234   1.192   2.451
 1740TIP3   OH2 5160   4.869   6.730   4.210
 1740TIP3    H1 5161   4.828   6.651   4.246
 1740TIP3    H2 5162   4.837   6.734   4.120
 1741TIP3   OH2 5163   3.039   0.621   6.568
 1741TIP3    H1 5164   3.004   0.639   6.481
 1741TIP3    H2 5165   3.053   0.526   6.569
 1742TIP3   OH2 5166   6.773   1.979   0.242
 1742TIP3    H1 5167   6.847   1.994   0.183
 1742TIP3    H2 5168   6.731   1.900   0.207
 1743TIP3   OH2 5169   5.327   1.896   2.012
 1743TIP3    H1 5170   5.407   1.926   2.053
 1743TIP3    H2 5171   5.258   1.913   2.077
 1744TIP3   OH2 5172   7.108   5.289   0.441
 1744TIP3    H1 5173   7.165   5.213   0.435
 1744TIP3    H2 5174   7.103   5.324   0.352
 1745TIP3   OH2 5175   7.168   5.881   3.757
 1745TIP3    H1 5176   7.217   5.949   3.710
 1745TIP3    H2 5177   7.230   5.808   3.764
 1746TIP3   OH2 5178   5.198   7.831   5.004
 1746TIP3    H1 5179   5.185   7.918   4.969
 1746TIP3    H2 5180   5.137   7.775   4.955
 1747TIP3   OH2 5181   1.644   6.234   2.978
 1747TIP3    H1 5182   1.569   6.266   3.029
 1747TIP3    H2 5183   1.718   6.237   3.039
 1748TIP3   OH2 5184   0.866   7.326   2.217
 1748TIP3    H1 5185   0.823   7.303   2.299
 1748TIP3    H2 5186   0.945   7.271   2.215
 1749TIP3   OH2 5187   5.483   0.974   0.148
 1749TIP3    H1 5188   5.409   0.956   0.206
 1749TIP3    H2 5189   5.529   0.891   0.141
 1750TIP3   OH2 5190   7.896   3.793   3.684
 1750TIP3    H1 5191   7.873   3.812   3.775
 1750TIP3    H2 5192   7.919   3.878   3.646
 1751TIP3   OH2 5193   7.184   6.045   4.507
 1751TIP3    H1 5194   7.106   6.013   4.551
 1751TIP3    H2 5195   7.151   6.104   4.440
 1752TIP3   OH2 5196   6.620   5.809   3.580
 1752TIP3    H1 5197   6.634   5.765   3.496
 1752TIP3    H2 5198   6.644   5.900   3.564
 1753TIP3   OH2 5199   3.649   3.999   3.718
 1753TIP3    H1 5200   3.607   4.039   3.794
 1753TIP3    H2 5201   3.720   3.947   3.754
 1754TIP3   OH2 5202   1.416   4.090   4.120
 1754TIP3    H1 5203   1.471   4.047   4.054
 1754TIP3    H2 5204   1.327   4.083   4.084
 1755TIP3   OH2 5205   4.677   4.869   5.157
 1755TIP3    H1 5206   4.607   4.821   5.201
 1755TIP3    H2 5207   4.662   4.961   5.180
 1756TIP3   OH2 5208   4.863   4.196   6.314
 1756TIP3    H1 5209   4.805   4.227   6.245
 1756TIP3    H2 5210   4.882   4.105   6.291
 1757TIP3   OH2 5211   0.213   0.703   2.602
 1757TIP3    H1 5212   0.145   0.651   2.558
 1757TIP3    H2 5213   0.278   0.638   2.631
 1758TIP3   OH2 5214   4.509   5.210   3.351
 1758TIP3    H1 5215   4.544   5.161   3.425
 1758TIP3    H2 5216   4.557   5.176   3.275
 1759TIP3   OH2 5217   3.305   6.894   6.575
 1759TIP3    H1 5218   3.370   6.824   6.582
 1759TIP3    H2 5219   3.240   6.873   6.642
 1760TIP3   OH2 5220   1.068   1.338   3.242
 1760TIP3    H1 5221   1.016   1.413   3.271
 1760TIP3    H2 5222   1.150   1.377   3.211
 1761TIP3   OH2 5223   2.247   1.923   5.264
 1761TIP3    H1 5224   2.248   1.921   5.168
 1761TIP3    H2 5225   2.288   2.006   5.286
 1762TIP3   OH2 5226   0.494   4.866   5.962
 1762TIP3    H1 5227   0.458   4.784   5.928
 1762TIP3    H2 5228   0.517   4.845   6.053
 1763TIP3   OH2 5229   2.113   3.448   6.797
 1763TIP3    H1 5230   2.070   3.402   6.868
 1763TIP3    H2 5231   2.204   3.422   6.802
 1764TIP3   OH2 5232   0.326   4.451   4.353
 1764TIP3    H1 5233   0.355   4.456   4.262
 1764TIP3    H2 5234   0.406   4.460   4.405
 1765TIP3   OH2 5235   0.460   6.441   1.786
 1765TIP3    H1 5236   0.451   6.427   1.881
 1765TIP3    H2 5237   0.554   6.440   1.770
 1766TIP3   OH2 5238   0.330   3.641   1.953
 1766TIP3    H1 5239   0.424   3.631   1.935
 1766TIP3    H2 5240   0.289   3.640   1.867
 1767TIP3   OH2 5241   3.635   7.706   2.462
 1767TIP3    H1 5242   3.663   7.627   2.415
 1767TIP3    H2 5243   3.567   7.745   2.407
 1768TIP3   OH2 5244   5.621   5.381   5.188
 1768TIP3    H1 5245   5.605   5.358   5.096
 1768TIP3    H2 5246   5.675   5.460   5.183
 1769TIP3   OH2 5247   3.072   3.402   0.539
 1769TIP3    H1 5248   3.064   3.471   0.473
 1769TIP3    H2 5249   3.166   3.396   0.557
 1770TIP3   OH2 5250   3.693   7.583   4.968
 1770TIP3    H1 5251   3.651   7.543   4.891
 1770TIP3    H2 5252   3.653   7.669   4.976
 1771TIP3   OH2 5253   0.354   6.049   1.379
 1771TIP3    H1 5254   0.355   5.989   1.304
 1771TIP3    H2 5255   0.299   6.006   1.443
 1772TIP3   OH2 5256   3.875   4.539   4.286
 1772TIP3    H1 5257   3.811   4.473   4.262
 1772TIP3    H2 5258   3.960   4.500   4.265
 1773TIP3   OH2 5259   5.327   0.470   0.224
 1773TIP3    H1 5260   5.250   0.451   0.279
 1773TIP3    H2 5261   5.402   0.456   0.283
 1774TIP3   OH2 5262   4.879   3.781   3.126
 1774TIP3    H1 5263   4.819   3.730   3.071
 1774TIP3    H2 5264   4.966   3.751   3.102
 1775TIP3   OH2 5265   7.599   6.888   2.586
 1775TIP3    H1 5266   7.640   6.803   2.568
 1775TIP3    H2 5267   7.671   6.942   2.617
 1776TIP3   OH2 5268   3.014   2.781   2.857
 1776TIP3    H1 5269   3.107   2.763   2.873
 1776TIP3    H2 5270   2.999   2.752   2.767
 1777TIP3   OH2 5271   3.824   3.057   5.877
 1777TIP3    H1 5272   3.853   3.034   5.966
 1777TIP3    H2 5273   3.746   3.110   5.891
 1778TIP3   OH2 5274   1.372   4.812   6.278
 1778TIP3    H1 5275   1.329   4.893   6.307
 1778TIP3    H2 5276   1.301   4.747   6.276
 1779TIP3   OH2 5277   2.897   6.868   0.835
 1779TIP3    H1 5278   2.854   6.853   0.919
 1779TIP3    H2 5279   2.830   6.850   0.770
 1780TIP3   OH2 5280   6.335   4.410   0.635
 1780TIP3    H1 5281   6.366   4.322   0.657
 1780TIP3    H2 5282   6.407   4.467   0.662
 1781TIP3   OH2 5283   4.094   2.339   4.460
 1781TIP3    H1 5284   4.023   2.391   4.423
 1781TIP3    H2 5285   4.163   2.403   4.479
 1782TIP3   OH2 5286   2.615   7.893   1.366
 1782TIP3    H1 5287   2.591   7.984   1.383
 1782TIP3    H2 5288   2.581   7.844   1.441
 1783TIP3   OH2 5289   7.095   7.175  -0.014
 1783TIP3    H1 5290   7.109   7.245   0.050
 1783TIP3    H2 5291   7.052   7.218  -0.087
 1784TIP3   OH2 5292   0.810   4.931   1.087
 1784TIP3    H1 5293   0.753   4.861   1.119
 1784TIP3    H2 5294   0.798   4.930   0.992
 1785TIP3   OH2 5295   8.246   1.673   3.277
 1785TIP3    H1 5296   8.341   1.680   3.262
 1785TIP3    H2 5297   8.226   1.580   3.266
 1786TIP3   OH2 5298   0.574   7.105   3.397
 1786TIP3    H1 5299   0.627   7.118   3.476
 1786TIP3    H2 5300   0.626   7.144   3.327
 1787TIP3   OH2 5301   6.944   0.174   2.831
 1787TIP3    H1 5302   7.031   0.179   2.793
 1787TIP3    H2 5303   6.908   0.262   2.821
 1788TIP3   OH2 5304   1.822   3.010   0.997
 1788TIP3    H1 5305   1.823   2.918   0.969
 1788TIP3    H2 5306   1.805   3.059   0.917
 1789TIP3   OH2 5307   1.757   2.567   6.220
 1789TIP3    H1 5308   1.730   2.646   6.173
 1789TIP3    H2 5309   1.774   2.597   6.310
 1790TIP3   OH2 5310   0.657   5.601   3.450
 1790TIP3    H1 5311   0.675   5.638   3.536
 1790TIP3    H2 5312   0.741   5.567   3.420
 1791TIP3   OH2 5313   1.244   1.110   0.585
 1791TIP3    H1 5314   1.251   1.040   0.650
 1791TIP3    H2 5315   1.314   1.171   0.608
 1792TIP3   OH2 5316   8.004   6.436   2.884
 1792TIP3    H1 5317   8.083   6.427   2.830
 1792TIP3    H2 5318   7.946   6.366   2.855
 1793TIP3   OH2 5319   5.145   5.190   5.300
 1793TIP3    H1 5320   5.226   5.239   5.284
 1793TIP3    H2 5321   5.077   5.258   5.306
 1794TIP3   OH2 5322   2.309   4.098   2.168
 1794TIP3    H1 5323   2.330   4.174   2.115
 1794TIP3    H2 5324   2.218   4.112   2.195
 1795TIP3   OH2 5325   0.752   4.903   0.831
 1795TIP3    H1 5326   0.835   4.894   0.783
 1795TIP3    H2 5327   0.685   4.876   0.768
 1796TIP3   OH2 5328   7.008   0.098   6.787
 1796TIP3    H1 5329   6.923   0.060   6.764
 1796TIP3    H2 5330   7.030   0.155   6.714
 1797TIP3   OH2 5331   2.508   2.827   0.978
 1797TIP3    H1 5332   2.482   2.918   0.965
 1797TIP3    H2 5333   2.523   2.793   0.890
 1798TIP3   OH2 5334   3.098   3.369   1.383
 1798TIP3    H1 5335   3.028   3.329   1.435
 1798TIP3    H2 5336   3.114   3.305   1.313
 1799TIP3   OH2 5337   3.096   0.536   0.916
 1799TIP3    H1 5338   3.007   0.561   0.942
 1799TIP3    H2 5339   3.093   0.440   0.910
 1800TIP3   OH2 5340   4.939   5.334   2.640
 1800TIP3    H1 5341   4.985   5.320   2.557
 1800TIP3    H2 5342   5.002   5.307   2.707
 1801TIP3   OH2 5343   0.611   1.156   6.064
 1801TIP3    H1 5344   0.521   1.161   6.096
 1801TIP3    H2 5345   0.619   1.068   6.026
 1802TIP3   OH2 5346   1.860   0.457   6.426
 1802TIP3    H1 5347   1.902   0.488   6.346
 1802TIP3    H2 5348   1.767   0.469   6.410
 1803TIP3   OH2 5349   3.971   0.869   4.158
 1803TIP3    H1 5350   3.931   0.906   4.236
 1803TIP3    H2 5351   3.905   0.809   4.122
 1804TIP3   OH2 5352   8.032   5.215   0.810
 1804TIP3    H1 5353   8.077   5.141   0.851
 1804TIP3    H2 5354   7.940   5.188   0.806
 1805TIP3   OH2 5355   4.713   5.928   4.448
 1805TIP3    H1 5356   4.734   5.907   4.357
 1805TIP3    H2 5357   4.798   5.940   4.491
 1806TIP3   OH2 5358   3.510   6.165   5.968
 1806TIP3    H1 5359   3.507   6.255   6.002
 1806TIP3    H2 5360   3.439   6.162   5.904
 1807TIP3   OH2 5361   7.306   0.691   1.271
 1807TIP3    H1 5362   7.319   0.671   1.179
 1807TIP3    H2 5363   7.391   0.675   1.312
 1808TIP3   OH2 5364   3.257   2.665   4.761
 1808TIP3    H1 5365   3.246   2.636   4.670
 1808TIP3    H2 5366   3.255   2.585   4.813
 1809TIP3   OH2 5367   6.325   3.191   4.323
 1809TIP3    H1 5368   6.288   3.261   4.270
 1809TIP3    H2 5369   6.307   3.217   4.414
 1810TIP3   OH2 5370   1.096   2.978   1.879
 1810TIP3    H1 5371   1.065   2.929   1.955
 1810TIP3    H2 5372   1.145   3.051   1.916
 1811TIP3   OH2 5373   6.705   5.382   1.526
 1811TIP3    H1 5374   6.626   5.375   1.473
 1811TIP3    H2 5375   6.777   5.366   1.465
 1812TIP3   OH2 5376   3.880   6.615   6.143
 1812TIP3    H1 5377   3.944   6.680   6.114
 1812TIP3    H2 5378   3.843   6.581   6.061
 1813TIP3   OH2 5379   3.353   5.943   6.526
 1813TIP3    H1 5380   3.381   5.870   6.471
 1813TIP3    H2 5381   3.366   6.021   6.471
 1814TIP3   OH2 5382   5.378   2.908   2.733
 1814TIP3    H1 5383   5.401   2.864   2.814
 1814TIP3    H2 5384   5.320   2.979   2.759
 1815TIP3   OH2 5385   5.322   2.920   5.927
 1815TIP3    H1 5386   5.323   2.919   5.831
 1815TIP3    H2 5387   5.332   2.828   5.952
 1816TIP3   OH2 5388   7.190   4.393   0.354
 1816TIP3    H1 5389   7.185   4.419   0.446
 1816TIP3    H2 5390   7.271   4.433   0.323
 1817TIP3   OH2 5391   5.337   2.874   1.139
 1817TIP3    H1 5392   5.259   2.889   1.085
 1817TIP3    H2 5393   5.346   2.954   1.191
 1818TIP3   OH2 5394   0.321   7.277   0.726
 1818TIP3    H1 5395   0.402   7.226   0.718
 1818TIP3    H2 5396   0.343   7.362   0.688
 1819TIP3   OH2 5397   4.011   7.149   1.466
 1819TIP3    H1 5398   4.046   7.064   1.441
 1819TIP3    H2 5399   4.025   7.154   1.561
 1820TIP3   OH2 5400   0.211   7.469   3.748
 1820TIP3    H1 5401   0.306   7.485   3.746
 1820TIP3    H2 5402   0.182   7.484   3.659
 1821TIP3   OH2 5403   5.065   0.276   3.658
 1821TIP3    H1 5404   5.019   0.214   3.601
 1821TIP3    H2 5405   5.044   0.362   3.621
 1822TIP3   OH2 5406   5.949   6.693   0.652
 1822TIP3    H1 5407   5.861   6.690   0.614
 1822TIP3    H2 5408   5.964   6.605   0.684
 1823TIP3   OH2 5409   7.857   6.103   0.918
 1823TIP3    H1 5410   7.802   6.159   0.973
 1823TIP3    H2 5411   7.861   6.019   0.965
 1824TIP3   OH2 5412   0.130   4.170   0.434
 1824TIP3    H1 5413   0.124   4.146   0.342
 1824TIP3    H2 5414   0.211   4.130   0.465
 1825TIP3   OH2 5415   0.399   1.910   4.262
 1825TIP3    H1 5416   0.356   1.908   4.347
 1825TIP3    H2 5417   0.480   1.861   4.275
 1826TIP3   OH2 5418   1.647   0.733   4.370
 1826TIP3    H1 5419   1.736   0.746   4.402
 1826TIP3    H2 5420   1.626   0.814   4.323
 1827TIP3   OH2 5421   1.025   4.488   6.074
 1827TIP3    H1 5422   1.082   4.515   6.146
 1827TIP3    H2 5423   1.075   4.421   6.028
 1828TIP3   OH2 5424   5.691   1.416   1.652
 1828TIP3    H1 5425   5.679   1.488   1.715
 1828TIP3    H2 5426   5.629   1.349   1.681
 1829TIP3   OH2 5427   0.425   7.470   5.743
 1829TIP3    H1 5428   0.376   7.546   5.776
 1829TIP3    H2 5429   0.513   7.503   5.727
 1830TIP3   OH2 5430   0.384   3.450   6.496
 1830TIP3    H1 5431   0.306   3.441   6.441
 1830TIP3    H2 5432   0.413   3.540   6.482
 1831TIP3   OH2 5433   2.238   7.557   0.931
 1831TIP3    H1 5434   2.226   7.477   0.982
 1831TIP3    H2 5435   2.156   7.605   0.941
 1832TIP3   OH2 5436   7.359   7.471   3.737
 1832TIP3    H1 5437   7.405   7.411   3.795
 1832TIP3    H2 5438   7.339   7.547   3.792
 1833TIP3   OH2 5439   0.268   3.261   1.307
 1833TIP3    H1 5440   0.329   3.331   1.331
 1833TIP3    H2 5441   0.312   3.180   1.334
 1834TIP3   OH2 5442   3.404   2.952   3.821
 1834TIP3    H1 5443   3.398   2.948   3.916
 1834TIP3    H2 5444   3.445   2.869   3.796
 1835TIP3   OH2 5445   1.873   1.581   3.504
 1835TIP3    H1 5446   1.862   1.509   3.443
 1835TIP3    H2 5447   1.822   1.653   3.467
 1836TIP3   OH2 5448   1.821   7.425   0.378
 1836TIP3    H1 5449   1.776   7.345   0.349
 1836TIP3    H2 5450   1.846   7.468   0.296
 1837TIP3   OH2 5451   3.526   5.002   2.854
 1837TIP3    H1 5452   3.570   4.942   2.793
 1837TIP3    H2 5453   3.582   5.080   2.856
 1838TIP3   OH2 5454   3.340   2.799   4.278
 1838TIP3    H1 5455   3.339   2.873   4.218
 1838TIP3    H2 5456   3.413   2.744   4.249
 1839TIP3   OH2 5457   4.429   4.593   4.591
 1839TIP3    H1 5458   4.513   4.638   4.586
 1839TIP3    H2 5459   4.439   4.529   4.661
 1840TIP3   OH2 5460   0.190   5.360   0.942
 1840TIP3    H1 5461   0.182   5.425   1.012
 1840TIP3    H2 5462   0.101   5.351   0.908
 1841TIP3   OH2 5463   0.557   4.802   6.234
 1841TIP3    H1 5464   0.520   4.778   6.319
 1841TIP3    H2 5465   0.644   4.762   6.234
 1842TIP3   OH2 5466   3.120   1.601   2.128
 1842TIP3    H1 5467   3.177   1.525   2.115
 1842TIP3    H2 5468   3.110   1.639   2.041
 1843TIP3   OH2 5469   5.185  -0.017   4.742
 1843TIP3    H1 5470   5.195  -0.081   4.813
 1843TIP3    H2 5471   5.130   0.052   4.780
 1844TIP3   OH2 5472   7.700   4.696   6.657
 1844TIP3    H1 5473   7.782   4.746   6.655
 1844TIP3    H2 5474   7.723   4.616   6.704
 1845TIP3   OH2 5475   2.284   4.616   1.407
 1845TIP3    H1 5476   2.205   4.570   1.379
 1845TIP3    H2 5477   2.256   4.667   1.483
 1846TIP3   OH2 5478   7.304   2.384   2.262
 1846TIP3    H1 5479   7.335   2.421   2.345
 1846TIP3    H2 5480   7.383   2.357   2.216
 1847TIP3   OH2 5481   7.858   2.174   0.674
 1847TIP3    H1 5482   7.842   2.248   0.617
 1847TIP3    H2 5483   7.776   2.163   0.723
 1848TIP3   OH2 5484   3.666   2.465   3.117
 1848TIP3    H1 5485   3.693   2.389   3.169
 1848TIP3    H2 5486   3.716   2.538   3.155
 1849TIP3   OH2 5487   0.085   3.277   4.327
 1849TIP3    H1 5488   0.006   3.265   4.275
 1849TIP3    H2 5489   0.121   3.189   4.336
 1850TIP3   OH2 5490   6.769   1.130   1.806
 1850TIP3    H1 5491   6.697   1.147   1.745
 1850TIP3    H2 5492   6.732   1.070   1.870
 1851TIP3   OH2 5493   4.278   4.928   3.713
 1851TIP3    H1 5494   4.269   4.881   3.796
 1851TIP3    H2 5495   4.190   4.962   3.695
 1852TIP3   OH2 5496   7.204   5.437   1.492
 1852TIP3    H1 5497   7.156   5.509   1.533
 1852TIP3    H2 5498   7.291   5.440   1.533
 1853TIP3   OH2 5499   5.230   3.358   3.390
 1853TIP3    H1 5500   5.296   3.426   3.380
 1853TIP3    H2 5501   5.188   3.352   3.304
 1854TIP3   OH2 5502   6.407   0.488   6.182
 1854TIP3    H1 5503   6.395   0.403   6.226
 1854TIP3    H2 5504   6.320   0.528   6.182
 1855TIP3   OH2 5505   5.101   3.214   5.979
 1855TIP3    H1 5506   5.157   3.136   5.980
 1855TIP3    H2 5507   5.113   3.254   6.065
 1856TIP3   OH2 5508   0.091   6.263   6.299
 1856TIP3    H1 5509   0.123   6.316   6.372
 1856TIP3    H2 5510   0.157   6.274   6.231
 1857TIP3   OH2 5511   5.251   6.626   3.128
 1857TIP3    H1 5512   5.224   6.718   3.127
 1857TIP3    H2 5513   5.328   6.623   3.072
 1858TIP3   OH2 5514   8.393   6.867   1.612
 1858TIP3    H1 5515   8.380   6.777   1.582
 1858TIP3    H2 5516   8.324   6.917   1.568
 1859TIP3   OH2 5517   5.510   3.793   4.516
 1859TIP3    H1 5518   5.586   3.841   4.549
 1859TIP3    H2 5519   5.459   3.858   4.467
 1860TIP3   OH2 5520   0.583   1.824   1.782
 1860TIP3    H1 5521   0.629   1.908   1.792
 1860TIP3    H2 5522   0.496   1.848   1.749
 1861TIP3   OH2 5523   1.312   0.439   1.547
 1861TIP3    H1 5524   1.406   0.453   1.541
 1861TIP3    H2 5525   1.273   0.515   1.505
 1862TIP3   OH2 5526   2.866   3.590   4.851
 1862TIP3    H1 5527   2.771   3.596   4.861
 1862TIP3    H2 5528   2.894   3.681   4.835
 1863TIP3   OH2 5529   4.417   6.664   5.738
 1863TIP3    H1 5530   4.430   6.747   5.784
 1863TIP3    H2 5531   4.340   6.626   5.781
 1864TIP3   OH2 5532   5.630   0.264   0.147
 1864TIP3    H1 5533   5.582   0.306   0.219
 1864TIP3    H2 5534   5.681   0.335   0.107
 1865TIP3   OH2 5535   2.086   4.890   3.304
 1865TIP3    H1 5536   2.040   4.914   3.384
 1865TIP3    H2 5537   2.176   4.921   3.318
 1866TIP3   OH2 5538   1.301   2.837   5.898
 1866TIP3    H1 5539   1.285   2.800   5.811
 1866TIP3    H2 5540   1.268   2.927   5.891
 1867TIP3   OH2 5541   2.324   7.459   3.651
 1867TIP3    H1 5542   2.418   7.477   3.640
 1867TIP3    H2 5543   2.284   7.484   3.568
 1868TIP3   OH2 5544   0.921   0.774   0.714
 1868TIP3    H1 5545   0.963   0.739   0.635
 1868TIP3    H2 5546   0.883   0.698   0.757
 1869TIP3   OH2 5547   6.343   0.111   5.266
 1869TIP3    H1 5548   6.299   0.184   5.222
 1869TIP3    H2 5549   6.376   0.148   5.348
 1870TIP3   OH2 5550   4.305   3.475   1.197
 1870TIP3    H1 5551   4.232   3.524   1.236
 1870TIP3    H2 5552   4.365   3.543   1.166
 1871TIP3   OH2 5553   4.209   4.190   5.211
 1871TIP3    H1 5554   4.279   4.128   5.230
 1871TIP3    H2 5555   4.214   4.204   5.116
 1872TIP3   OH2 5556   0.924   2.387   2.463
 1872TIP3    H1 5557   0.881   2.419   2.543
 1872TIP3    H2 5558   0.882   2.437   2.392
 1873TIP3   OH2 5559   1.868   2.670   1.329
 1873TIP3    H1 5560   1.806   2.740   1.309
 1873TIP3    H2 5561   1.836   2.633   1.412
 1874TIP3   OH2 5562   3.400   2.171   2.950
 1874TIP3    H1 5563   3.417   2.264   2.963
 1874TIP3    H2 5564   3.452   2.148   2.872
 1875TIP3   OH2 5565   2.876   4.978   3.342
 1875TIP3    H1 5566   2.918   4.894   3.325
 1875TIP3    H2 5567   2.837   5.003   3.258
 1876TIP3   OH2 5568   5.413   2.957   1.903
 1876TIP3    H1 5569   5.424   3.040   1.951
 1876TIP3    H2 5570   5.383   2.983   1.817
 1877TIP3   OH2 5571   7.877   3.285   3.896
 1877TIP3    H1 5572   7.971   3.298   3.890
 1877TIP3    H2 5573   7.839   3.359   3.847
 1878TIP3   OH2 5574   1.949   6.986   0.555
 1878TIP3    H1 5575   1.936   6.906   0.504
 1878TIP3    H2 5576   2.036   7.016   0.530
 1879TIP3   OH2 5577   1.903   3.813   2.291
 1879TIP3    H1 5578   1.838   3.883   2.304
 1879TIP3    H2 5579   1.851   3.734   2.280
 1880TIP3   OH2 5580   0.796   0.123   0.964
 1880TIP3    H1 5581   0.890   0.107   0.969
 1880TIP3    H2 5582   0.763   0.105   1.052
 1881TIP3   OH2 5583   3.210   4.899   4.715
 1881TIP3    H1 5584   3.246   4.892   4.627
 1881TIP3    H2 5585   3.284   4.923   4.771
 1882TIP3   OH2 5586   2.879   3.294   1.543
 1882TIP3    H1 5587   2.823   3.317   1.468
 1882TIP3    H2 5588   2.829   3.227   1.590
 1883TIP3   OH2 5589   5.516   2.280   2.427
 1883TIP3    H1 5590   5.479   2.193   2.444
 1883TIP3    H2 5591   5.497   2.330   2.507
 1884TIP3   OH2 5592   6.699   0.659   0.897
 1884TIP3    H1 5593   6.767   0.649   0.963
 1884TIP3    H2 5594   6.743   0.702   0.823
 1885TIP3   OH2 5595   6.563   1.540   4.343
 1885TIP3    H1 5596   6.515   1.467   4.304
 1885TIP3    H2 5597   6.654   1.512   4.341
 1886TIP3   OH2 5598   1.282   4.628   4.416
 1886TIP3    H1 5599   1.373   4.646   4.441
 1886TIP3    H2 5600   1.289   4.580   4.334
 1887TIP3   OH2 5601   3.817   5.877   4.876
 1887TIP3    H1 5602   3.867   5.909   4.951
 1887TIP3    H2 5603   3.874   5.893   4.801
 1888TIP3   OH2 5604   1.650   2.614   5.164
 1888TIP3    H1 5605   1.706   2.604   5.088
 1888TIP3    H2 5606   1.667   2.537   5.218
 1889TIP3   OH2 5607   1.680   1.992   6.385
 1889TIP3    H1 5608   1.685   2.008   6.291
 1889TIP3    H2 5609   1.591   1.957   6.398
 1890TIP3   OH2 5610   1.556   0.147   5.492
 1890TIP3    H1 5611   1.611   0.221   5.517
 1890TIP3    H2 5612   1.578   0.130   5.401
 1891TIP3   OH2 5613   4.749   4.013   1.005
 1891TIP3    H1 5614   4.834   3.983   1.036
 1891TIP3    H2 5615   4.745   4.106   1.030
 1892TIP3   OH2 5616   4.892   2.582   0.834
 1892TIP3    H1 5617   4.859   2.643   0.769
 1892TIP3    H2 5618   4.945   2.520   0.785
 1893TIP3   OH2 5619   6.895   1.786   0.771
 1893TIP3    H1 5620   6.976   1.773   0.721
 1893TIP3    H2 5621   6.895   1.880   0.790
 1894TIP3   OH2 5622   8.232   1.087   4.526
 1894TIP3    H1 5623   8.301   1.073   4.592
 1894TIP3    H2 5624   8.260   1.166   4.479
 1895TIP3   OH2 5625   3.190   1.407   3.998
 1895TIP3    H1 5626   3.145   1.492   4.002
 1895TIP3    H2 5627   3.261   1.414   4.061
 1896TIP3   OH2 5628   7.930   3.344   2.649
 1896TIP3    H1 5629   7.854   3.286   2.653
 1896TIP3    H2 5630   7.902   3.424   2.695
 1897TIP3   OH2 5631   2.792   6.661   3.037
 1897TIP3    H1 5632   2.814   6.578   2.994
 1897TIP3    H2 5633   2.830   6.728   2.979
 1898TIP3   OH2 5634   2.315   1.109   3.395
 1898TIP3    H1 5635   2.276   1.027   3.364
 1898TIP3    H2 5636   2.243   1.155   3.437
 1899TIP3   OH2 5637   5.010   2.828   3.865
 1899TIP3    H1 5638   5.068   2.892   3.823
 1899TIP3    H2 5639   4.944   2.808   3.798
 1900TIP3   OH2 5640   0.043   2.494   0.111
 1900TIP3    H1 5641  -0.021   2.423   0.119
 1900TIP3    H2 5642   0.128   2.449   0.111
 1901TIP3   OH2 5643   5.205   3.133   1.390
 1901TIP3    H1 5644   5.172   3.210   1.436
 1901TIP3    H2 5645   5.278   3.167   1.337
 1902TIP3   OH2 5646   1.390   6.091   6.067
 1902TIP3    H1 5647   1.324   6.154   6.096
 1902TIP3    H2 5648   1.451   6.086   6.141
 1903TIP3   OH2 5649   0.350   1.754   3.689
 1903TIP3    H1 5650   0.277   1.726   3.633
 1903TIP3    H2 5651   0.360   1.848   3.670
 1904TIP3   OH2 5652   5.684   4.050   3.948
 1904TIP3    H1 5653   5.628   4.120   3.915
 1904TIP3    H2 5654   5.764   4.057   3.897
 1905TIP3   OH2 5655   5.703   6.808   6.176
 1905TIP3    H1 5656   5.632   6.833   6.236
 1905TIP3    H2 5657   5.783   6.827   6.225
 1906TIP3   OH2 5658   7.635   0.836   3.164
 1906TIP3    H1 5659   7.684   0.898   3.219
 1906TIP3    H2 5660   7.550   0.878   3.153
 1907TIP3   OH2 5661   5.627   4.453   1.837
 1907TIP3    H1 5662   5.655   4.396   1.909
 1907TIP3    H2 5663   5.610   4.537   1.879
 1908TIP3   OH2 5664   0.417   3.028   2.889
 1908TIP3    H1 5665   0.353   2.972   2.845
 1908TIP3    H2 5666   0.477   2.967   2.932
 1909TIP3   OH2 5667   4.456   1.935   2.602
 1909TIP3    H1 5668   4.407   1.926   2.684
 1909TIP3    H2 5669   4.543   1.900   2.622
 1910TIP3   OH2 5670   5.817   6.594   4.577
 1910TIP3    H1 5671   5.755   6.666   4.576
 1910TIP3    H2 5672   5.903   6.636   4.578
 1911TIP3   OH2 5673   5.315   2.659   6.187
 1911TIP3    H1 5674   5.222   2.676   6.173
 1911TIP3    H2 5675   5.333   2.580   6.137
 1912TIP3   OH2 5676   8.092   7.074   6.587
 1912TIP3    H1 5677   8.021   7.126   6.549
 1912TIP3    H2 5678   8.123   7.021   6.514
 1913TIP3   OH2 5679   5.096   6.819   5.882
 1913TIP3    H1 5680   5.033   6.873   5.930
 1913TIP3    H2 5681   5.086   6.732   5.920
 1914TIP3   OH2 5682   6.524   2.616   5.128
 1914TIP3    H1 5683   6.480   2.531   5.118
 1914TIP3    H2 5684   6.617   2.594   5.133
 1915TIP3   OH2 5685   6.457   7.287   0.374
 1915TIP3    H1 5686   6.402   7.336   0.435
 1915TIP3    H2 5687   6.540   7.276   0.420
 1916TIP3   OH2 5688   1.006   3.587   1.049
 1916TIP3    H1 5689   0.944   3.603   0.978
 1916TIP3    H2 5690   0.974   3.642   1.121
 1917TIP3   OH2 5691   4.221   0.503   3.997
 1917TIP3    H1 5692   4.200   0.585   3.953
 1917TIP3    H2 5693   4.302   0.474   3.956
 1918TIP3   OH2 5694   6.462   5.963   0.334
 1918TIP3    H1 5695   6.422   5.937   0.251
 1918TIP3    H2 5696   6.389   5.990   0.389
 1919TIP3   OH2 5697   8.132   5.063   2.689
 1919TIP3    H1 5698   8.049   5.019   2.711
 1919TIP3    H2 5699   8.183   4.995   2.644
 1920TIP3   OH2 5700   1.324   5.701   2.684
 1920TIP3    H1 5701   1.319   5.709   2.589
 1920TIP3    H2 5702   1.417   5.685   2.702
 1921TIP3   OH2 5703   2.475   5.675   2.061
 1921TIP3    H1 5704   2.546   5.658   1.999
 1921TIP3    H2 5705   2.444   5.763   2.039
 1922TIP3   OH2 5706   2.794   3.673   4.568
 1922TIP3    H1 5707   2.754   3.735   4.629
 1922TIP3    H2 5708   2.734   3.598   4.568
 1923TIP3   OH2 5709   5.849   4.116   3.702
 1923TIP3    H1 5710   5.913   4.161   3.647
 1923TIP3    H2 5711   5.771   4.170   3.698
 1924TIP3   OH2 5712   1.362   3.559   3.921
 1924TIP3    H1 5713   1.294   3.530   3.859
 1924TIP3    H2 5714   1.317   3.620   3.978
 1925TIP3   OH2 5715   4.815   1.975   0.328
 1925TIP3    H1 5716   4.743   1.913   0.315
 1925TIP3    H2 5717   4.851   1.987   0.240
 1926TIP3   OH2 5718   0.674   7.187   0.121
 1926TIP3    H1 5719   0.622   7.162   0.197
 1926TIP3    H2 5720   0.620   7.253   0.076
 1927TIP3   OH2 5721   7.085   2.918   6.530
 1927TIP3    H1 5722   7.092   2.822   6.525
 1927TIP3    H2 5723   7.125   2.949   6.449
 1928TIP3   OH2 5724   1.709   5.356   5.605
 1928TIP3    H1 5725   1.631   5.303   5.615
 1928TIP3    H2 5726   1.767   5.304   5.549
 1929TIP3   OH2 5727   7.421   2.257   3.009
 1929TIP3    H1 5728   7.364   2.188   2.976
 1929TIP3    H2 5729   7.363   2.331   3.024
 1930TIP3   OH2 5730   4.192   7.745   6.634
 1930TIP3    H1 5731   4.250   7.821   6.624
 1930TIP3    H2 5732   4.125   7.774   6.696
 1931TIP3   OH2 5733   0.088   5.821   4.219
 1931TIP3    H1 5734   0.173   5.812   4.263
 1931TIP3    H2 5735   0.059   5.730   4.207
 1932TIP3   OH2 5736   1.578   5.349   3.151
 1932TIP3    H1 5737   1.624   5.312   3.076
 1932TIP3    H2 5738   1.541   5.431   3.119
 1933TIP3   OH2 5739   2.911   4.879   2.808
 1933TIP3    H1 5740   2.828   4.924   2.825
 1933TIP3    H2 5741   2.954   4.932   2.742
 1934TIP3   OH2 5742   4.727   3.542   2.772
 1934TIP3    H1 5743   4.819   3.539   2.746
 1934TIP3    H2 5744   4.681   3.567   2.692
 1935TIP3   OH2 5745   2.204   6.690   3.159
 1935TIP3    H1 5746   2.117   6.652   3.153
 1935TIP3    H2 5747   2.217   6.733   3.075
 1936TIP3   OH2 5748   0.539   4.119   6.761
 1936TIP3    H1 5749   0.493   4.194   6.724
 1936TIP3    H2 5750   0.590   4.083   6.688
 1937TIP3   OH2 5751   7.683   6.013   2.487
 1937TIP3    H1 5752   7.605   5.973   2.523
 1937TIP3    H2 5753   7.750   5.944   2.491
 1938TIP3   OH2 5754   8.314   4.107   3.649
 1938TIP3    H1 5755   8.266   4.190   3.646
 1938TIP3    H2 5756   8.388   4.120   3.589
 1939TIP3   OH2 5757   1.990   0.906   4.732
 1939TIP3    H1 5758   2.049   0.978   4.709
 1939TIP3    H2 5759   2.047   0.839   4.770
 1940TIP3   OH2 5760   0.135   6.053   2.350
 1940TIP3    H1 5761   0.168   6.102   2.425
 1940TIP3    H2 5762   0.070   6.110   2.310
 1941TIP3   OH2 5763   1.440   5.632   0.365
 1941TIP3    H1 5764   1.453   5.715   0.319
 1941TIP3    H2 5765   1.449   5.654   0.458
 1942TIP3   OH2 5766   7.491   7.809   2.820
 1942TIP3    H1 5767   7.503   7.772   2.907
 1942TIP3    H2 5768   7.426   7.752   2.778
 1943TIP3   OH2 5769   0.548   3.269   2.956
 1943TIP3    H1 5770   0.556   3.316   2.873
 1943TIP3    H2 5771   0.504   3.188   2.934
 1944TIP3   OH2 5772   5.681   0.189   1.322
 1944TIP3    H1 5773   5.762   0.190   1.270
 1944TIP3    H2 5774   5.613   0.163   1.259
 1945TIP3   OH2 5775   0.780   7.231   3.575
 1945TIP3    H1 5776   0.768   7.326   3.573
 1945TIP3    H2 5777   0.757   7.206   3.664
 1946TIP3   OH2 5778   5.875   5.252   1.572
 1946TIP3    H1 5779   5.806   5.228   1.511
 1946TIP3    H2 5780   5.874   5.182   1.638
 1947TIP3   OH2 5781   8.083   4.505   5.159
 1947TIP3    H1 5782   8.037   4.545   5.085
 1947TIP3    H2 5783   8.076   4.411   5.143
 1948TIP3   OH2 5784   6.297   1.025   3.696
 1948TIP3    H1 5785   6.286   0.930   3.686
 1948TIP3    H2 5786   6.296   1.040   3.790
 1949TIP3   OH2 5787   6.068   5.778   0.069
 1949TIP3    H1 5788   6.063   5.733   0.154
 1949TIP3    H2 5789   5.995   5.743   0.019
 1950TIP3   OH2 5790   1.874   6.801   4.132
 1950TIP3    H1 5791   1.827   6.735   4.080
 1950TIP3    H2 5792   1.806   6.863   4.158
 1951TIP3   OH2 5793   4.944   3.890   2.450
 1951TIP3    H1 5794   4.877   3.836   2.493
 1951TIP3    H2 5795   5.023   3.875   2.502
 1952TIP3   OH2 5796   5.528   5.745   0.327
 1952TIP3    H1 5797   5.588   5.737   0.400
 1952TIP3    H2 5798   5.581   5.725   0.250
 1953TIP3   OH2 5799   2.936   7.719   0.128
 1953TIP3    H1 5800   3.010   7.758   0.082
 1953TIP3    H2 5801   2.864   7.779   0.113
 1954TIP3   OH2 5802   7.444   5.130   1.902
 1954TIP3    H1 5803   7.363   5.115   1.951
 1954TIP3    H2 5804   7.486   5.044   1.898
 1955TIP3   OH2 5805   3.550   6.139   0.311
 1955TIP3    H1 5806   3.514   6.096   0.389
 1955TIP3    H2 5807   3.634   6.175   0.341
 1956TIP3   OH2 5808   5.633   1.445   2.790
 1956TIP3    H1 5809   5.616   1.474   2.879
 1956TIP3    H2 5810   5.656   1.352   2.798
 1957TIP3   OH2 5811   4.348   1.531   5.865
 1957TIP3    H1 5812   4.344   1.604   5.927
 1957TIP3    H2 5813   4.292   1.558   5.792
 1958TIP3   OH2 5814   8.362   4.703   2.239
 1958TIP3    H1 5815   8.354   4.618   2.196
 1958TIP3    H2 5816   8.351   4.767   2.169
 1959TIP3   OH2 5817   1.585   1.336   1.211
 1959TIP3    H1 5818   1.589   1.379   1.125
 1959TIP3    H2 5819   1.559   1.406   1.271
 1960TIP3   OH2 5820   4.797   4.351  -0.004
 1960TIP3    H1 5821   4.746   4.318  -0.078
 1960TIP3    H2 5822   4.799   4.446  -0.016
 1961TIP3   OH2 5823   5.281   7.321   4.696
 1961TIP3    H1 5824   5.270   7.415   4.706
 1961TIP3    H2 5825   5.199   7.291   4.656
 1962TIP3   OH2 5826   4.006   2.211   5.933
 1962TIP3    H1 5827   3.947   2.137   5.925
 1962TIP3    H2 5828   4.074   2.181   5.994
 1963TIP3   OH2 5829   3.306   0.095   3.818
 1963TIP3    H1 5830   3.392   0.126   3.845
 1963TIP3    H2 5831   3.247   0.121   3.889
 1964TIP3   OH2 5832   2.603   1.515   0.482
 1964TIP3    H1 5833   2.580   1.450   0.416
 1964TIP3    H2 5834   2.688   1.549   0.454
 1965TIP3   OH2 5835   3.917   7.279   6.014
 1965TIP3    H1 5836   3.940   7.361   6.058
 1965TIP3    H2 5837   3.993   7.259   5.960
 1966TIP3   OH2 5838   5.719   6.114   6.354
 1966TIP3    H1 5839   5.723   6.091   6.447
 1966TIP3    H2 5840   5.807   6.144   6.333
 1967TIP3   OH2 5841   3.132   7.771   2.249
 1967TIP3    H1 5842   3.126   7.839   2.316
 1967TIP3    H2 5843   3.093   7.811   2.171
 1968TIP3   OH2 5844   7.012   6.088   2.644
 1968TIP3    H1 5845   6.965   6.073   2.562
 1968TIP3    H2 5846   6.946   6.077   2.713
 1969TIP3   OH2 5847   4.644   2.625   3.616
 1969TIP3    H1 5848   4.706   2.696   3.599
 1969TIP3    H2 5849   4.580   2.663   3.676
 1970TIP3   OH2 5850   1.123   4.747   3.057
 1970TIP3    H1 5851   1.041   4.743   3.105
 1970TIP3    H2 5852   1.097   4.764   2.966
 1971TIP3   OH2 5853   5.221   4.081   5.593
 1971TIP3    H1 5854   5.241   4.004   5.540
 1971TIP3    H2 5855   5.222   4.048   5.683
 1972TIP3   OH2 5856   7.609   3.460   1.274
 1972TIP3    H1 5857   7.684   3.505   1.314
 1972TIP3    H2 5858   7.603   3.377   1.321
 1973TIP3   OH2 5859   2.941   4.417   5.229
 1973TIP3    H1 5860   2.852   4.451   5.233
 1973TIP3    H2 5861   2.983   4.467   5.159
 1974TIP3   OH2 5862   1.451   7.562   4.466
 1974TIP3    H1 5863   1.367   7.598   4.436
 1974TIP3    H2 5864   1.505   7.639   4.485
 1975TIP3   OH2 5865   1.161   1.245   1.742
 1975TIP3    H1 5866   1.104   1.316   1.712
 1975TIP3    H2 5867   1.239   1.253   1.686
 1976TIP3   OH2 5868   3.808   4.412   2.002
 1976TIP3    H1 5869   3.754   4.355   1.947
 1976TIP3    H2 5870   3.897   4.381   1.988
 1977TIP3   OH2 5871   4.347   6.968   4.281
 1977TIP3    H1 5872   4.340   6.983   4.186
 1977TIP3    H2 5873   4.421   6.908   4.290
 1978TIP3   OH2 5874   5.072   4.236   0.714
 1978TIP3    H1 5875   5.008   4.283   0.661
 1978TIP3    H2 5876   5.063   4.145   0.686
 1979TIP3   OH2 5877   2.438   6.359   1.772
 1979TIP3    H1 5878   2.462   6.451   1.783
 1979TIP3    H2 5879   2.521   6.312   1.775
 1980TIP3   OH2 5880   3.278   7.723   2.754
 1980TIP3    H1 5881   3.214   7.782   2.713
 1980TIP3    H2 5882   3.286   7.756   2.844
 1981TIP3   OH2 5883   6.098   4.684   6.457
 1981TIP3    H1 5884   6.143   4.647   6.381
 1981TIP3    H2 5885   6.154   4.663   6.531
 1982TIP3   OH2 5886   7.003   0.239   2.450
 1982TIP3    H1 5887   7.030   0.287   2.371
 1982TIP3    H2 5888   7.085   0.210   2.489
 1983TIP3   OH2 5889   2.437   5.275   0.948
 1983TIP3    H1 5890   2.411   5.350   1.002
 1983TIP3    H2 5891   2.361   5.216   0.951
 1984TIP3   OH2 5892   0.243   4.374   3.569
 1984TIP3    H1 5893   0.333   4.364   3.598
 1984TIP3    H2 5894   0.217   4.287   3.540
 1985TIP3   OH2 5895   3.085   0.762   0.421
 1985TIP3    H1 5896   3.081   0.677   0.465
 1985TIP3    H2 5897   3.130   0.744   0.339
 1986TIP3   OH2 5898   3.946   6.970   2.297
 1986TIP3    H1 5899   3.949   7.045   2.237
 1986TIP3    H2 5900   3.858   6.936   2.287
 1987TIP3   OH2 5901   2.816   0.484   0.345
 1987TIP3    H1 5902   2.742   0.424   0.356
 1987TIP3    H2 5903   2.804   0.520   0.257
 1988TIP3   OH2 5904   5.024   1.129   5.046
 1988TIP3    H1 5905   5.106   1.089   5.018
 1988TIP3    H2 5906   5.039   1.224   5.038
 1989TIP3   OH2 5907   3.572   2.952   2.074
 1989TIP3    H1 5908   3.622   2.875   2.045
 1989TIP3    H2 5909   3.560   2.939   2.168
 1990TIP3   OH2 5910   6.059   4.820   6.012
 1990TIP3    H1 5911   6.006   4.863   6.080
 1990TIP3    H2 5912   6.061   4.728   6.039
 1991TIP3   OH2 5913   8.256   4.389   1.859
 1991TIP3    H1 5914   8.267   4.300   1.825
 1991TIP3    H2 5915   8.165   4.412   1.840
 1992TIP3   OH2 5916   0.462   4.129   6.153
 1992TIP3    H1 5917   0.479   4.193   6.083
 1992TIP3    H2 5918   0.500   4.169   6.231
 1993TIP3   OH2 5919   7.957   1.591   5.021
 1993TIP3    H1 5920   8.010   1.671   5.014
 1993TIP3    H2 5921   7.880   1.608   4.966
 1994TIP3   OH2 5922   3.051   5.218   3.393
 1994TIP3    H1 5923   2.975   5.275   3.378
 1994TIP3    H2 5924   3.021   5.131   3.366
 1995TIP3   OH2 5925   7.265   1.911   1.578
 1995TIP3    H1 5926   7.284   1.820   1.604
 1995TIP3    H2 5927   7.340   1.938   1.526
 1996TIP3   OH2 5928   2.163   1.496   6.183
 1996TIP3    H1 5929   2.231   1.508   6.116
 1996TIP3    H2 5930   2.108   1.575   6.175
 1997TIP3   OH2 5931   6.180   7.711   1.036
 1997TIP3    H1 5932   6.266   7.724   1.077
 1997TIP3    H2 5933   6.149   7.800   1.019
 1998TIP3   OH2 5934   7.122   3.520   1.164
 1998TIP3    H1 5935   7.054   3.476   1.111
 1998TIP3    H2 5936   7.175   3.567   1.100
 1999TIP3   OH2 5937   7.163   6.194   1.320
 1999TIP3    H1 5938   7.175   6.099   1.324
 1999TIP3    H2 5939   7.250   6.229   1.341
 2000TIP3   OH2 5940   5.161   1.138   1.923
 2000TIP3    H1 5941   5.187   1.217   1.875
 2000TIP3    H2 5942   5.101   1.169   1.991
 2001TIP3   OH2 5943   5.045   5.222   6.686
 2001TIP3    H1 5944   4.983   5.158   6.650
 2001TIP3    H2 5945   5.105   5.171   6.739
 2002TIP3   OH2 5946   7.520   7.597   2.523
 2002TIP3    H1 5947   7.504   7.510   2.485
 2002TIP3    H2 5948   7.527   7.654   2.447
 2003TIP3   OH2 5949   7.981   0.442   1.627
 2003TIP3    H1 5950   7.974   0.533   1.599
 2003TIP3    H2 5951   7.917   0.434   1.698
 2004TIP3   OH2 5952   7.226   1.228   5.561
 2004TIP3    H1 5953   7.205   1.306   5.613
 2004TIP3    H2 5954   7.172   1.237   5.482
 2005TIP3   OH2 5955   0.821   7.344   3.096
 2005TIP3    H1 5956   0.729   7.322   3.090
 2005TIP3    H2 5957   0.841   7.386   3.013
 2006TIP3   OH2 5958   0.053   0.234   5.502
 2006TIP3    H1 5959   0.137   0.198   5.473
 2006TIP3    H2 5960   0.076   0.290   5.576
 2007TIP3   OH2 5961   0.689   6.127   0.419
 2007TIP3    H1 5962   0.657   6.139   0.330
 2007TIP3    H2 5963   0.690   6.032   0.432
 2008TIP3   OH2 5964   8.099   3.104   6.681
 2008TIP3    H1 5965   8.081   3.046   6.755
 2008TIP3    H2 5966   8.175   3.065   6.637
 2009TIP3   OH2 5967   4.254   1.649   0.868
 2009TIP3    H1 5968   4.245   1.564   0.911
 2009TIP3    H2 5969   4.320   1.634   0.800
 2010TIP3   OH2 5970   2.058   2.626   4.617
 2010TIP3    H1 5971   2.016   2.593   4.537
 2010TIP3    H2 5972   2.066   2.720   4.602
 2011TIP3   OH2 5973   3.405   0.366   3.200
 2011TIP3    H1 5974   3.468   0.316   3.252
 2011TIP3    H2 5975   3.459   0.427   3.150
 2012TIP3   OH2 5976   2.618   3.082   6.260
 2012TIP3    H1 5977   2.524   3.099   6.266
 2012TIP3    H2 5978   2.645   3.123   6.178
 2013TIP3   OH2 5979   2.443   4.724   2.073
 2013TIP3    H1 5980   2.394   4.784   2.130
 2013TIP3    H2 5981   2.534   4.742   2.093
 2014TIP3   OH2 5982   7.877   2.050   1.132
 2014TIP3    H1 5983   7.926   2.054   1.215
 2014TIP3    H2 5984   7.867   1.957   1.114
 2015TIP3   OH2 5985   3.812   7.785   3.342
 2015TIP3    H1 5986   3.830   7.764   3.434
 2015TIP3    H2 5987   3.717   7.794   3.338
 2016TIP3   OH2 5988   6.435   0.837   6.503
 2016TIP3    H1 5989   6.367   0.778   6.469
 2016TIP3    H2 5990   6.470   0.792   6.579
 2017TIP3   OH2 5991   2.861   3.623   6.427
 2017TIP3    H1 5992   2.823   3.561   6.364
 2017TIP3    H2 5993   2.857   3.708   6.383
 2018TIP3   OH2 5994   8.350   5.835   6.076
 2018TIP3    H1 5995   8.435   5.870   6.103
 2018TIP3    H2 5996   8.320   5.785   6.152
 2019TIP3   OH2 5997   5.577   0.131   6.436
 2019TIP3    H1 5998   5.657   0.175   6.464
 2019TIP3    H2 5999   5.605   0.071   6.367
 2020TIP3   OH2 6000   5.753   0.478   5.801
 2020TIP3    H1 6001   5.685   0.515   5.858
 2020TIP3    H2 6002   5.821   0.545   5.798
 2021TIP3   OH2 6003   5.957   3.524   3.883
 2021TIP3    H1 6004   6.024   3.581   3.922
 2021TIP3    H2 6005   5.948   3.556   3.793
 2022TIP3   OH2 6006   2.534   5.724   3.635
 2022TIP3    H1 6007   2.468   5.712   3.567
 2022TIP3    H2 6008   2.486   5.758   3.710
 2023TIP3   OH2 6009   7.933   4.127   5.642
 2023TIP3    H1 6010   7.969   4.069   5.710
 2023TIP3    H2 6011   7.982   4.106   5.563
 2024TIP3   OH2 6012   8.327   2.848   1.836
 2024TIP3    H1 6013   8.333   2.932   1.882
 2024TIP3    H2 6014   8.234   2.835   1.822
 2025TIP3   OH2 6015   4.604   4.177   5.113
 2025TIP3    H1 6016   4.628   4.147   5.200
 2025TIP3    H2 6017   4.687   4.177   5.064
 2026TIP3   OH2 6018   3.823   2.178   1.295
 2026TIP3    H1 6019   3.790   2.195   1.207
 2026TIP3    H2 6020   3.768   2.231   1.352
 2027TIP3   OH2 6021   1.723   5.717   4.109
 2027TIP3    H1 6022   1.760   5.804   4.094
 2027TIP3    H2 6023   1.799   5.659   4.115
 2028TIP3   OH2 6024   7.307   0.176   0.851
 2028TIP3    H1 6025   7.358   0.240   0.902
 2028TIP3    H2 6026   7.260   0.229   0.787
 2029TIP3   OH2 6027   8.142   6.806   2.731
 2029TIP3    H1 6028   8.076   6.781   2.795
 2029TIP3    H2 6029   8.223   6.810   2.782
 2030TIP3   OH2 6030   6.087   2.577   0.692
 2030TIP3    H1 6031   6.076   2.638   0.619
 2030TIP3    H2 6032   6.085   2.490   0.651
 2031TIP3   OH2 6033   4.869   0.667   4.503
 2031TIP3    H1 6034   4.939   0.703   4.448
 2031TIP3    H2 6035   4.790   0.678   4.450
 2032TIP3   OH2 6036   3.834   3.230   2.376
 2032TIP3    H1 6037   3.905   3.240   2.438
 2032TIP3    H2 6038   3.766   3.290   2.407
 2033TIP3   OH2 6039   4.560   4.325   2.770
 2033TIP3    H1 6040   4.547   4.248   2.715
 2033TIP3    H2 6041   4.528   4.299   2.857
 2034TIP3   OH2 6042   3.717   1.258   4.260
 2034TIP3    H1 6043   3.738   1.344   4.294
 2034TIP3    H2 6044   3.769   1.250   4.180
 2035TIP3   OH2 6045   0.463   2.260   2.103
 2035TIP3    H1 6046   0.461   2.165   2.109
 2035TIP3    H2 6047   0.480   2.279   2.011
 2036TIP3   OH2 6048   4.076   4.451   1.301
 2036TIP3    H1 6049   4.166   4.419   1.289
 2036TIP3    H2 6050   4.087   4.533   1.350
 2037TIP3   OH2 6051   5.980   1.845   3.008
 2037TIP3    H1 6052   5.958   1.760   2.968
 2037TIP3    H2 6053   6.054   1.826   3.065
 2038TIP3   OH2 6054   3.953   0.413   4.383
 2038TIP3    H1 6055   3.957   0.420   4.287
 2038TIP3    H2 6056   3.977   0.322   4.401
 2039TIP3   OH2 6057   4.692   0.358   3.906
 2039TIP3    H1 6058   4.787   0.342   3.908
 2039TIP3    H2 6059   4.679   0.414   3.830
 2040TIP3   OH2 6060   0.146   5.104   3.025
 2040TIP3    H1 6061   0.109   5.144   2.946
 2040TIP3    H2 6062   0.092   5.026   3.040
 2041TIP3   OH2 6063   4.242   6.353   4.285
 2041TIP3    H1 6064   4.245   6.269   4.331
 2041TIP3    H2 6065   4.212   6.332   4.197
 2042TIP3   OH2 6066   2.215   5.064   0.665
 2042TIP3    H1 6067   2.149   5.016   0.615
 2042TIP3    H2 6068   2.298   5.025   0.638
 2043TIP3   OH2 6069   4.443   0.968   4.683
 2043TIP3    H1 6070   4.387   1.044   4.698
 2043TIP3    H2 6071   4.524   1.004   4.648
 2044TIP3   OH2 6072   0.695   0.412   1.802
 2044TIP3    H1 6073   0.737   0.461   1.873
 2044TIP3    H2 6074   0.621   0.368   1.844
 2045TIP3   OH2 6075   8.047   6.246   6.372
 2045TIP3    H1 6076   8.007   6.165   6.342
 2045TIP3    H2 6077   8.137   6.222   6.394
 2046TIP3   OH2 6078   6.373   7.170   3.166
 2046TIP3    H1 6079   6.409   7.082   3.170
 2046TIP3    H2 6080   6.283   7.157   3.135
 2047TIP3   OH2 6081   6.791   5.480   0.460
 2047TIP3    H1 6082   6.877   5.521   0.454
 2047TIP3    H2 6083   6.742   5.534   0.521
 2048TIP3   OH2 6084   6.819   3.927   6.583
 2048TIP3    H1 6085   6.881   3.854   6.594
 2048TIP3    H2 6086   6.847   3.970   6.503
 2049TIP3   OH2 6087   7.657   1.094   6.397
 2049TIP3    H1 6088   7.601   1.060   6.466
 2049TIP3    H2 6089   7.744   1.058   6.417
 2050TIP3   OH2 6090   2.772   1.876   4.464
 2050TIP3    H1 6091   2.722   1.958   4.475
 2050TIP3    H2 6092   2.705   1.810   4.449
 2051TIP3   OH2 6093   0.000   7.699   2.927
 2051TIP3    H1 6094   0.012   7.791   2.902
 2051TIP3    H2 6095   0.029   7.649   2.851
 2052TIP3   OH2 6096   6.855   1.999   2.022
 2052TIP3    H1 6097   6.853   1.922   2.079
 2052TIP3    H2 6098   6.774   2.046   2.043
 2053TIP3   OH2 6099   1.775   3.199   6.061
 2053TIP3    H1 6100   1.766   3.250   6.141
 2053TIP3    H2 6101   1.825   3.255   6.002
 2054TIP3   OH2 6102   5.893   1.782   3.505
 2054TIP3    H1 6103   5.986   1.760   3.506
 2054TIP3    H2 6104   5.890   1.872   3.470
 2055TIP3   OH2 6105   3.771   2.379   0.285
 2055TIP3    H1 6106   3.859   2.391   0.249
 2055TIP3    H2 6107   3.726   2.326   0.220
 2056TIP3   OH2 6108   4.157   1.614   0.157
 2056TIP3    H1 6109   4.066   1.629   0.133
 2056TIP3    H2 6110   4.155   1.596   0.251
 2057TIP3   OH2 6111   1.603   2.547   0.893
 2057TIP3    H1 6112   1.636   2.554   0.983
 2057TIP3    H2 6113   1.580   2.455   0.883
 2058TIP3   OH2 6114   0.520   5.155   2.240
 2058TIP3    H1 6115   0.578   5.216   2.286
 2058TIP3    H2 6116   0.435   5.199   2.240
 2059TIP3   OH2 6117   7.440   5.931   0.140
 2059TIP3    H1 6118   7.475   5.867   0.203
 2059TIP3    H2 6119   7.513   5.990   0.123
 2060TIP3   OH2 6120   1.110   5.495   2.662
 2060TIP3    H1 6121   1.054   5.484   2.740
 2060TIP3    H2 6122   1.183   5.548   2.693
 2061TIP3   OH2 6123   1.451   2.748   6.836
 2061TIP3    H1 6124   1.443   2.836   6.799
 2061TIP3    H2 6125   1.489   2.696   6.765
 2062TIP3   OH2 6126   2.054   1.059   0.436
 2062TIP3    H1 6127   2.143   1.081   0.409
 2062TIP3    H2 6128   1.998   1.106   0.376
 2063TIP3   OH2 6129   3.014   7.480   2.931
 2063TIP3    H1 6130   2.920   7.498   2.931
 2063TIP3    H2 6131   3.029   7.435   2.847
 2064TIP3   OH2 6132   7.323   1.347   3.843
 2064TIP3    H1 6133   7.229   1.359   3.856
 2064TIP3    H2 6134   7.332   1.325   3.750
 2065TIP3   OH2 6135   3.798   4.269   1.619
 2065TIP3    H1 6136   3.806   4.346   1.564
 2065TIP3    H2 6137   3.760   4.202   1.562
 2066TIP3   OH2 6138   6.017   1.398   6.837
 2066TIP3    H1 6139   6.044   1.397   6.929
 2066TIP3    H2 6140   5.948   1.464   6.833
 2067TIP3   OH2 6141   3.109   2.953   0.862
 2067TIP3    H1 6142   3.108   2.858   0.856
 2067TIP3    H2 6143   3.132   2.971   0.953
 2068TIP3   OH2 6144   3.074   4.391   4.723
 2068TIP3    H1 6145   3.002   4.332   4.703
 2068TIP3    H2 6146   3.077   4.451   4.648
 2069TIP3   OH2 6147   4.220   4.406   0.336
 2069TIP3    H1 6148   4.227   4.344   0.408
 2069TIP3    H2 6149   4.186   4.355   0.263
 2070TIP3   OH2 6150   8.347   0.317   3.934
 2070TIP3    H1 6151   8.392   0.234   3.918
 2070TIP3    H2 6152   8.401   0.383   3.889
 2071TIP3   OH2 6153   0.109   0.145   4.562
 2071TIP3    H1 6154   0.041   0.172   4.501
 2071TIP3    H2 6155   0.175   0.215   4.556
 2072TIP3   OH2 6156   3.593   2.853   5.365
 2072TIP3    H1 6157   3.590   2.758   5.354
 2072TIP3    H2 6158   3.637   2.886   5.287
 2073TIP3   OH2 6159   0.063   7.308   0.541
 2073TIP3    H1 6160  -0.018   7.315   0.591
 2073TIP3    H2 6161   0.132   7.328   0.604
 2074TIP3   OH2 6162   4.570   5.421   6.617
 2074TIP3    H1 6163   4.542   5.508   6.589
 2074TIP3    H2 6164   4.637   5.395   6.554
 2075TIP3   OH2 6165   5.968   6.184   1.248
 2075TIP3    H1 6166   5.889   6.232   1.223
 2075TIP3    H2 6167   5.985   6.211   1.338
 2076TIP3   OH2 6168   2.961   4.895   4.347
 2076TIP3    H1 6169   3.042   4.844   4.355
 2076TIP3    H2 6170   2.940   4.921   4.437
 2077TIP3   OH2 6171   6.032   1.142   1.096
 2077TIP3    H1 6172   5.969   1.122   1.027
 2077TIP3    H2 6173   6.009   1.231   1.124
 2078TIP3   OH2 6174   5.980   4.121   2.609
 2078TIP3    H1 6175   5.916   4.180   2.570
 2078TIP3    H2 6176   6.057   4.128   2.553
 2079TIP3   OH2 6177   0.209   6.942   4.801
 2079TIP3    H1 6178   0.142   6.941   4.733
 2079TIP3    H2 6179   0.277   7.000   4.766
 2080TIP3   OH2 6180   1.892   7.507   5.644
 2080TIP3    H1 6181   1.803   7.540   5.653
 2080TIP3    H2 6182   1.907   7.455   5.722
 2081TIP3   OH2 6183   5.676   6.932   5.416
 2081TIP3    H1 6184   5.614   6.930   5.489
 2081TIP3    H2 6185   5.761   6.947   5.456
 2082TIP3   OH2 6186   0.654   5.082   3.211
 2082TIP3    H1 6187   0.699   5.075   3.127
 2082TIP3    H2 6188   0.649   5.177   3.227
 2083TIP3   OH2 6189   0.184   0.718   6.302
 2083TIP3    H1 6190   0.238   0.652   6.260
 2083TIP3    H2 6191   0.108   0.729   6.245
 2084TIP3   OH2 6192   8.130   5.328   2.650
 2084TIP3    H1 6193   8.160   5.336   2.741
 2084TIP3    H2 6194   8.124   5.234   2.635
 2085TIP3   OH2 6195   2.571   7.604   3.219
 2085TIP3    H1 6196   2.587   7.509   3.213
 2085TIP3    H2 6197   2.649   7.639   3.260
 2086TIP3   OH2 6198   7.970   1.212   6.244
 2086TIP3    H1 6199   7.895   1.257   6.282
 2086TIP3    H2 6200   8.031   1.283   6.221
 2087TIP3   OH2 6201   8.040   3.994   2.724
 2087TIP3    H1 6202   8.118   3.950   2.760
 2087TIP3    H2 6203   7.967   3.958   2.775
 2088TIP3   OH2 6204   3.123   4.458   0.751
 2088TIP3    H1 6205   3.151   4.393   0.816
 2088TIP3    H2 6206   3.169   4.432   0.671
 2089TIP3   OH2 6207   3.093   4.412   3.682
 2089TIP3    H1 6208   3.047   4.375   3.607
 2089TIP3    H2 6209   3.155   4.474   3.643
 2090TIP3   OH2 6210   6.942   5.747   3.539
 2090TIP3    H1 6211   6.985   5.735   3.624
 2090TIP3    H2 6212   6.968   5.835   3.512
 2091TIP3   OH2 6213   4.259   4.423   6.807
 2091TIP3    H1 6214   4.335   4.374   6.840
 2091TIP3    H2 6215   4.184   4.381   6.848
 2092TIP3   OH2 6216   3.259   2.775   5.050
 2092TIP3    H1 6217   3.341   2.726   5.056
 2092TIP3    H2 6218   3.248   2.793   4.957
 2093TIP3   OH2 6219   2.633   3.021   0.521
 2093TIP3    H1 6220   2.581   2.963   0.577
 2093TIP3    H2 6221   2.569   3.082   0.484
 2094TIP3   OH2 6222   5.640   0.220   3.401
 2094TIP3    H1 6223   5.574   0.164   3.360
 2094TIP3    H2 6224   5.701   0.241   3.330
 2095TIP3   OH2 6225   0.520   3.132   3.496
 2095TIP3    H1 6226   0.471   3.208   3.463
 2095TIP3    H2 6227   0.500   3.062   3.433
 2096TIP3   OH2 6228   7.329   4.034   2.124
 2096TIP3    H1 6229   7.390   3.980   2.174
 2096TIP3    H2 6230   7.251   3.980   2.115
 2097TIP3   OH2 6231   8.066   2.860   5.294
 2097TIP3    H1 6232   8.014   2.782   5.314
 2097TIP3    H2 6233   8.058   2.870   5.199
 2098TIP3   OH2 6234   5.708   0.790   0.914
 2098TIP3    H1 6235   5.754   0.746   0.843
 2098TIP3    H2 6236   5.616   0.764   0.903
 2099TIP3   OH2 6237   6.374   3.333   3.290
 2099TIP3    H1 6238   6.325   3.405   3.251
 2099TIP3    H2 6239   6.443   3.376   3.340
 2100TIP3   OH2 6240   4.452   1.003   6.248
 2100TIP3    H1 6241   4.428   0.975   6.160
 2100TIP3    H2 6242   4.547   1.011   6.245
 2101TIP3   OH2 6243   0.238   6.223   3.972
 2101TIP3    H1 6244   0.143   6.228   3.958
 2101TIP3    H2 6245   0.254   6.134   4.002
 2102TIP3   OH2 6246   3.663   4.931   0.847
 2102TIP3    H1 6247   3.645   5.015   0.889
 2102TIP3    H2 6248   3.577   4.895   0.826
 2103TIP3   OH2 6249   3.033   6.711   1.987
 2103TIP3    H1 6250   3.078   6.645   1.935
 2103TIP3    H2 6251   2.996   6.771   1.922
 2104TIP3   OH2 6252   1.515   4.288   3.840
 2104TIP3    H1 6253   1.513   4.193   3.854
 2104TIP3    H2 6254   1.595   4.316   3.884
 2105TIP3   OH2 6255   7.106   2.353   2.064
 2105TIP3    H1 6256   7.038   2.341   2.129
 2105TIP3    H2 6257   7.187   2.360   2.115
 2106TIP3   OH2 6258   7.704   0.152   6.623
 2106TIP3    H1 6259   7.665   0.085   6.566
 2106TIP3    H2 6260   7.629   0.187   6.672
 2107TIP3   OH2 6261   6.515   6.501   5.051
 2107TIP3    H1 6262   6.531   6.407   5.064
 2107TIP3    H2 6263   6.419   6.509   5.053
 2108TIP3   OH2 6264   4.575   3.712   5.253
 2108TIP3    H1 6265   4.550   3.721   5.345
 2108TIP3    H2 6266   4.668   3.731   5.251
 2109TIP3   OH2 6267   6.782   3.722   0.195
 2109TIP3    H1 6268   6.829   3.674   0.127
 2109TIP3    H2 6269   6.743   3.796   0.150
 2110TIP3   OH2 6270   4.065   4.661   6.433
 2110TIP3    H1 6271   4.116   4.583   6.455
 2110TIP3    H2 6272   4.050   4.704   6.517
 2111TIP3   OH2 6273   5.095   5.656   4.814
 2111TIP3    H1 6274   5.052   5.583   4.858
 2111TIP3    H2 6275   5.161   5.685   4.876
 2112TIP3   OH2 6276   5.978   6.003   1.989
 2112TIP3    H1 6277   5.938   5.918   2.009
 2112TIP3    H2 6278   6.059   6.004   2.040
 2113TIP3   OH2 6279   6.039   3.049   6.738
 2113TIP3    H1 6280   6.052   3.135   6.698
 2113TIP3    H2 6281   6.014   2.992   6.665
 2114TIP3   OH2 6282   1.963   5.665   3.250
 2114TIP3    H1 6283   1.903   5.664   3.176
 2114TIP3    H2 6284   2.002   5.753   3.248
 2115TIP3   OH2 6285   0.736   1.310   3.214
 2115TIP3    H1 6286   0.781   1.394   3.227
 2115TIP3    H2 6287   0.745   1.264   3.297
 2116TIP3   OH2 6288   6.861   7.489   5.362
 2116TIP3    H1 6289   6.802   7.520   5.293
 2116TIP3    H2 6290   6.848   7.550   5.435
 2117TIP3   OH2 6291   6.828   3.235   2.887
 2117TIP3    H1 6292   6.744   3.249   2.843
 2117TIP3    H2 6293   6.888   3.295   2.842
 2118TIP3   OH2 6294   1.921   2.736   3.083
 2118TIP3    H1 6295   1.995   2.688   3.046
 2118TIP3    H2 6296   1.875   2.673   3.137
 2119TIP3   OH2 6297   4.965   2.779   5.818
 2119TIP3    H1 6298   5.013   2.800   5.739
 2119TIP3    H2 6299   4.902   2.851   5.828
 2120TIP3   OH2 6300   4.257   7.456   5.447
 2120TIP3    H1 6301   4.209   7.383   5.487
 2120TIP3    H2 6302   4.323   7.480   5.512
 2121TIP3   OH2 6303   7.485   2.350   6.233
 2121TIP3    H1 6304   7.457   2.265   6.267
 2121TIP3    H2 6305   7.547   2.328   6.163
 2122TIP3   OH2 6306   6.300   3.317   2.181
 2122TIP3    H1 6307   6.309   3.234   2.134
 2122TIP3    H2 6308   6.219   3.356   2.147
 2123TIP3   OH2 6309   7.962   4.935   6.066
 2123TIP3    H1 6310   7.936   4.937   6.158
 2123TIP3    H2 6311   7.880   4.940   6.017
 2124TIP3   OH2 6312   1.166   6.821   4.191
 2124TIP3    H1 6313   1.118   6.829   4.108
 2124TIP3    H2 6314   1.099   6.829   4.258
 2125TIP3   OH2 6315   3.389   2.325   2.100
 2125TIP3    H1 6316   3.391   2.403   2.155
 2125TIP3    H2 6317   3.480   2.307   2.079
 2126TIP3   OH2 6318   7.204   7.703   6.792
 2126TIP3    H1 6319   7.280   7.647   6.812
 2126TIP3    H2 6320   7.205   7.711   6.696
 2127TIP3   OH2 6321   4.215   1.228   0.500
 2127TIP3    H1 6322   4.217   1.135   0.525
 2127TIP3    H2 6323   4.122   1.249   0.494
 2128TIP3   OH2 6324   3.686   0.878   2.982
 2128TIP3    H1 6325   3.739   0.849   2.907
 2128TIP3    H2 6326   3.750   0.895   3.051
 2129TIP3   OH2 6327   2.636   5.735   1.161
 2129TIP3    H1 6328   2.728   5.755   1.147
 2129TIP3    H2 6329   2.610   5.684   1.084
 2130TIP3   OH2 6330   3.725   2.523   1.276
 2130TIP3    H1 6331   3.706   2.450   1.334
 2130TIP3    H2 6332   3.646   2.577   1.279
 2131TIP3   OH2 6333   6.973   3.070   1.208
 2131TIP3    H1 6334   6.984   3.005   1.139
 2131TIP3    H2 6335   6.948   3.020   1.285
 2132TIP3   OH2 6336   0.421   1.706   6.051
 2132TIP3    H1 6337   0.389   1.787   6.091
 2132TIP3    H2 6338   0.466   1.735   5.971
 2133TIP3   OH2 6339   4.948   7.256   4.157
 2133TIP3    H1 6340   4.951   7.168   4.194
 2133TIP3    H2 6341   4.999   7.250   4.076
 2134TIP3   OH2 6342   1.391   3.027   4.403
 2134TIP3    H1 6343   1.373   3.120   4.420
 2134TIP3    H2 6344   1.388   3.020   4.307
 2135TIP3   OH2 6345   0.159   7.955   5.720
 2135TIP3    H1 6346   0.110   7.888   5.674
 2135TIP3    H2 6347   0.141   8.036   5.672
 2136TIP3   OH2 6348   5.408   4.336   6.208
 2136TIP3    H1 6349   5.360   4.290   6.140
 2136TIP3    H2 6350   5.377   4.426   6.202
 2137TIP3   OH2 6351   0.893   2.402   5.753
 2137TIP3    H1 6352   0.914   2.390   5.846
 2137TIP3    H2 6353   0.819   2.462   5.753
 2138TIP3   OH2 6354   4.754   5.054   0.688
 2138TIP3    H1 6355   4.713   5.105   0.618
 2138TIP3    H2 6356   4.839   5.027   0.652
 2139TIP3   OH2 6357   8.166   5.068   4.376
 2139TIP3    H1 6358   8.233   5.124   4.414
 2139TIP3    H2 6359   8.136   5.013   4.448
 2140TIP3   OH2 6360   2.433   2.802   3.912
 2140TIP3    H1 6361   2.525   2.813   3.937
 2140TIP3    H2 6362   2.436   2.753   3.830
 2141TIP3   OH2 6363   2.237   0.600   5.452
 2141TIP3    H1 6364   2.211   0.545   5.526
 2141TIP3    H2 6365   2.329   0.620   5.468
 2142TIP3   OH2 6366   8.315   5.046   5.302
 2142TIP3    H1 6367   8.339   4.973   5.360
 2142TIP3    H2 6368   8.387   5.052   5.239
 2143TIP3   OH2 6369   1.316   6.012   2.492
 2143TIP3    H1 6370   1.232   6.048   2.520
 2143TIP3    H2 6371   1.379   6.043   2.558
 2144TIP3   OH2 6372   2.574   0.100   6.661
 2144TIP3    H1 6373   2.618   0.148   6.731
 2144TIP3    H2 6374   2.507   0.160   6.629
 2145TIP3   OH2 6375   4.595   0.264   6.020
 2145TIP3    H1 6376   4.663   0.217   5.972
 2145TIP3    H2 6377   4.569   0.335   5.962
 2146TIP3   OH2 6378   6.018   0.795   4.028
 2146TIP3    H1 6379   5.985   0.792   4.118
 2146TIP3    H2 6380   5.959   0.855   3.983
 2147TIP3   OH2 6381   2.252   7.639   4.397
 2147TIP3    H1 6382   2.224   7.548   4.384
 2147TIP3    H2 6383   2.339   7.643   4.359
 2148TIP3   OH2 6384   5.437   2.893   4.378
 2148TIP3    H1 6385   5.514   2.850   4.340
 2148TIP3    H2 6386   5.362   2.853   4.334
 2149TIP3   OH2 6387   8.087   6.247   1.149
 2149TIP3    H1 6388   8.109   6.325   1.098
 2149TIP3    H2 6389   8.172   6.210   1.173
 2150TIP3   OH2 6390   3.993   5.419   5.021
 2150TIP3    H1 6391   4.062   5.427   5.087
 2150TIP3    H2 6392   3.947   5.503   5.024
 2151TIP3   OH2 6393   6.157   0.969   6.609
 2151TIP3    H1 6394   6.143   1.062   6.629
 2151TIP3    H2 6395   6.227   0.969   6.543
 2152TIP3   OH2 6396   2.582   0.121   2.509
 2152TIP3    H1 6397   2.581   0.183   2.583
 2152TIP3    H2 6398   2.490   0.096   2.498
 2153TIP3   OH2 6399   3.203   4.078   3.408
 2153TIP3    H1 6400   3.266   4.054   3.476
 2153TIP3    H2 6401   3.252   4.071   3.327
 2154TIP3   OH2 6402   5.228   1.665   0.531
 2154TIP3    H1 6403   5.138   1.665   0.496
 2154TIP3    H2 6404   5.217   1.690   0.622
 2155TIP3   OH2 6405   7.241   6.078   1.660
 2155TIP3    H1 6406   7.270   6.079   1.568
 2155TIP3    H2 6407   7.303   6.136   1.704
 2156TIP3   OH2 6408   2.447   6.470   4.861
 2156TIP3    H1 6409   2.496   6.394   4.829
 2156TIP3    H2 6410   2.358   6.437   4.874
 2157TIP3   OH2 6411   4.793   3.675   0.910
 2157TIP3    H1 6412   4.784   3.755   0.858
 2157TIP3    H2 6413   4.828   3.611   0.848
 2158TIP3   OH2 6414   0.925   0.170   0.486
 2158TIP3    H1 6415   1.018   0.168   0.464
 2158TIP3    H2 6416   0.901   0.263   0.485
 2159TIP3   OH2 6417   7.856   4.799   3.907
 2159TIP3    H1 6418   7.938   4.767   3.869
 2159TIP3    H2 6419   7.788   4.768   3.847
 2160TIP3   OH2 6420   7.676   0.426   1.083
 2160TIP3    H1 6421   7.583   0.427   1.062
 2160TIP3    H2 6422   7.718   0.471   1.010
 2161TIP3   OH2 6423   6.096   0.761   3.078
 2161TIP3    H1 6424   6.184   0.772   3.044
 2161TIP3    H2 6425   6.104   0.774   3.172
 2162TIP3   OH2 6426   0.160   2.837   1.272
 2162TIP3    H1 6427   0.174   2.744   1.285
 2162TIP3    H2 6428   0.243   2.878   1.294
 2163TIP3   OH2 6429   0.714   5.870   6.662
 2163TIP3    H1 6430   0.680   5.841   6.747
 2163TIP3    H2 6431   0.793   5.921   6.684
 2164TIP3   OH2 6432   7.599   5.421   4.003
 2164TIP3    H1 6433   7.686   5.384   4.018
 2164TIP3    H2 6434   7.564   5.369   3.930
 2165TIP3   OH2 6435   7.465   0.431   4.947
 2165TIP3    H1 6436   7.520   0.372   4.895
 2165TIP3    H2 6437   7.391   0.377   4.974
 2166TIP3   OH2 6438   8.358   1.152   0.019
 2166TIP3    H1 6439   8.290   1.093   0.052
 2166TIP3    H2 6440   8.360   1.135  -0.076
 2167TIP3   OH2 6441   1.351   1.808   3.325
 2167TIP3    H1 6442   1.409   1.763   3.387
 2167TIP3    H2 6443   1.393   1.894   3.312
 2168TIP3   OH2 6444   6.505   2.494   4.546
 2168TIP3    H1 6445   6.545   2.475   4.461
 2168TIP3    H2 6446   6.416   2.462   4.539
 2169TIP3   OH2 6447   7.247   6.862   4.050
 2169TIP3    H1 6448   7.159   6.900   4.048
 2169TIP3    H2 6449   7.302   6.931   4.086
 2170TIP3   OH2 6450   2.505   6.408   6.219
 2170TIP3    H1 6451   2.412   6.387   6.218
 2170TIP3    H2 6452   2.510   6.489   6.271
 2171TIP3   OH2 6453   6.487   4.495   1.450
 2171TIP3    H1 6454   6.515   4.585   1.435
 2171TIP3    H2 6455   6.437   4.472   1.371
 2172TIP3   OH2 6456   4.660   3.997   1.408
 2172TIP3    H1 6457   4.730   3.958   1.461
 2172TIP3    H2 6458   4.605   4.044   1.471
 2173TIP3   OH2 6459   5.113   6.961   0.263
 2173TIP3    H1 6460   5.158   7.021   0.322
 2173TIP3    H2 6461   5.109   7.008   0.180
 2174TIP3   OH2 6462   4.958   1.602   4.017
 2174TIP3    H1 6463   4.903   1.525   4.007
 2174TIP3    H2 6464   4.996   1.616   3.929
 2175TIP3   OH2 6465   3.931   0.935   6.568
 2175TIP3    H1 6466   4.012   0.885   6.580
 2175TIP3    H2 6467   3.884   0.924   6.651
 2176TIP3   OH2 6468   3.726   6.039   1.459
 2176TIP3    H1 6469   3.781   6.078   1.526
 2176TIP3    H2 6470   3.751   5.947   1.457
 2177TIP3   OH2 6471   3.567   3.724   6.587
 2177TIP3    H1 6472   3.644   3.689   6.632
 2177TIP3    H2 6473   3.495   3.710   6.648
 2178TIP3   OH2 6474   6.339   1.193   6.185
 2178TIP3    H1 6475   6.333   1.281   6.147
 2178TIP3    H2 6476   6.429   1.187   6.218
 2179TIP3   OH2 6477   0.137   5.815   6.740
 2179TIP3    H1 6478   0.091   5.826   6.824
 2179TIP3    H2 6479   0.136   5.721   6.725
 2180TIP3   OH2 6480   8.324   4.276   1.556
 2180TIP3    H1 6481   8.234   4.295   1.529
 2180TIP3    H2 6482   8.373   4.354   1.533
 2181TIP3   OH2 6483   5.229   3.590   1.362
 2181TIP3    H1 6484   5.184   3.526   1.418
 2181TIP3    H2 6485   5.319   3.557   1.356
 2182TIP3   OH2 6486   7.213   0.047   1.103
 2182TIP3    H1 6487   7.208   0.105   1.027
 2182TIP3    H2 6488   7.304   0.016   1.103
 2183TIP3   OH2 6489   0.497   3.792   0.950
 2183TIP3    H1 6490   0.575   3.847   0.946
 2183TIP3    H2 6491   0.435   3.834   0.890
 2184TIP3   OH2 6492   0.922   3.131   3.303
 2184TIP3    H1 6493   0.932   3.173   3.389
 2184TIP3    H2 6494   0.904   3.040   3.324
 2185TIP3   OH2 6495   3.664   7.959   1.614
 2185TIP3    H1 6496   3.734   7.895   1.600
 2185TIP3    H2 6497   3.707   8.044   1.605
 2186TIP3   OH2 6498   3.233   1.739   1.010
 2186TIP3    H1 6499   3.256   1.650   0.983
 2186TIP3    H2 6500   3.169   1.768   0.944
 2187TIP3   OH2 6501   3.251   4.326   2.676
 2187TIP3    H1 6502   3.160   4.318   2.707
 2187TIP3    H2 6503   3.268   4.244   2.631
 2188TIP3   OH2 6504   8.231   7.442   6.770
 2188TIP3    H1 6505   8.284   7.441   6.691
 2188TIP3    H2 6506   8.145   7.410   6.743
 2189TIP3   OH2 6507   4.875   4.062   3.134
 2189TIP3    H1 6508   4.865   3.971   3.106
 2189TIP3    H2 6509   4.897   4.056   3.227
 2190TIP3   OH2 6510   8.329   4.121   1.796
 2190TIP3    H1 6511   8.360   4.034   1.772
 2190TIP3    H2 6512   8.328   4.170   1.714
 2191TIP3   OH2 6513   1.032   5.639   1.273
 2191TIP3    H1 6514   0.969   5.586   1.225
 2191TIP3    H2 6515   1.020   5.614   1.365
 2192TIP3   OH2 6516   1.309   7.838   1.370
 2192TIP3    H1 6517   1.312   7.920   1.322
 2192TIP3    H2 6518   1.218   7.808   1.361
 2193TIP3   OH2 6519   5.895   7.567   1.249
 2193TIP3    H1 6520   5.965   7.607   1.301
 2193TIP3    H2 6521   5.865   7.636   1.191
 2194TIP3   OH2 6522   7.845   0.789   4.828
 2194TIP3    H1 6523   7.837   0.820   4.737
 2194TIP3    H2 6524   7.911   0.846   4.866
 2195TIP3   OH2 6525   2.214   2.000   6.611
 2195TIP3    H1 6526   2.275   2.054   6.561
 2195TIP3    H2 6527   2.249   1.999   6.700
 2196TIP3   OH2 6528   4.242   4.281   4.567
 2196TIP3    H1 6529   4.192   4.316   4.640
 2196TIP3    H2 6530   4.193   4.203   4.539
 2197TIP3   OH2 6531   1.030   7.486   3.651
 2197TIP3    H1 6532   1.020   7.391   3.649
 2197TIP3    H2 6533   0.985   7.516   3.572
 2198TIP3   OH2 6534   4.655   2.346   3.711
 2198TIP3    H1 6535   4.564   2.315   3.716
 2198TIP3    H2 6536   4.648   2.441   3.714
 2199TIP3   OH2 6537   4.611   7.793   5.918
 2199TIP3    H1 6538   4.640   7.883   5.902
 2199TIP3    H2 6539   4.682   7.739   5.883
 2200TIP3   OH2 6540   2.623   6.197   6.381
 2200TIP3    H1 6541   2.618   6.247   6.299
 2200TIP3    H2 6542   2.546   6.141   6.380
 2201TIP3   OH2 6543   4.911   7.794   0.764
 2201TIP3    H1 6544   4.842   7.733   0.740
 2201TIP3    H2 6545   4.945   7.825   0.680
 2202TIP3   OH2 6546   7.816   5.509   1.780
 2202TIP3    H1 6547   7.867   5.575   1.827
 2202TIP3    H2 6548   7.725   5.540   1.786
 2203TIP3   OH2 6549   7.339   5.714   0.960
 2203TIP3    H1 6550   7.261   5.690   1.010
 2203TIP3    H2 6551   7.410   5.664   1.001
 2204TIP3   OH2 6552   1.770   7.362   6.624
 2204TIP3    H1 6553   1.837   7.430   6.622
 2204TIP3    H2 6554   1.810   7.292   6.676
 2205TIP3   OH2 6555   6.272   5.727   1.509
 2205TIP3    H1 6556   6.220   5.679   1.573
 2205TIP3    H2 6557   6.273   5.670   1.432
 2206TIP3   OH2 6558   6.737   7.622   0.998
 2206TIP3    H1 6559   6.766   7.678   0.926
 2206TIP3    H2 6560   6.746   7.676   1.076
 2207TIP3   OH2 6561   6.000   7.945   0.129
 2207TIP3    H1 6562   5.958   7.879   0.073
 2207TIP3    H2 6563   6.092   7.922   0.127
 2208TIP3   OH2 6564   1.020   4.612   4.261
 2208TIP3    H1 6565   1.073   4.664   4.201
 2208TIP3    H2 6566   1.068   4.530   4.270
 2209TIP3   OH2 6567   4.672   5.093   3.166
 2209TIP3    H1 6568   4.698   5.002   3.157
 2209TIP3    H2 6569   4.617   5.111   3.089
 2210TIP3   OH2 6570   7.167   0.783   6.524
 2210TIP3    H1 6571   7.168   0.737   6.608
 2210TIP3    H2 6572   7.193   0.718   6.460
 2211TIP3   OH2 6573   6.353   2.806   0.341
 2211TIP3    H1 6574   6.302   2.736   0.382
 2211TIP3    H2 6575   6.437   2.805   0.385
 2212TIP3   OH2 6576   4.628   3.415   4.880
 2212TIP3    H1 6577   4.597   3.504   4.899
 2212TIP3    H2 6578   4.697   3.399   4.945
 2213TIP3   OH2 6579   3.541   7.119   4.222
 2213TIP3    H1 6580   3.609   7.172   4.180
 2213TIP3    H2 6581   3.580   7.090   4.304
 2214TIP3   OH2 6582   2.082   6.504   4.096
 2214TIP3    H1 6583   2.058   6.492   4.188
 2214TIP3    H2 6584   2.120   6.591   4.091
 2215TIP3   OH2 6585   1.845   7.111   3.603
 2215TIP3    H1 6586   1.916   7.047   3.599
 2215TIP3    H2 6587   1.788   7.080   3.673
 2216TIP3   OH2 6588   3.462   3.990   0.420
 2216TIP3    H1 6589   3.501   3.903   0.430
 2216TIP3    H2 6590   3.368   3.973   0.410
 2217TIP3   OH2 6591   3.400   7.054   4.928
 2217TIP3    H1 6592   3.462   7.035   4.857
 2217TIP3    H2 6593   3.314   7.040   4.889
 2218TIP3   OH2 6594   5.011   5.877   5.774
 2218TIP3    H1 6595   5.059   5.956   5.749
 2218TIP3    H2 6596   5.069   5.805   5.749
 2219TIP3   OH2 6597   1.694   4.330   1.140
 2219TIP3    H1 6598   1.694   4.405   1.199
 2219TIP3    H2 6599   1.603   4.300   1.140
 2220TIP3   OH2 6600   0.481   6.314   1.369
 2220TIP3    H1 6601   0.459   6.224   1.346
 2220TIP3    H2 6602   0.575   6.311   1.390
 2221TIP3   OH2 6603   6.552   4.866   2.959
 2221TIP3    H1 6604   6.590   4.810   3.027
 2221TIP3    H2 6605   6.517   4.805   2.895
 2222TIP3   OH2 6606   0.642   5.296   5.634
 2222TIP3    H1 6607   0.696   5.282   5.557
 2222TIP3    H2 6608   0.557   5.258   5.612
 2223TIP3   OH2 6609   1.680   6.290   6.259
 2223TIP3    H1 6610   1.680   6.297   6.163
 2223TIP3    H2 6611   1.633   6.208   6.277
 2224TIP3   OH2 6612   1.018   6.644   0.143
 2224TIP3    H1 6613   0.925   6.667   0.151
 2224TIP3    H2 6614   1.062   6.709   0.198
 2225TIP3   OH2 6615   3.462   1.590   1.338
 2225TIP3    H1 6616   3.394   1.645   1.298
 2225TIP3    H2 6617   3.512   1.555   1.265
 2226TIP3   OH2 6618   1.180   3.972   2.634
 2226TIP3    H1 6619   1.138   3.912   2.572
 2226TIP3    H2 6620   1.117   4.043   2.645
 2227TIP3   OH2 6621   2.892   6.237   1.956
 2227TIP3    H1 6622   2.969   6.263   1.905
 2227TIP3    H2 6623   2.912   6.264   2.045
 2228TIP3   OH2 6624   6.294   1.146   1.226
 2228TIP3    H1 6625   6.215   1.099   1.201
 2228TIP3    H2 6626   6.268   1.238   1.231
 2229TIP3   OH2 6627   3.946   3.255   3.609
 2229TIP3    H1 6628   3.973   3.275   3.519
 2229TIP3    H2 6629   4.028   3.234   3.655
 2230TIP3   OH2 6630   5.883   2.323   0.031
 2230TIP3    H1 6631   5.851   2.370   0.108
 2230TIP3    H2 6632   5.977   2.314   0.047
 2231TIP3   OH2 6633   1.860   7.734   4.045
 2231TIP3    H1 6634   1.914   7.754   4.122
 2231TIP3    H2 6635   1.848   7.818   4.002
 2232TIP3   OH2 6636   8.133   1.632   1.374
 2232TIP3    H1 6637   8.222   1.596   1.366
 2232TIP3    H2 6638   8.098   1.629   1.286
 2233TIP3   OH2 6639   8.130   3.554   5.391
 2233TIP3    H1 6640   8.162   3.631   5.439
 2233TIP3    H2 6641   8.099   3.589   5.307
 2234TIP3   OH2 6642   7.833   3.005   1.529
 2234TIP3    H1 6643   7.915   2.969   1.497
 2234TIP3    H2 6644   7.822   3.087   1.481
 2235TIP3   OH2 6645   6.976   5.332   1.376
 2235TIP3    H1 6646   6.992   5.241   1.351
 2235TIP3    H2 6647   7.061   5.365   1.403
 2236TIP3   OH2 6648   2.567   7.344   0.793
 2236TIP3    H1 6649   2.623   7.269   0.770
 2236TIP3    H2 6650   2.516   7.362   0.714
 2237TIP3   OH2 6651   7.643   2.291   6.656
 2237TIP3    H1 6652   7.589   2.231   6.707
 2237TIP3    H2 6653   7.669   2.241   6.579
 2238TIP3   OH2 6654   0.340   3.132   3.152
 2238TIP3    H1 6655   0.389   3.084   3.085
 2238TIP3    H2 6656   0.314   3.213   3.109
 2239TIP3   OH2 6657   6.081   6.944   2.705
 2239TIP3    H1 6658   6.019   6.911   2.641
 2239TIP3    H2 6659   6.152   6.880   2.706
 2240TIP3   OH2 6660   3.031   4.971   4.961
 2240TIP3    H1 6661   3.066   5.043   4.908
 2240TIP3    H2 6662   3.076   4.893   4.928
 2241TIP3   OH2 6663   6.948   4.298   1.945
 2241TIP3    H1 6664   6.900   4.328   1.869
 2241TIP3    H2 6665   7.018   4.244   1.910
 2242TIP3   OH2 6666   7.213   4.442   2.390
 2242TIP3    H1 6667   7.219   4.534   2.364
 2242TIP3    H2 6668   7.169   4.444   2.475
 2243TIP3   OH2 6669   7.153   3.075   2.703
 2243TIP3    H1 6670   7.099   3.147   2.672
 2243TIP3    H2 6671   7.243   3.102   2.684
 2244TIP3   OH2 6672   1.288   0.391   4.561
 2244TIP3    H1 6673   1.282   0.406   4.467
 2244TIP3    H2 6674   1.320   0.474   4.597
 2245TIP3   OH2 6675   4.475   5.753   0.036
 2245TIP3    H1 6676   4.498   5.763  -0.056
 2245TIP3    H2 6677   4.381   5.773   0.039
 2246TIP3   OH2 6678   2.186   1.453   3.777
 2246TIP3    H1 6679   2.152   1.398   3.847
 2246TIP3    H2 6680   2.277   1.469   3.802
 2247TIP3   OH2 6681   6.233   4.604   3.712
 2247TIP3    H1 6682   6.250   4.515   3.741
 2247TIP3    H2 6683   6.141   4.619   3.730
 2248TIP3   OH2 6684   4.393   7.860   3.876
 2248TIP3    H1 6685   4.311   7.909   3.882
 2248TIP3    H2 6686   4.444   7.908   3.811
 2249TIP3   OH2 6687   6.559   1.158   2.624
 2249TIP3    H1 6688   6.488   1.096   2.606
 2249TIP3    H2 6689   6.584   1.139   2.714
 2250TIP3   OH2 6690   0.550   6.556   6.312
 2250TIP3    H1 6691   0.569   6.614   6.386
 2250TIP3    H2 6692   0.578   6.469   6.343
 2251TIP3   OH2 6693   1.291   0.577   3.305
 2251TIP3    H1 6694   1.307   0.522   3.228
 2251TIP3    H2 6695   1.376   0.583   3.349
 2252TIP3   OH2 6696   8.077   2.371   0.497
 2252TIP3    H1 6697   8.074   2.386   0.592
 2252TIP3    H2 6698   8.158   2.413   0.469
 2253TIP3   OH2 6699   0.577   0.402   3.861
 2253TIP3    H1 6700   0.615   0.385   3.947
 2253TIP3    H2 6701   0.492   0.359   3.864
 2254TIP3   OH2 6702   1.644   6.871   6.343
 2254TIP3    H1 6703   1.665   6.785   6.307
 2254TIP3    H2 6704   1.548   6.875   6.340
 2255TIP3   OH2 6705   3.170   5.052   5.660
 2255TIP3    H1 6706   3.165   4.983   5.594
 2255TIP3    H2 6707   3.221   5.122   5.618
 2256TIP3   OH2 6708   0.783   3.087   1.798
 2256TIP3    H1 6709   0.861   3.032   1.810
 2256TIP3    H2 6710   0.720   3.031   1.753
 2257TIP3   OH2 6711   2.893   7.487   4.082
 2257TIP3    H1 6712   2.929   7.573   4.059
 2257TIP3    H2 6713   2.799   7.495   4.066
 2258TIP3   OH2 6714   1.103   1.204   5.250
 2258TIP3    H1 6715   1.093   1.114   5.282
 2258TIP3    H2 6716   1.178   1.238   5.298
 2259TIP3   OH2 6717   3.766   1.446   0.184
 2259TIP3    H1 6718   3.694   1.455   0.121
 2259TIP3    H2 6719   3.843   1.429   0.130
 2260TIP3   OH2 6720   3.098   1.303   6.401
 2260TIP3    H1 6721   3.050   1.359   6.463
 2260TIP3    H2 6722   3.158   1.253   6.456
 2261TIP3   OH2 6723   8.298   3.094   1.960
 2261TIP3    H1 6724   8.287   3.181   1.921
 2261TIP3    H2 6725   8.214   3.076   2.001
 2262TIP3   OH2 6726   3.207   7.314   6.191
 2262TIP3    H1 6727   3.224   7.269   6.109
 2262TIP3    H2 6728   3.213   7.245   6.258
 2263TIP3   OH2 6729   8.397   7.213   3.777
 2263TIP3    H1 6730   8.408   7.249   3.865
 2263TIP3    H2 6731   8.302   7.201   3.768
 2264TIP3   OH2 6732   0.440   3.947   1.446
 2264TIP3    H1 6733   0.526   3.908   1.462
 2264TIP3    H2 6734   0.427   4.007   1.519
 2265TIP3   OH2 6735   5.508   0.799   4.721
 2265TIP3    H1 6736   5.528   0.892   4.714
 2265TIP3    H2 6737   5.514   0.766   4.631
 2266TIP3   OH2 6738   0.756   3.628   4.869
 2266TIP3    H1 6739   0.683   3.608   4.927
 2266TIP3    H2 6740   0.732   3.586   4.786
 2267TIP3   OH2 6741   6.191   0.295   3.107
 2267TIP3    H1 6742   6.185   0.330   3.196
 2267TIP3    H2 6743   6.278   0.256   3.103
 2268TIP3   OH2 6744   1.878   2.732   5.978
 2268TIP3    H1 6745   1.848   2.821   5.955
 2268TIP3    H2 6746   1.800   2.678   5.967
 2269TIP3   OH2 6747   2.521   4.172   2.865
 2269TIP3    H1 6748   2.605   4.211   2.842
 2269TIP3    H2 6749   2.509   4.194   2.958
 2270TIP3   OH2 6750   0.580   6.705   2.648
 2270TIP3    H1 6751   0.578   6.614   2.677
 2270TIP3    H2 6752   0.673   6.726   2.637
 2271TIP3   OH2 6753   8.162   7.927   1.411
 2271TIP3    H1 6754   8.132   7.902   1.324
 2271TIP3    H2 6755   8.089   7.902   1.469
 2272TIP3   OH2 6756   0.512   4.911   1.493
 2272TIP3    H1 6757   0.435   4.855   1.490
 2272TIP3    H2 6758   0.543   4.905   1.584
 2273TIP3   OH2 6759   2.831   7.204   5.577
 2273TIP3    H1 6760   2.838   7.158   5.493
 2273TIP3    H2 6761   2.756   7.164   5.620
 2274TIP3   OH2 6762   0.686   2.535   1.705
 2274TIP3    H1 6763   0.641   2.558   1.623
 2274TIP3    H2 6764   0.639   2.460   1.738
 2275TIP3   OH2 6765   5.629   2.847   1.378
 2275TIP3    H1 6766   5.640   2.895   1.296
 2275TIP3    H2 6767   5.646   2.912   1.446
 2276TIP3   OH2 6768   2.779   6.774   5.103
 2276TIP3    H1 6769   2.834   6.808   5.032
 2276TIP3    H2 6770   2.802   6.681   5.109
 2277TIP3   OH2 6771   1.948   4.108   0.624
 2277TIP3    H1 6772   1.914   4.113   0.535
 2277TIP3    H2 6773   1.880   4.062   0.673
 2278TIP3   OH2 6774   5.074   4.346   5.220
 2278TIP3    H1 6775   5.131   4.269   5.227
 2278TIP3    H2 6776   5.107   4.392   5.143
 2279TIP3   OH2 6777   2.376   7.272   4.412
 2279TIP3    H1 6778   2.463   7.283   4.375
 2279TIP3    H2 6779   2.318   7.316   4.350
 2280TIP3   OH2 6780   5.669   2.377   3.673
 2280TIP3    H1 6781   5.665   2.282   3.658
 2280TIP3    H2 6782   5.756   2.392   3.709
 2281TIP3   OH2 6783   1.912   0.476   1.061
 2281TIP3    H1 6784   1.902   0.474   1.157
 2281TIP3    H2 6785   1.846   0.539   1.032
 2282TIP3   OH2 6786   8.265   0.554   0.873
 2282TIP3    H1 6787   8.266   0.611   0.796
 2282TIP3    H2 6788   8.257   0.614   0.948
 2283TIP3   OH2 6789   3.068   2.847   0.564
 2283TIP3    H1 6790   2.996   2.907   0.547
 2283TIP3    H2 6791   3.028   2.760   0.561
 2284TIP3   OH2 6792   7.417   2.571   2.429
 2284TIP3    H1 6793   7.433   2.570   2.523
 2284TIP3    H2 6794   7.466   2.647   2.397
 2285TIP3   OH2 6795   8.317   7.732   4.359
 2285TIP3    H1 6796   8.302   7.820   4.326
 2285TIP3    H2 6797   8.391   7.700   4.308
 2286TIP3   OH2 6798   3.968   5.376   0.335
 2286TIP3    H1 6799   3.921   5.384   0.417
 2286TIP3    H2 6800   3.951   5.286   0.306
 2287TIP3   OH2 6801   3.767   1.956   3.533
 2287TIP3    H1 6802   3.704   1.893   3.568
 2287TIP3    H2 6803   3.719   2.039   3.530
 2288TIP3   OH2 6804   1.871   7.130   2.972
 2288TIP3    H1 6805   1.915   7.099   3.052
 2288TIP3    H2 6806   1.928   7.199   2.939
 2289TIP3   OH2 6807   0.812   4.137   0.177
 2289TIP3    H1 6808   0.879   4.134   0.245
 2289TIP3    H2 6809   0.831   4.062   0.121
 2290TIP3   OH2 6810   5.374   1.955   5.541
 2290TIP3    H1 6811   5.390   2.038   5.585
 2290TIP3    H2 6812   5.289   1.968   5.498
 2291TIP3   OH2 6813   6.034   1.832   2.485
 2291TIP3    H1 6814   6.110   1.889   2.477
 2291TIP3    H2 6815   6.067   1.755   2.532
 2292TIP3   OH2 6816   1.820   4.791   0.155
 2292TIP3    H1 6817   1.736   4.834   0.174
 2292TIP3    H2 6818   1.808   4.701   0.186
 2293TIP3   OH2 6819   0.370   4.416   6.321
 2293TIP3    H1 6820   0.448   4.379   6.364
 2293TIP3    H2 6821   0.309   4.342   6.315
 2294TIP3   OH2 6822   7.446   3.510   4.917
 2294TIP3    H1 6823   7.448   3.445   4.987
 2294TIP3    H2 6824   7.487   3.467   4.843
 2295TIP3   OH2 6825   2.822   6.070   3.529
 2295TIP3    H1 6826   2.809   6.012   3.604
 2295TIP3    H2 6827   2.768   6.147   3.549
 2296TIP3   OH2 6828   1.302   2.220   2.528
 2296TIP3    H1 6829   1.374   2.198   2.469
 2296TIP3    H2 6830   1.225   2.181   2.487
 2297TIP3   OH2 6831   6.768   4.493   0.321
 2297TIP3    H1 6832   6.772   4.492   0.226
 2297TIP3    H2 6833   6.846   4.541   0.348
 2298TIP3   OH2 6834   7.526   6.775   6.143
 2298TIP3    H1 6835   7.610   6.818   6.125
 2298TIP3    H2 6836   7.482   6.772   6.058
 2299TIP3   OH2 6837   5.398   1.791   3.812
 2299TIP3    H1 6838   5.441   1.747   3.739
 2299TIP3    H2 6839   5.376   1.878   3.778
 2300TIP3   OH2 6840   0.355   2.352   6.756
 2300TIP3    H1 6841   0.311   2.419   6.705
 2300TIP3    H2 6842   0.380   2.396   6.837
 2301TIP3   OH2 6843   6.211   7.519   5.900
 2301TIP3    H1 6844   6.143   7.583   5.920
 2301TIP3    H2 6845   6.272   7.526   5.973
 2302TIP3   OH2 6846   5.212   0.660   6.555
 2302TIP3    H1 6847   5.248   0.584   6.508
 2302TIP3    H2 6848   5.224   0.639   6.648
 2303TIP3   OH2 6849   3.889   0.216   2.167
 2303TIP3    H1 6850   3.832   0.289   2.146
 2303TIP3    H2 6851   3.864   0.189   2.256
 2304TIP3   OH2 6852   5.963   5.246   4.446
 2304TIP3    H1 6853   5.954   5.337   4.474
 2304TIP3    H2 6854   6.053   5.238   4.417
 2305TIP3   OH2 6855   3.969   6.026   1.612
 2305TIP3    H1 6856   4.064   6.018   1.616
 2305TIP3    H2 6857   3.936   5.961   1.675
 2306TIP3   OH2 6858   4.927   3.988   4.822
 2306TIP3    H1 6859   4.840   3.969   4.858
 2306TIP3    H2 6860   4.920   3.962   4.730
 2307TIP3   OH2 6861   7.138   7.860   2.795
 2307TIP3    H1 6862   7.082   7.893   2.725
 2307TIP3    H2 6863   7.177   7.781   2.758
 2308TIP3   OH2 6864   3.396   3.711   6.780
 2308TIP3    H1 6865   3.405   3.773   6.852
 2308TIP3    H2 6866   3.306   3.679   6.788
 2309TIP3   OH2 6867   6.961   6.803   0.750
 2309TIP3    H1 6868   6.890   6.859   0.782
 2309TIP3    H2 6869   6.916   6.729   0.710
 2310TIP3   OH2 6870   4.174   2.620   2.592
 2310TIP3    H1 6871   4.263   2.590   2.572
 2310TIP3    H2 6872   4.171   2.622   2.688
 2311TIP3   OH2 6873   5.248   3.995   3.392
 2311TIP3    H1 6874   5.205   3.943   3.459
 2311TIP3    H2 6875   5.342   3.982   3.408
 2312TIP3   OH2 6876   6.409   7.108   5.415
 2312TIP3    H1 6877   6.453   7.130   5.333
 2312TIP3    H2 6878   6.384   7.192   5.453
 2313TIP3   OH2 6879   1.107   1.896   4.827
 2313TIP3    H1 6880   1.140   1.841   4.756
 2313TIP3    H2 6881   1.166   1.880   4.900
 2314TIP3   OH2 6882   7.443   4.579   3.096
 2314TIP3    H1 6883   7.472   4.540   3.179
 2314TIP3    H2 6884   7.473   4.670   3.100
 2315TIP3   OH2 6885   3.292   5.204   2.731
 2315TIP3    H1 6886   3.385   5.184   2.736
 2315TIP3    H2 6887   3.275   5.261   2.806
 2316TIP3   OH2 6888   1.473   7.352   3.024
 2316TIP3    H1 6889   1.492   7.342   3.117
 2316TIP3    H2 6890   1.434   7.439   3.016
 2317TIP3   OH2 6891   2.114   4.265   5.108
 2317TIP3    H1 6892   2.167   4.305   5.039
 2317TIP3    H2 6893   2.059   4.202   5.063
 2318TIP3   OH2 6894   6.206   4.888   0.132
 2318TIP3    H1 6895   6.281   4.889   0.191
 2318TIP3    H2 6896   6.223   4.958   0.070
 2319TIP3   OH2 6897   1.641   5.772   0.853
 2319TIP3    H1 6898   1.718   5.748   0.905
 2319TIP3    H2 6899   1.566   5.740   0.904
 2320TIP3   OH2 6900   1.830   6.429   4.244
 2320TIP3    H1 6901   1.742   6.397   4.227
 2320TIP3    H2 6902   1.877   6.418   4.161
 2321TIP3   OH2 6903   6.192   7.783   0.444
 2321TIP3    H1 6904   6.258   7.819   0.504
 2321TIP3    H2 6905   6.111   7.829   0.466
 2322TIP3   OH2 6906   3.670   2.713   1.971
 2322TIP3    H1 6907   3.662   2.656   1.894
 2322TIP3    H2 6908   3.763   2.736   1.974
 2323TIP3   OH2 6909   5.208   6.563   1.055
 2323TIP3    H1 6910   5.264   6.520   0.991
 2323TIP3    H2 6911   5.266   6.621   1.104
 2324TIP3   OH2 6912   5.437   1.023   4.001
 2324TIP3    H1 6913   5.494   1.039   3.925
 2324TIP3    H2 6914   5.498   0.995   4.070
 2325TIP3   OH2 6915   6.469   2.693   4.725
 2325TIP3    H1 6916   6.438   2.605   4.744
 2325TIP3    H2 6917   6.476   2.696   4.630
 2326TIP3   OH2 6918   7.621   4.723   4.441
 2326TIP3    H1 6919   7.668   4.806   4.446
 2326TIP3    H2 6920   7.612   4.694   4.532
 2327TIP3   OH2 6921   0.533   2.696   4.741
 2327TIP3    H1 6922   0.517   2.606   4.713
 2327TIP3    H2 6923   0.589   2.688   4.819
 2328TIP3   OH2 6924   3.389   0.252   1.162
 2328TIP3    H1 6925   3.337   0.320   1.204
 2328TIP3    H2 6926   3.414   0.193   1.234
 2329TIP3   OH2 6927   4.858   5.803   5.178
 2329TIP3    H1 6928   4.922   5.816   5.247
 2329TIP3    H2 6929   4.819   5.890   5.164
 2330TIP3   OH2 6930   0.092   1.964   3.005
 2330TIP3    H1 6931   0.076   2.036   3.066
 2330TIP3    H2 6932   0.019   1.968   2.944
 2331TIP3   OH2 6933   2.860   5.245   2.101
 2331TIP3    H1 6934   2.887   5.299   2.027
 2331TIP3    H2 6935   2.779   5.286   2.133
 2332TIP3   OH2 6936   6.363   6.496   2.772
 2332TIP3    H1 6937   6.443   6.501   2.719
 2332TIP3    H2 6938   6.394   6.481   2.861
 2333TIP3   OH2 6939   1.515   0.824   5.683
 2333TIP3    H1 6940   1.456   0.813   5.608
 2333TIP3    H2 6941   1.506   0.916   5.708
 2334TIP3   OH2 6942   6.720   0.590   3.579
 2334TIP3    H1 6943   6.725   0.520   3.644
 2334TIP3    H2 6944   6.639   0.571   3.531
 2335TIP3   OH2 6945   5.899   1.949   6.456
 2335TIP3    H1 6946   5.879   1.865   6.415
 2335TIP3    H2 6947   5.814   1.987   6.478
 2336TIP3   OH2 6948   8.129   2.195   3.151
 2336TIP3    H1 6949   8.125   2.221   3.058
 2336TIP3    H2 6950   8.214   2.226   3.180
 2337TIP3   OH2 6951   7.156   6.766   4.409
 2337TIP3    H1 6952   7.157   6.742   4.501
 2337TIP3    H2 6953   7.175   6.685   4.362
 2338TIP3   OH2 6954   8.010   1.033   4.851
 2338TIP3    H1 6955   8.100   1.041   4.884
 2338TIP3    H2 6956   7.966   1.112   4.881
 2339TIP3   OH2 6957   4.505   1.347   2.769
 2339TIP3    H1 6958   4.522   1.270   2.715
 2339TIP3    H2 6959   4.562   1.335   2.845
 2340TIP3   OH2 6960   0.333   4.388   1.031
 2340TIP3    H1 6961   0.401   4.411   1.094
 2340TIP3    H2 6962   0.287   4.470   1.014
 2341TIP3   OH2 6963   7.127   7.046   0.443
 2341TIP3    H1 6964   7.078   6.971   0.410
 2341TIP3    H2 6965   7.129   7.033   0.538
 2342TIP3   OH2 6966   1.138   6.071   0.907
 2342TIP3    H1 6967   1.124   5.980   0.880
 2342TIP3    H2 6968   1.186   6.111   0.835
 2343TIP3   OH2 6969   5.292   6.189   0.055
 2343TIP3    H1 6970   5.313   6.226   0.141
 2343TIP3    H2 6971   5.316   6.257  -0.007
 2344TIP3   OH2 6972   1.100   6.804   5.663
 2344TIP3    H1 6973   1.019   6.754   5.650
 2344TIP3    H2 6974   1.170   6.740   5.654
 2345TIP3   OH2 6975   4.851   6.011   0.993
 2345TIP3    H1 6976   4.940   6.029   0.961
 2345TIP3    H2 6977   4.806   5.972   0.918
 2346TIP3   OH2 6978   3.881   2.663   6.292
 2346TIP3    H1 6979   3.815   2.654   6.222
 2346TIP3    H2 6980   3.830   2.674   6.372
 2347TIP3   OH2 6981   7.514   2.571   5.396
 2347TIP3    H1 6982   7.601   2.532   5.405
 2347TIP3    H2 6983   7.517   2.651   5.449
 2348TIP3   OH2 6984   2.499   7.703   3.927
 2348TIP3    H1 6985   2.561   7.639   3.894
 2348TIP3    H2 6986   2.429   7.705   3.862
 2349TIP3   OH2 6987   5.534   7.627   0.304
 2349TIP3    H1 6988   5.598   7.597   0.240
 2349TIP3    H2 6989   5.576   7.613   0.389
 2350TIP3   OH2 6990   4.253   5.320   1.804
 2350TIP3    H1 6991   4.335   5.292   1.845
 2350TIP3    H2 6992   4.251   5.276   1.720
 2351TIP3   OH2 6993   1.018   5.806   2.136
 2351TIP3    H1 6994   1.000   5.834   2.047
 2351TIP3    H2 6995   0.988   5.878   2.191
 2352TIP3   OH2 6996   2.927   1.462   6.561
 2352TIP3    H1 6997   2.867   1.420   6.622
 2352TIP3    H2 6998   2.892   1.550   6.549
 2353TIP3   OH2 6999   1.964   4.852   2.472
 2353TIP3    H1 7000   1.913   4.876   2.394
 2353TIP3    H2 7001   1.904   4.866   2.545
 2354TIP3   OH2 7002   5.077   1.188   3.573
 2354TIP3    H1 7003   5.044   1.271   3.538
 2354TIP3    H2 7004   5.095   1.206   3.665
 2355TIP3   OH2 7005   4.957   0.185   6.206
 2355TIP3    H1 7006   4.931   0.266   6.163
 2355TIP3    H2 7007   4.876   0.152   6.246
 2356TIP3   OH2 7008   2.572   3.942   2.341
 2356TIP3    H1 7009   2.658   3.962   2.305
 2356TIP3    H2 7010   2.518   4.017   2.317
 2357TIP3   OH2 7011   1.099   0.184   3.848
 2357TIP3    H1 7012   1.047   0.113   3.809
 2357TIP3    H2 7013   1.079   0.261   3.795
 2358TIP3   OH2 7014   3.681   6.003   5.796
 2358TIP3    H1 7015   3.765   6.031   5.760
 2358TIP3    H2 7016   3.659   6.070   5.860
 2359TIP3   OH2 7017   5.111   3.471   6.584
 2359TIP3    H1 7018   5.118   3.412   6.509
 2359TIP3    H2 7019   5.197   3.468   6.625
 2360TIP3   OH2 7020   1.617   0.459   4.429
 2360TIP3    H1 7021   1.623   0.434   4.521
 2360TIP3    H2 7022   1.625   0.555   4.430
 2361TIP3   OH2 7023   2.192   1.203   4.351
 2361TIP3    H1 7024   2.278   1.200   4.394
 2361TIP3    H2 7025   2.212   1.193   4.258
 2362TIP3   OH2 7026   7.712   6.295   3.901
 2362TIP3    H1 7027   7.738   6.289   3.809
 2362TIP3    H2 7028   7.659   6.217   3.916
 2363TIP3   OH2 7029   8.051   3.399   4.298
 2363TIP3    H1 7030   7.979   3.338   4.282
 2363TIP3    H2 7031   8.085   3.419   4.211
 2364TIP3   OH2 7032   0.882   1.883   5.056
 2364TIP3    H1 7033   0.920   1.798   5.033
 2364TIP3    H2 7034   0.788   1.866   5.063
 2365TIP3   OH2 7035   0.205   6.449   6.506
 2365TIP3    H1 7036   0.263   6.525   6.504
 2365TIP3    H2 7037   0.143   6.468   6.577
 2366TIP3   OH2 7038   0.424   3.268   4.167
 2366TIP3    H1 7039   0.436   3.293   4.258
 2366TIP3    H2 7040   0.439   3.173   4.166
 2367TIP3   OH2 7041   1.911   0.085   6.684
 2367TIP3    H1 7042   1.906   0.039   6.601
 2367TIP3    H2 7043   1.984   0.146   6.674
 2368TIP3   OH2 7044   4.150   3.739   6.375
 2368TIP3    H1 7045   4.177   3.676   6.442
 2368TIP3    H2 7046   4.055   3.729   6.371
 2369TIP3   OH2 7047   6.648   4.317   6.394
 2369TIP3    H1 7048   6.569   4.296   6.444
 2369TIP3    H2 7049   6.628   4.401   6.353
 2370TIP3   OH2 7050   4.179   5.189   2.201
 2370TIP3    H1 7051   4.126   5.262   2.231
 2370TIP3    H2 7052   4.268   5.211   2.228
 2371TIP3   OH2 7053   4.710   7.337   6.154
 2371TIP3    H1 7054   4.631   7.363   6.201
 2371TIP3    H2 7055   4.705   7.385   6.071
 2372TIP3   OH2 7056   4.646   2.993   2.690
 2372TIP3    H1 7057   4.639   2.937   2.768
 2372TIP3    H2 7058   4.697   3.068   2.719
 2373TIP3   OH2 7059   2.438   6.951   0.936
 2373TIP3    H1 7060   2.520   6.903   0.947
 2373TIP3    H2 7061   2.399   6.913   0.857
 2374TIP3   OH2 7062   3.651   0.326   5.258
 2374TIP3    H1 7063   3.563   0.321   5.296
 2374TIP3    H2 7064   3.709   0.333   5.334
 2375TIP3   OH2 7065   4.337   1.787   6.035
 2375TIP3    H1 7066   4.390   1.864   6.016
 2375TIP3    H2 7067   4.368   1.758   6.122
 2376TIP3   OH2 7068   0.305   6.144   3.064
 2376TIP3    H1 7069   0.279   6.229   3.101
 2376TIP3    H2 7070   0.313   6.086   3.139
 2377TIP3   OH2 7071   3.293   3.660   2.482
 2377TIP3    H1 7072   3.216   3.690   2.530
 2377TIP3    H2 7073   3.357   3.731   2.493
 2378TIP3   OH2 7074   4.503   4.619   6.181
 2378TIP3    H1 7075   4.531   4.631   6.090
 2378TIP3    H2 7076   4.511   4.706   6.220
 2379TIP3   OH2 7077   2.493   7.679   0.188
 2379TIP3    H1 7078   2.410   7.632   0.176
 2379TIP3    H2 7079   2.528   7.689   0.100
 2380TIP3   OH2 7080   4.938   1.895   0.069
 2380TIP3    H1 7081   4.911   1.925  -0.018
 2380TIP3    H2 7082   4.962   1.803   0.056
 2381TIP3   OH2 7083   2.650   6.570   0.796
 2381TIP3    H1 7084   2.585   6.608   0.856
 2381TIP3    H2 7085   2.634   6.615   0.712
 2382TIP3   OH2 7086   5.310   4.404   1.781
 2382TIP3    H1 7087   5.371   4.471   1.812
 2382TIP3    H2 7088   5.365   4.330   1.757
 2383TIP3   OH2 7089   6.516   3.476   1.774
 2383TIP3    H1 7090   6.521   3.386   1.744
 2383TIP3    H2 7091   6.604   3.511   1.760
 2384TIP3   OH2 7092   3.462   7.054   2.399
 2384TIP3    H1 7093   3.425   7.142   2.404
 2384TIP3    H2 7094   3.387   6.998   2.377
 2385TIP3   OH2 7095   0.718   5.629   5.558
 2385TIP3    H1 7096   0.625   5.634   5.536
 2385TIP3    H2 7097   0.743   5.719   5.579
 2386TIP3   OH2 7098   2.869   2.793   4.884
 2386TIP3    H1 7099   2.887   2.753   4.800
 2386TIP3    H2 7100   2.784   2.837   4.872
 2387TIP3   OH2 7101   6.213   5.113   2.330
 2387TIP3    H1 7102   6.290   5.157   2.294
 2387TIP3    H2 7103   6.243   5.025   2.351
 2388TIP3   OH2 7104   7.568   0.824   6.755
 2388TIP3    H1 7105   7.522   0.830   6.839
 2388TIP3    H2 7106   7.620   0.744   6.762
 2389TIP3   OH2 7107   3.176   3.366   6.254
 2389TIP3    H1 7108   3.253   3.339   6.304
 2389TIP3    H2 7109   3.179   3.461   6.252
 2390TIP3   OH2 7110   0.985   1.061   5.035
 2390TIP3    H1 7111   1.030   1.115   5.099
 2390TIP3    H2 7112   1.054   1.011   4.991
 2391TIP3   OH2 7113   3.378  -0.019   6.793
 2391TIP3    H1 7114   3.330  -0.022   6.710
 2391TIP3    H2 7115   3.463  -0.058   6.773
 2392TIP3   OH2 7116   7.247   1.829   4.836
 2392TIP3    H1 7117   7.260   1.808   4.743
 2392TIP3    H2 7118   7.186   1.761   4.866
 2393TIP3   OH2 7119   7.287   2.332   4.210
 2393TIP3    H1 7120   7.312   2.323   4.118
 2393TIP3    H2 7121   7.192   2.340   4.208
 2394TIP3   OH2 7122   4.954   6.415   4.623
 2394TIP3    H1 7123   4.893   6.342   4.630
 2394TIP3    H2 7124   5.041   6.374   4.621
 2395TIP3   OH2 7125   8.378   0.313   6.196
 2395TIP3    H1 7126   8.290   0.285   6.218
 2395TIP3    H2 7127   8.428   0.301   6.277
 2396TIP3   OH2 7128   3.506   0.076   2.489
 2396TIP3    H1 7129   3.427   0.092   2.541
 2396TIP3    H2 7130   3.512   0.153   2.431
 2397TIP3   OH2 7131   7.209   6.628   0.785
 2397TIP3    H1 7132   7.220   6.651   0.692
 2397TIP3    H2 7133   7.118   6.599   0.792
 2398TIP3   OH2 7134   6.020   0.595   0.498
 2398TIP3    H1 7135   6.110   0.583   0.469
 2398TIP3    H2 7136   5.986   0.506   0.508
 2399TIP3   OH2 7137   6.818   6.125   5.570
 2399TIP3    H1 7138   6.786   6.046   5.614
 2399TIP3    H2 7139   6.759   6.195   5.599
 2400TIP3   OH2 7140   5.087   5.587   3.281
 2400TIP3    H1 7141   5.120   5.613   3.195
 2400TIP3    H2 7142   5.159   5.609   3.341
 2401TIP3   OH2 7143   8.379   6.826   3.952
 2401TIP3    H1 7144   8.381   6.739   3.992
 2401TIP3    H2 7145   8.373   6.886   4.026
 2402TIP3   OH2 7146   1.052   1.068   3.231
 2402TIP3    H1 7147   1.035   1.161   3.213
 2402TIP3    H2 7148   0.980   1.041   3.288
 2403TIP3   OH2 7149   3.968   7.354   5.185
 2403TIP3    H1 7150   3.885   7.310   5.163
 2403TIP3    H2 7151   3.949   7.403   5.265
 2404TIP3   OH2 7152   4.981   1.405   5.065
 2404TIP3    H1 7153   4.958   1.457   5.142
 2404TIP3    H2 7154   4.938   1.448   4.992
 2405TIP3   OH2 7155   5.936   6.910   3.538
 2405TIP3    H1 7156   5.939   6.871   3.450
 2405TIP3    H2 7157   5.909   7.000   3.524
 2406TIP3   OH2 7158   7.938   2.845   3.098
 2406TIP3    H1 7159   7.964   2.923   3.050
 2406TIP3    H2 7160   8.020   2.798   3.113
 2407TIP3   OH2 7161   7.507   2.056   5.336
 2407TIP3    H1 7162   7.570   2.122   5.305
 2407TIP3    H2 7163   7.555   2.004   5.400
 2408TIP3   OH2 7164   2.998   5.222   0.600
 2408TIP3    H1 7165   2.985   5.163   0.674
 2408TIP3    H2 7166   2.916   5.218   0.551
 2409TIP3   OH2 7167   7.966   0.954   3.040
 2409TIP3    H1 7168   7.941   0.892   2.972
 2409TIP3    H2 7169   8.061   0.949   3.045
 2410TIP3   OH2 7170   7.213   5.767   4.865
 2410TIP3    H1 7171   7.264   5.837   4.824
 2410TIP3    H2 7172   7.229   5.779   4.959
 2411TIP3   OH2 7173   5.728   4.565   3.743
 2411TIP3    H1 7174   5.814   4.523   3.752
 2411TIP3    H2 7175   5.686   4.520   3.670
 2412TIP3   OH2 7176   4.678   6.902   6.670
 2412TIP3    H1 7177   4.762   6.878   6.709
 2412TIP3    H2 7178   4.672   6.849   6.591
 2413TIP3   OH2 7179   4.005   1.696   1.893
 2413TIP3    H1 7180   4.056   1.758   1.840
 2413TIP3    H2 7181   4.068   1.629   1.919
 2414TIP3   OH2 7182   1.852   5.947   2.140
 2414TIP3    H1 7183   1.843   5.891   2.063
 2414TIP3    H2 7184   1.935   5.992   2.128
 2415TIP3   OH2 7185   2.829   6.154   5.603
 2415TIP3    H1 7186   2.762   6.211   5.640
 2415TIP3    H2 7187   2.783   6.098   5.541
 2416TIP3   OH2 7188   7.086   0.265   4.002
 2416TIP3    H1 7189   7.081   0.278   4.097
 2416TIP3    H2 7190   6.995   0.260   3.973
 2417TIP3   OH2 7191  -0.004   5.554   5.983
 2417TIP3    H1 7192   0.006   5.471   6.029
 2417TIP3    H2 7193   0.056   5.613   6.028
 2418TIP3   OH2 7194   7.973   0.797   6.802
 2418TIP3    H1 7195   8.035   0.731   6.770
 2418TIP3    H2 7196   7.891   0.748   6.815
 2419TIP3   OH2 7197   3.776   0.105   6.001
 2419TIP3    H1 7198   3.789   0.178   6.061
 2419TIP3    H2 7199   3.819   0.132   5.920
 2420TIP3   OH2 7200   1.688   7.216   4.904
 2420TIP3    H1 7201   1.622   7.192   4.839
 2420TIP3    H2 7202   1.755   7.263   4.853
 2421TIP3   OH2 7203   5.446   4.193   2.656
 2421TIP3    H1 7204   5.370   4.237   2.617
 2421TIP3    H2 7205   5.481   4.139   2.585
 2422TIP3   OH2 7206   6.305   5.580   0.944
 2422TIP3    H1 7207   6.333   5.586   1.035
 2422TIP3    H2 7208   6.266   5.493   0.936
 2423TIP3   OH2 7209   5.055   4.275   3.902
 2423TIP3    H1 7210   5.118   4.342   3.931
 2423TIP3    H2 7211   4.977   4.292   3.955
 2424TIP3   OH2 7212   7.198   1.461   6.739
 2424TIP3    H1 7213   7.169   1.379   6.779
 2424TIP3    H2 7214   7.144   1.469   6.660
 2425TIP3   OH2 7215   5.045   0.947   0.027
 2425TIP3    H1 7216   5.023   0.941   0.120
 2425TIP3    H2 7217   5.100   0.871   0.010
 2426TIP3   OH2 7218   7.425   2.377   4.867
 2426TIP3    H1 7219   7.434   2.463   4.907
 2426TIP3    H2 7220   7.504   2.330   4.893
 2427TIP3   OH2 7221   4.383   3.624   4.831
 2427TIP3    H1 7222   4.311   3.682   4.810
 2427TIP3    H2 7223   4.448   3.680   4.875
 2428TIP3   OH2 7224   6.307   5.830   0.867
 2428TIP3    H1 7225   6.359   5.830   0.786
 2428TIP3    H2 7226   6.303   5.737   0.892
 2429TIP3   OH2 7227   8.335   6.346   6.530
 2429TIP3    H1 7228   8.363   6.347   6.621
 2429TIP3    H2 7229   8.384   6.274   6.490
 2430TIP3   OH2 7230   3.218   1.217   0.844
 2430TIP3    H1 7231   3.293   1.181   0.797
 2430TIP3    H2 7232   3.203   1.156   0.917
 2431TIP3   OH2 7233   5.752   6.584   2.475
 2431TIP3    H1 7234   5.746   6.556   2.566
 2431TIP3    H2 7235   5.804   6.517   2.432
 2432TIP3   OH2 7236   3.909   3.987   3.266
 2432TIP3    H1 7237   3.930   4.074   3.232
 2432TIP3    H2 7238   3.974   3.930   3.226
 2433TIP3   OH2 7239   7.208   7.275   1.232
 2433TIP3    H1 7240   7.298   7.246   1.248
 2433TIP3    H2 7241   7.217   7.361   1.190
 2434TIP3   OH2 7242   1.108   1.430   5.072
 2434TIP3    H1 7243   1.097   1.383   4.989
 2434TIP3    H2 7244   1.109   1.361   5.138
 2435TIP3   OH2 7245   7.306   0.781   4.121
 2435TIP3    H1 7246   7.213   0.762   4.116
 2435TIP3    H2 7247   7.322   0.800   4.214
 2436TIP3   OH2 7248   0.626   3.801   2.820
 2436TIP3    H1 7249   0.556   3.739   2.798
 2436TIP3    H2 7250   0.657   3.833   2.735
 2437TIP3   OH2 7251   4.859   2.162   0.523
 2437TIP3    H1 7252   4.834   2.117   0.604
 2437TIP3    H2 7253   4.851   2.094   0.455
 2438TIP3   OH2 7254   0.167   3.573   3.332
 2438TIP3    H1 7255   0.076   3.595   3.313
 2438TIP3    H2 7256   0.175   3.583   3.427
 2439TIP3   OH2 7257   3.064   4.100   6.055
 2439TIP3    H1 7258   3.005   4.129   5.986
 2439TIP3    H2 7259   3.041   4.153   6.131
 2440TIP3   OH2 7260   5.785   7.601   3.186
 2440TIP3    H1 7261   5.693   7.603   3.211
 2440TIP3    H2 7262   5.828   7.555   3.257
 2441TIP3   OH2 7263   0.123   7.164   2.318
 2441TIP3    H1 7264   0.183   7.105   2.272
 2441TIP3    H2 7265   0.144   7.251   2.283
 2442TIP3   OH2 7266   3.583   2.242   5.950
 2442TIP3    H1 7267   3.586   2.147   5.937
 2442TIP3    H2 7268   3.508   2.270   5.897
 2443TIP3   OH2 7269   2.464   1.398   3.332
 2443TIP3    H1 7270   2.372   1.399   3.357
 2443TIP3    H2 7271   2.491   1.490   3.335
 2444TIP3   OH2 7272   2.421   2.476   4.359
 2444TIP3    H1 7273   2.514   2.461   4.340
 2444TIP3    H2 7274   2.409   2.570   4.347
 2445TIP3   OH2 7275   6.773   3.314   6.223
 2445TIP3    H1 7276   6.730   3.370   6.158
 2445TIP3    H2 7277   6.781   3.369   6.301
 2446TIP3   OH2 7278   2.206   1.048   0.772
 2446TIP3    H1 7279   2.177   0.983   0.836
 2446TIP3    H2 7280   2.256   0.997   0.708
 2447TIP3   OH2 7281   4.899   6.125   2.399
 2447TIP3    H1 7282   4.947   6.049   2.433
 2447TIP3    H2 7283   4.914   6.193   2.465
 2448TIP3   OH2 7284   5.601   5.039   1.083
 2448TIP3    H1 7285   5.560   5.093   1.151
 2448TIP3    H2 7286   5.638   4.965   1.131
 2449TIP3   OH2 7287   8.022   4.606   3.315
 2449TIP3    H1 7288   7.945   4.634   3.266
 2449TIP3    H2 7289   8.013   4.511   3.323
 2450TIP3   OH2 7290   3.706   2.684   0.882
 2450TIP3    H1 7291   3.740   2.600   0.852
 2450TIP3    H2 7292   3.752   2.750   0.830
 2451TIP3   OH2 7293   6.626   3.116   1.993
 2451TIP3    H1 7294   6.687   3.073   2.053
 2451TIP3    H2 7295   6.682   3.152   1.923
 2452TIP3   OH2 7296   0.369   5.342   1.984
 2452TIP3    H1 7297   0.390   5.382   2.068
 2452TIP3    H2 7298   0.386   5.249   1.996
 2453TIP3   OH2 7299   0.954   7.334  -0.016
 2453TIP3    H1 7300   1.016   7.276   0.026
 2453TIP3    H2 7301   0.955   7.308  -0.108
 2454TIP3   OH2 7302   4.645   7.683   1.325
 2454TIP3    H1 7303   4.561   7.644   1.300
 2454TIP3    H2 7304   4.621   7.765   1.368
 2455TIP3   OH2 7305   6.584   7.073   5.936
 2455TIP3    H1 7306   6.531   6.996   5.912
 2455TIP3    H2 7307   6.544   7.145   5.888
 2456TIP3   OH2 7308   8.041   1.465   0.367
 2456TIP3    H1 7309   7.998   1.466   0.452
 2456TIP3    H2 7310   8.129   1.433   0.385
 2457TIP3   OH2 7311   3.845   1.917   0.278
 2457TIP3    H1 7312   3.900   1.940   0.203
 2457TIP3    H2 7313   3.848   1.994   0.335
 2458TIP3   OH2 7314   3.327   5.927   6.007
 2458TIP3    H1 7315   3.337   5.888   5.920
 2458TIP3    H2 7316   3.264   5.997   5.995
 2459TIP3   OH2 7317   4.206   5.001   5.198
 2459TIP3    H1 7318   4.244   5.040   5.118
 2459TIP3    H2 7319   4.164   4.921   5.168
 2460TIP3   OH2 7320   3.786   2.330   5.780
 2460TIP3    H1 7321   3.723   2.322   5.852
 2460TIP3    H2 7322   3.861   2.278   5.809
 2461TIP3   OH2 7323   7.400   2.508   1.740
 2461TIP3    H1 7324   7.306   2.511   1.752
 2461TIP3    H2 7325   7.412   2.469   1.654
 2462TIP3   OH2 7326   6.534   4.173   3.622
 2462TIP3    H1 7327   6.551   4.238   3.554
 2462TIP3    H2 7328   6.527   4.090   3.574
 2463TIP3   OH2 7329   3.414   6.103   2.062
 2463TIP3    H1 7330   3.479   6.087   1.994
 2463TIP3    H2 7331   3.330   6.100   2.017
 2464TIP3   OH2 7332   7.747   5.830   6.361
 2464TIP3    H1 7333   7.748   5.925   6.348
 2464TIP3    H2 7334   7.805   5.795   6.293
 2465TIP3   OH2 7335   4.567   7.173   1.979
 2465TIP3    H1 7336   4.650   7.162   2.024
 2465TIP3    H2 7337   4.510   7.216   2.042
 2466TIP3   OH2 7338   0.196   0.939   0.305
 2466TIP3    H1 7339   0.290   0.935   0.319
 2466TIP3    H2 7340   0.177   0.865   0.246
 2467TIP3   OH2 7341   4.540   2.483   2.212
 2467TIP3    H1 7342   4.507   2.512   2.127
 2467TIP3    H2 7343   4.461   2.456   2.260
 2468TIP3   OH2 7344   4.197   4.937   4.801
 2468TIP3    H1 7345   4.260   4.949   4.872
 2468TIP3    H2 7346   4.112   4.955   4.841
 2469TIP3   OH2 7347   4.479   3.633   1.814
 2469TIP3    H1 7348   4.427   3.564   1.771
 2469TIP3    H2 7349   4.544   3.585   1.865
 2470TIP3   OH2 7350   2.952   5.499   0.180
 2470TIP3    H1 7351   2.958   5.405   0.161
 2470TIP3    H2 7352   2.881   5.506   0.244
 2471TIP3   OH2 7353   6.846   5.205   4.487
 2471TIP3    H1 7354   6.832   5.137   4.553
 2471TIP3    H2 7355   6.852   5.286   4.537
 2472TIP3   OH2 7356   6.652   0.501   4.553
 2472TIP3    H1 7357   6.691   0.580   4.590
 2472TIP3    H2 7358   6.622   0.451   4.629
 2473TIP3   OH2 7359   6.404   6.503   1.788
 2473TIP3    H1 7360   6.321   6.487   1.743
 2473TIP3    H2 7361   6.468   6.512   1.717
 2474TIP3   OH2 7362   3.473   7.901   0.888
 2474TIP3    H1 7363   3.527   7.971   0.852
 2474TIP3    H2 7364   3.490   7.826   0.831
 2475TIP3   OH2 7365   1.876   5.857   1.779
 2475TIP3    H1 7366   1.797   5.833   1.731
 2475TIP3    H2 7367   1.885   5.788   1.845
 2476TIP3   OH2 7368   8.277   2.789   3.725
 2476TIP3    H1 7369   8.245   2.879   3.734
 2476TIP3    H2 7370   8.209   2.744   3.676
 2477TIP3   OH2 7371   1.996   0.156   4.462
 2477TIP3    H1 7372   1.918   0.198   4.426
 2477TIP3    H2 7373   2.061   0.161   4.392
 2478TIP3   OH2 7374   1.409   2.350   6.118
 2478TIP3    H1 7375   1.502   2.335   6.136
 2478TIP3    H2 7376   1.363   2.303   6.188
 2479TIP3   OH2 7377   0.286   7.334   2.658
 2479TIP3    H1 7378   0.298   7.302   2.747
 2479TIP3    H2 7379   0.366   7.381   2.637
 2480TIP3   OH2 7380   6.670   4.687   3.171
 2480TIP3    H1 7381   6.688   4.644   3.254
 2480TIP3    H2 7382   6.742   4.661   3.114
 2481TIP3   OH2 7383   6.189   7.466   6.231
 2481TIP3    H1 7384   6.170   7.513   6.150
 2481TIP3    H2 7385   6.117   7.488   6.290
 2482TIP3   OH2 7386   1.893   0.148   3.330
 2482TIP3    H1 7387   1.976   0.195   3.322
 2482TIP3    H2 7388   1.905   0.070   3.276
 2483TIP3   OH2 7389   6.699   2.890   6.825
 2483TIP3    H1 7390   6.619   2.838   6.828
 2483TIP3    H2 7391   6.765   2.829   6.791
 2484TIP3   OH2 7392   5.905   7.797   0.798
 2484TIP3    H1 7393   5.885   7.876   0.849
 2484TIP3    H2 7394   5.914   7.829   0.708
 2485TIP3   OH2 7395   6.115   5.600   0.705
 2485TIP3    H1 7396   6.112   5.506   0.690
 2485TIP3    H2 7397   6.155   5.610   0.791
 2486TIP3   OH2 7398   3.000   6.751   2.549
 2486TIP3    H1 7399   3.087   6.713   2.558
 2486TIP3    H2 7400   2.995   6.779   2.458
 2487TIP3   OH2 7401   3.365   2.326   2.489
 2487TIP3    H1 7402   3.348   2.400   2.548
 2487TIP3    H2 7403   3.458   2.307   2.501
 2488TIP3   OH2 7404   4.557   7.554   2.106
 2488TIP3    H1 7405   4.537   7.579   2.016
 2488TIP3    H2 7406   4.536   7.632   2.158
 2489TIP3   OH2 7407   4.885   2.460   2.693
 2489TIP3    H1 7408   4.958   2.520   2.680
 2489TIP3    H2 7409   4.926   2.376   2.711
 2490TIP3   OH2 7410   6.811   7.423   4.074
 2490TIP3    H1 7411   6.841   7.397   3.987
 2490TIP3    H2 7412   6.738   7.365   4.093
 2491TIP3   OH2 7413   7.961   0.750   4.557
 2491TIP3    H1 7414   8.033   0.724   4.613
 2491TIP3    H2 7415   7.985   0.837   4.525
 2492TIP3   OH2 7416   7.617   0.648   4.314
 2492TIP3    H1 7417   7.696   0.699   4.301
 2492TIP3    H2 7418   7.622   0.578   4.248
 2493TIP3   OH2 7419   5.346   0.405   3.119
 2493TIP3    H1 7420   5.266   0.443   3.081
 2493TIP3    H2 7421   5.315   0.329   3.169
 2494TIP3   OH2 7422   6.141   7.518   2.367
 2494TIP3    H1 7423   6.184   7.537   2.451
 2494TIP3    H2 7424   6.081   7.592   2.354
 2495TIP3   OH2 7425   6.236   5.613   6.608
 2495TIP3    H1 7426   6.174   5.651   6.546
 2495TIP3    H2 7427   6.274   5.688   6.654
 2496TIP3   OH2 7428   1.103   0.661   0.531
 2496TIP3    H1 7429   1.051   0.699   0.460
 2496TIP3    H2 7430   1.194   0.674   0.504
 2497TIP3   OH2 7431   5.994   5.356   6.538
 2497TIP3    H1 7432   5.924   5.314   6.588
 2497TIP3    H2 7433   6.072   5.346   6.592
 2498TIP3   OH2 7434   1.994   7.566   6.428
 2498TIP3    H1 7435   2.054   7.624   6.381
 2498TIP3    H2 7436   2.031   7.559   6.516
 2499TIP3   OH2 7437   6.148   2.269   0.335
 2499TIP3    H1 7438   6.128   2.179   0.309
 2499TIP3    H2 7439   6.207   2.260   0.409
 2500TIP3   OH2 7440   4.484   6.005   1.124
 2500TIP3    H1 7441   4.490   6.017   1.029
 2500TIP3    H2 7442   4.391   6.021   1.144
 2501TIP3   OH2 7443   2.451   1.524   5.516
 2501TIP3    H1 7444   2.478   1.574   5.439
 2501TIP3    H2 7445   2.428   1.591   5.580
 2502TIP3   OH2 7446   7.073   5.038   0.239
 2502TIP3    H1 7447   7.008   4.982   0.196
 2502TIP3    H2 7448   7.032   5.124   0.244
 2503TIP3   OH2 7449   1.379   6.212   3.459
 2503TIP3    H1 7450   1.326   6.289   3.438
 2503TIP3    H2 7451   1.364   6.198   3.552
 2504TIP3   OH2 7452   0.704   1.367   5.936
 2504TIP3    H1 7453   0.675   1.297   5.995
 2504TIP3    H2 7454   0.628   1.386   5.882
 2505TIP3   OH2 7455   4.734   1.095   5.922
 2505TIP3    H1 7456   4.787   1.031   5.874
 2505TIP3    H2 7457   4.655   1.105   5.870
 2506TIP3   OH2 7458   3.185   6.688   5.421
 2506TIP3    H1 7459   3.106   6.636   5.438
 2506TIP3    H2 7460   3.186   6.700   5.326
 2507TIP3   OH2 7461   0.559   7.309   6.843
 2507TIP3    H1 7462   0.640   7.259   6.850
 2507TIP3    H2 7463   0.585   7.390   6.799
 2508TIP3   OH2 7464   3.511   4.529   4.772
 2508TIP3    H1 7465   3.568   4.590   4.818
 2508TIP3    H2 7466   3.425   4.541   4.813
 2509TIP3   OH2 7467   2.737   3.961   4.026
 2509TIP3    H1 7468   2.812   4.012   3.996
 2509TIP3    H2 7469   2.760   3.870   4.008
 2510TIP3   OH2 7470   6.429   5.629   2.276
 2510TIP3    H1 7471   6.390   5.554   2.322
 2510TIP3    H2 7472   6.460   5.686   2.346
 2511TIP3   OH2 7473   7.619   1.791   0.433
 2511TIP3    H1 7474   7.610   1.884   0.413
 2511TIP3    H2 7475   7.714   1.778   0.443
 2512TIP3   OH2 7476   6.526   4.543   5.367
 2512TIP3    H1 7477   6.466   4.605   5.326
 2512TIP3    H2 7478   6.486   4.523   5.452
 2513TIP3   OH2 7479   3.150   5.950   5.267
 2513TIP3    H1 7480   3.239   5.983   5.279
 2513TIP3    H2 7481   3.093   6.018   5.302
 2514TIP3   OH2 7482   6.718   2.334   3.824
 2514TIP3    H1 7483   6.809   2.335   3.854
 2514TIP3    H2 7484   6.671   2.382   3.891
 2515TIP3   OH2 7485   6.958   6.314   6.246
 2515TIP3    H1 7486   7.039   6.347   6.283
 2515TIP3    H2 7487   6.983   6.275   6.162
 2516TIP3   OH2 7488   0.817   7.135   4.770
 2516TIP3    H1 7489   0.763   7.161   4.845
 2516TIP3    H2 7490   0.763   7.156   4.693
 2517TIP3   OH2 7491   1.913   4.719   3.130
 2517TIP3    H1 7492   1.918   4.628   3.101
 2517TIP3    H2 7493   1.820   4.739   3.129
 2518TIP3   OH2 7494   6.262   3.394   6.034
 2518TIP3    H1 7495   6.332   3.392   5.968
 2518TIP3    H2 7496   6.301   3.441   6.108
 2519TIP3   OH2 7497   0.659   0.020   1.489
 2519TIP3    H1 7498   0.648   0.098   1.434
 2519TIP3    H2 7499   0.747  -0.012   1.467
 2520TIP3   OH2 7500   1.588   6.762   3.098
 2520TIP3    H1 7501   1.527   6.706   3.051
 2520TIP3    H2 7502   1.629   6.704   3.162
 2521TIP3   OH2 7503   2.133   7.694   4.660
 2521TIP3    H1 7504   2.095   7.756   4.599
 2521TIP3    H2 7505   2.218   7.672   4.622
 2522TIP3   OH2 7506   3.137   5.806   4.735
 2522TIP3    H1 7507   3.089   5.888   4.724
 2522TIP3    H2 7508   3.086   5.742   4.686
 2523TIP3   OH2 7509   4.348   6.142   3.533
 2523TIP3    H1 7510   4.372   6.183   3.450
 2523TIP3    H2 7511   4.430   6.138   3.583
 2524TIP3   OH2 7512   2.894   5.245   4.635
 2524TIP3    H1 7513   2.834   5.191   4.583
 2524TIP3    H2 7514   2.835   5.301   4.687
 2525TIP3   OH2 7515   6.228   4.558   4.123
 2525TIP3    H1 7516   6.298   4.499   4.096
 2525TIP3    H2 7517   6.156   4.500   4.147
 2526TIP3   OH2 7518   5.189   2.529   2.536
 2526TIP3    H1 7519   5.269   2.576   2.513
 2526TIP3    H2 7520   5.127   2.598   2.561
 2527TIP3   OH2 7521   1.194   0.207   2.433
 2527TIP3    H1 7522   1.182   0.134   2.372
 2527TIP3    H2 7523   1.280   0.192   2.472
 2528TIP3   OH2 7524   1.666   5.280   2.860
 2528TIP3    H1 7525   1.627   5.230   2.788
 2528TIP3    H2 7526   1.760   5.279   2.841
 2529TIP3   OH2 7527   4.599   4.974   5.564
 2529TIP3    H1 7528   4.613   4.918   5.488
 2529TIP3    H2 7529   4.513   4.949   5.598
 2530TIP3   OH2 7530   6.851   1.044   6.437
 2530TIP3    H1 7531   6.851   1.136   6.409
 2530TIP3    H2 7532   6.778   1.004   6.390
 2531TIP3   OH2 7533   3.549   6.683   4.033
 2531TIP3    H1 7534   3.524   6.724   3.950
 2531TIP3    H2 7535   3.645   6.683   4.032
 2532TIP3   OH2 7536   2.585   5.304   5.822
 2532TIP3    H1 7537   2.512   5.283   5.880
 2532TIP3    H2 7538   2.643   5.229   5.828
 2533TIP3   OH2 7539   1.170   4.953   1.760
 2533TIP3    H1 7540   1.098   4.968   1.821
 2533TIP3    H2 7541   1.133   4.976   1.674
 2534TIP3   OH2 7542   3.598   2.678   4.209
 2534TIP3    H1 7543   3.645   2.743   4.261
 2534TIP3    H2 7544   3.649   2.597   4.219
 2535TIP3   OH2 7545   7.005   0.154   0.415
 2535TIP3    H1 7546   7.065   0.087   0.447
 2535TIP3    H2 7547   6.930   0.149   0.474
 2536TIP3   OH2 7548   6.316   0.937   0.968
 2536TIP3    H1 7549   6.287   0.976   1.050
 2536TIP3    H2 7550   6.242   0.884   0.939
 2537TIP3   OH2 7551   6.048   6.889   6.481
 2537TIP3    H1 7552   6.037   6.966   6.537
 2537TIP3    H2 7553   6.062   6.817   6.542
 2538TIP3   OH2 7554   0.294  -0.026   1.490
 2538TIP3    H1 7555   0.344   0.013   1.418
 2538TIP3    H2 7556   0.315   0.030   1.565
 2539TIP3   OH2 7557   5.643   1.407   5.712
 2539TIP3    H1 7558   5.653   1.439   5.802
 2539TIP3    H2 7559   5.548   1.398   5.701
 2540TIP3   OH2 7560   1.977   3.010   3.081
 2540TIP3    H1 7561   2.044   3.043   3.140
 2540TIP3    H2 7562   1.991   2.915   3.078
 2541TIP3   OH2 7563   0.068   7.392   0.121
 2541TIP3    H1 7564   0.143   7.332   0.122
 2541TIP3    H2 7565   0.106   7.479   0.108
 2542TIP3   OH2 7566   6.782   4.702   4.388
 2542TIP3    H1 7567   6.704   4.653   4.413
 2542TIP3    H2 7568   6.782   4.700   4.292
 2543TIP3   OH2 7569   5.378   5.271   3.489
 2543TIP3    H1 7570   5.303   5.296   3.435
 2543TIP3    H2 7571   5.350   5.191   3.533
 2544TIP3   OH2 7572   5.159   4.349   1.284
 2544TIP3    H1 7573   5.108   4.378   1.208
 2544TIP3    H2 7574   5.240   4.316   1.246
 2545TIP3   OH2 7575   7.687   1.549   2.203
 2545TIP3    H1 7576   7.735   1.538   2.121
 2545TIP3    H2 7577   7.641   1.466   2.215
 2546TIP3   OH2 7578   8.074   0.923   1.379
 2546TIP3    H1 7579   8.022   0.996   1.411
 2546TIP3    H2 7580   8.067   0.929   1.283
 2547TIP3   OH2 7581   1.040   1.168   4.173
 2547TIP3    H1 7582   1.018   1.147   4.083
 2547TIP3    H2 7583   0.956   1.184   4.216
 2548TIP3   OH2 7584   7.655   7.339   0.651
 2548TIP3    H1 7585   7.574   7.370   0.693
 2548TIP3    H2 7586   7.637   7.346   0.557
 2549TIP3   OH2 7587   7.231   1.076   1.958
 2549TIP3    H1 7588   7.308   1.024   1.935
 2549TIP3    H2 7589   7.176   1.071   1.880
 2550TIP3   OH2 7590   0.350   1.235   1.262
 2550TIP3    H1 7591   0.343   1.139   1.266
 2550TIP3    H2 7592   0.325   1.256   1.172
 2551TIP3   OH2 7593   5.764   2.168   1.839
 2551TIP3    H1 7594   5.807   2.083   1.839
 2551TIP3    H2 7595   5.672   2.148   1.820
 2552TIP3   OH2 7596   2.040   7.101   3.225
 2552TIP3    H1 7597   1.995   7.017   3.234
 2552TIP3    H2 7598   2.104   7.102   3.296
 2553TIP3   OH2 7599   8.251   0.401   1.475
 2553TIP3    H1 7600   8.315   0.447   1.530
 2553TIP3    H2 7601   8.299   0.382   1.394
 2554TIP3   OH2 7602   0.966   3.387   4.726
 2554TIP3    H1 7603   0.987   3.422   4.639
 2554TIP3    H2 7604   0.872   3.403   4.736
 2555TIP3   OH2 7605   3.284   7.338   2.382
 2555TIP3    H1 7606   3.192   7.363   2.379
 2555TIP3    H2 7607   3.315   7.367   2.468
 2556TIP3   OH2 7608   8.388   0.694   1.319
 2556TIP3    H1 7609   8.394   0.673   1.413
 2556TIP3    H2 7610   8.478   0.696   1.289
 2557TIP3   OH2 7611   8.117   4.026   4.678
 2557TIP3    H1 7612   8.161   3.988   4.601
 2557TIP3    H2 7613   8.040   4.070   4.642
 2558TIP3   OH2 7614   2.707   2.360   1.677
 2558TIP3    H1 7615   2.627   2.346   1.728
 2558TIP3    H2 7616   2.756   2.278   1.688
 2559TIP3   OH2 7617   4.845   0.338   5.375
 2559TIP3    H1 7618   4.916   0.399   5.396
 2559TIP3    H2 7619   4.837   0.283   5.452
 2560TIP3   OH2 7620   1.774   1.029   0.906
 2560TIP3    H1 7621   1.801   1.111   0.946
 2560TIP3    H2 7622   1.831   1.019   0.830
 2561TIP3   OH2 7623   6.356   2.655   6.016
 2561TIP3    H1 7624   6.302   2.727   5.985
 2561TIP3    H2 7625   6.403   2.625   5.938
 2562TIP3   OH2 7626   2.661   1.488   0.934
 2562TIP3    H1 7627   2.648   1.574   0.976
 2562TIP3    H2 7628   2.573   1.450   0.931
 2563TIP3   OH2 7629   2.984   2.942   3.489
 2563TIP3    H1 7630   2.939   2.993   3.422
 2563TIP3    H2 7631   3.059   2.996   3.514
 2564TIP3   OH2 7632   6.396   7.574   5.277
 2564TIP3    H1 7633   6.310   7.606   5.304
 2564TIP3    H2 7634   6.425   7.635   5.209
 2565TIP3   OH2 7635   3.787   2.931   2.505
 2565TIP3    H1 7636   3.792   3.024   2.481
 2565TIP3    H2 7637   3.874   2.910   2.538
 2566TIP3   OH2 7638   4.250   4.599   3.050
 2566TIP3    H1 7639   4.224   4.511   3.077
 2566TIP3    H2 7640   4.306   4.630   3.121
 2567TIP3   OH2 7641   3.766   4.180   2.676
 2567TIP3    H1 7642   3.685   4.131   2.688
 2567TIP3    H2 7643   3.741   4.256   2.623
 2568TIP3   OH2 7644   1.305   4.341   0.919
 2568TIP3    H1 7645   1.268   4.348   0.831
 2568TIP3    H2 7646   1.255   4.403   0.972
 2569TIP3   OH2 7647   2.900   3.967   0.276
 2569TIP3    H1 7648   2.842   3.916   0.332
 2569TIP3    H2 7649   2.853   4.049   0.263
 2570TIP3   OH2 7650   7.739   2.859   1.252
 2570TIP3    H1 7651   7.701   2.840   1.167
 2570TIP3    H2 7652   7.831   2.837   1.243
 2571TIP3   OH2 7653   0.548   7.788   4.227
 2571TIP3    H1 7654   0.490   7.865   4.225
 2571TIP3    H2 7655   0.634   7.824   4.249
 2572TIP3   OH2 7656   7.323   5.221   3.005
 2572TIP3    H1 7657   7.284   5.257   3.085
 2572TIP3    H2 7658   7.403   5.273   2.993
 2573TIP3   OH2 7659   0.544   2.253   1.232
 2573TIP3    H1 7660   0.612   2.217   1.289
 2573TIP3    H2 7661   0.566   2.219   1.145
 2574TIP3   OH2 7662   2.750   7.551   1.799
 2574TIP3    H1 7663   2.701   7.474   1.773
 2574TIP3    H2 7664   2.695   7.594   1.864
 2575TIP3   OH2 7665   0.215   2.867   4.693
 2575TIP3    H1 7666   0.122   2.858   4.716
 2575TIP3    H2 7667   0.230   2.962   4.693
 2576TIP3   OH2 7668   1.837   2.692   4.009
 2576TIP3    H1 7669   1.857   2.602   4.036
 2576TIP3    H2 7670   1.916   2.741   4.029
 2577TIP3   OH2 7671   8.375   3.821   1.721
 2577TIP3    H1 7672   8.327   3.791   1.798
 2577TIP3    H2 7673   8.445   3.757   1.710
 2578TIP3   OH2 7674   0.859   3.706   0.794
 2578TIP3    H1 7675   0.834   3.767   0.863
 2578TIP3    H2 7676   0.792   3.637   0.797
 2579TIP3   OH2 7677   0.721   3.335   6.083
 2579TIP3    H1 7678   0.665   3.259   6.071
 2579TIP3    H2 7679   0.810   3.300   6.079
 2580TIP3   OH2 7680   3.949   0.058   5.243
 2580TIP3    H1 7681   3.989  -0.028   5.238
 2580TIP3    H2 7682   4.018   0.115   5.279
 2581TIP3   OH2 7683   3.874   7.710   5.689
 2581TIP3    H1 7684   3.869   7.633   5.745
 2581TIP3    H2 7685   3.783   7.738   5.678
 2582TIP3   OH2 7686   5.887   5.728   3.407
 2582TIP3    H1 7687   5.900   5.823   3.401
 2582TIP3    H2 7688   5.794   5.718   3.429
 2583TIP3   OH2 7689   1.719   4.551   5.498
 2583TIP3    H1 7690   1.698   4.507   5.416
 2583TIP3    H2 7691   1.804   4.593   5.482
 2584TIP3   OH2 7692   6.622   0.769   2.910
 2584TIP3    H1 7693   6.660   0.702   2.966
 2584TIP3    H2 7694   6.613   0.727   2.824
 2585TIP3   OH2 7695   2.322   2.511   4.635
 2585TIP3    H1 7696   2.231   2.535   4.616
 2585TIP3    H2 7697   2.360   2.493   4.549
 2586TIP3   OH2 7698   5.817   4.216   5.224
 2586TIP3    H1 7699   5.839   4.309   5.221
 2586TIP3    H2 7700   5.840   4.184   5.137
 2587TIP3   OH2 7701   2.952   1.793   1.566
 2587TIP3    H1 7702   2.865   1.798   1.606
 2587TIP3    H2 7703   3.013   1.803   1.639
 2588TIP3   OH2 7704   2.302   7.739   1.223
 2588TIP3    H1 7705   2.389   7.708   1.250
 2588TIP3    H2 7706   2.271   7.672   1.163
 2589TIP3   OH2 7707   5.597   2.331   6.600
 2589TIP3    H1 7708   5.516   2.281   6.610
 2589TIP3    H2 7709   5.567   2.418   6.571
 2590TIP3   OH2 7710   4.811   5.915   6.574
 2590TIP3    H1 7711   4.877   5.905   6.505
 2590TIP3    H2 7712   4.746   5.847   6.556
 2591TIP3   OH2 7713   4.177   4.088   2.913
 2591TIP3    H1 7714   4.088   4.053   2.904
 2591TIP3    H2 7715   4.169   4.180   2.891
 2592TIP3   OH2 7716   3.663   4.049   6.591
 2592TIP3    H1 7717   3.598   4.037   6.661
 2592TIP3    H2 7718   3.726   3.979   6.605
 2593TIP3   OH2 7719   7.982   4.037   3.171
 2593TIP3    H1 7720   8.044   4.043   3.099
 2593TIP3    H2 7721   7.975   4.126   3.205
 2594TIP3   OH2 7722   3.803   1.237   3.329
 2594TIP3    H1 7723   3.849   1.280   3.257
 2594TIP3    H2 7724   3.732   1.297   3.351
 2595TIP3   OH2 7725  -0.011   3.779   4.405
 2595TIP3    H1 7726   0.027   3.840   4.341
 2595TIP3    H2 7727   0.060   3.716   4.422
 2596TIP3   OH2 7728   0.571   1.019   0.854
 2596TIP3    H1 7729   0.559   0.924   0.854
 2596TIP3    H2 7730   0.587   1.040   0.946
 2597TIP3   OH2 7731   3.836   6.997  -0.061
 2597TIP3    H1 7732   3.917   7.009  -0.011
 2597TIP3    H2 7733   3.770   6.978   0.005
 2598TIP3   OH2 7734   0.608   3.339   2.705
 2598TIP3    H1 7735   0.561   3.328   2.623
 2598TIP3    H2 7736   0.652   3.423   2.697
 2599TIP3   OH2 7737   0.890   4.828   4.106
 2599TIP3    H1 7738   0.881   4.738   4.137
 2599TIP3    H2 7739   0.800   4.857   4.090
 2600TIP3   OH2 7740   6.605   5.591   4.558
 2600TIP3    H1 7741   6.581   5.566   4.468
 2600TIP3    H2 7742   6.701   5.585   4.559
 2601TIP3   OH2 7743   7.665   7.945   2.027
 2601TIP3    H1 7744   7.676   7.856   2.060
 2601TIP3    H2 7745   7.671   8.000   2.105
 2602TIP3   OH2 7746   7.163   0.190   3.369
 2602TIP3    H1 7747   7.158   0.139   3.288
 2602TIP3    H2 7748   7.101   0.261   3.356
 2603TIP3   OH2 7749   6.563   3.561   4.100
 2603TIP3    H1 7750   6.591   3.577   4.190
 2603TIP3    H2 7751   6.499   3.629   4.083
 2604TIP3   OH2 7752   0.966   6.197   2.086
 2604TIP3    H1 7753   0.942   6.290   2.082
 2604TIP3    H2 7754   0.965   6.169   1.995
 2605TIP3   OH2 7755   2.348   3.146   0.585
 2605TIP3    H1 7756   2.303   3.193   0.515
 2605TIP3    H2 7757   2.287   3.077   0.611
 2606TIP3   OH2 7758   0.764   5.477   2.679
 2606TIP3    H1 7759   0.824   5.443   2.612
 2606TIP3    H2 7760   0.820   5.493   2.755
 2607TIP3   OH2 7761   4.938   2.494   0.218
 2607TIP3    H1 7762   4.945   2.406   0.179
 2607TIP3    H2 7763   4.888   2.544   0.154
 2608TIP3   OH2 7764   0.791   6.794   0.064
 2608TIP3    H1 7765   0.698   6.813   0.063
 2608TIP3    H2 7766   0.831   6.869   0.107
 2609TIP3   OH2 7767   4.604   4.432   2.412
 2609TIP3    H1 7768   4.538   4.472   2.355
 2609TIP3    H2 7769   4.562   4.353   2.445
 2610TIP3   OH2 7770   7.934   6.147   2.080
 2610TIP3    H1 7771   7.874   6.192   2.020
 2610TIP3    H2 7772   7.877   6.116   2.151
 2611TIP3   OH2 7773   6.050   6.851   2.987
 2611TIP3    H1 7774   6.107   6.809   2.923
 2611TIP3    H2 7775   5.969   6.868   2.940
 2612TIP3   OH2 7776   2.971   5.063   2.272
 2612TIP3    H1 7777   3.041   5.098   2.328
 2612TIP3    H2 7778   2.936   5.140   2.227
 2613TIP3   OH2 7779   6.532   6.218   0.233
 2613TIP3    H1 7780   6.520   6.129   0.264
 2613TIP3    H2 7781   6.604   6.213   0.170
 2614TIP3   OH2 7782   7.737   0.777   1.584
 2614TIP3    H1 7783   7.746   0.806   1.675
 2614TIP3    H2 7784   7.827   0.772   1.552
 2615TIP3   OH2 7785   8.002   4.095   1.809
 2615TIP3    H1 7786   7.989   4.009   1.768
 2615TIP3    H2 7787   7.983   4.081   1.902
 2616TIP3   OH2 7788   7.945   2.526   2.996
 2616TIP3    H1 7789   7.917   2.581   2.923
 2616TIP3    H2 7790   8.035   2.554   3.015
 2617TIP3   OH2 7791   3.219   4.797   6.443
 2617TIP3    H1 7792   3.170   4.851   6.504
 2617TIP3    H2 7793   3.153   4.756   6.388
 2618TIP3   OH2 7794   0.111   5.479   6.377
 2618TIP3    H1 7795   0.082   5.394   6.341
 2618TIP3    H2 7796   0.207   5.475   6.372
 2619TIP3   OH2 7797   1.324   4.459   1.966
 2619TIP3    H1 7798   1.364   4.432   1.884
 2619TIP3    H2 7799   1.315   4.554   1.959
 2620TIP3   OH2 7800   3.707   3.454   4.048
 2620TIP3    H1 7801   3.739   3.446   3.959
 2620TIP3    H2 7802   3.711   3.366   4.084
 2621TIP3   OH2 7803   7.624   6.451   6.070
 2621TIP3    H1 7804   7.557   6.404   6.021
 2621TIP3    H2 7805   7.686   6.384   6.098
 2622TIP3   OH2 7806   4.055   7.067   5.045
 2622TIP3    H1 7807   4.069   6.977   5.074
 2622TIP3    H2 7808   3.966   7.088   5.073
 2623TIP3   OH2 7809   0.546   0.130   3.057
 2623TIP3    H1 7810   0.584   0.095   2.977
 2623TIP3    H2 7811   0.608   0.196   3.087
 2624TIP3   OH2 7812   1.535   6.809   6.035
 2624TIP3    H1 7813   1.487   6.891   6.027
 2624TIP3    H2 7814   1.615   6.833   6.083
 2625TIP3   OH2 7815   6.280   0.073   6.031
 2625TIP3    H1 7816   6.295   0.149   5.974
 2625TIP3    H2 7817   6.358   0.071   6.088
 2626TIP3   OH2 7818   2.894   3.511   3.746
 2626TIP3    H1 7819   2.933   3.430   3.781
 2626TIP3    H2 7820   2.803   3.488   3.728
 2627TIP3   OH2 7821   1.433   0.083   5.946
 2627TIP3    H1 7822   1.515   0.054   5.987
 2627TIP3    H2 7823   1.454   0.089   5.853
 2628TIP3   OH2 7824   0.504   6.632   4.377
 2628TIP3    H1 7825   0.564   6.703   4.355
 2628TIP3    H2 7826   0.560   6.561   4.406
 2629TIP3   OH2 7827   1.916   3.388   3.971
 2629TIP3    H1 7828   1.931   3.457   3.906
 2629TIP3    H2 7829   1.866   3.321   3.924
 2630TIP3   OH2 7830   0.049   4.337   3.057
 2630TIP3    H1 7831   0.103   4.260   3.075
 2630TIP3    H2 7832  -0.027   4.327   3.114
 2631TIP3   OH2 7833   0.316   2.295   3.505
 2631TIP3    H1 7834   0.366   2.299   3.587
 2631TIP3    H2 7835   0.235   2.249   3.529
 2632TIP3   OH2 7836   7.168   5.015   2.871
 2632TIP3    H1 7837   7.222   5.043   2.945
 2632TIP3    H2 7838   7.191   5.076   2.800
 2633TIP3   OH2 7839   3.927   3.259   1.541
 2633TIP3    H1 7840   3.995   3.227   1.600
 2633TIP3    H2 7841   3.845   3.246   1.589
 2634TIP3   OH2 7842   5.696   3.188   3.252
 2634TIP3    H1 7843   5.680   3.220   3.341
 2634TIP3    H2 7844   5.788   3.208   3.236
 2635TIP3   OH2 7845   2.589   1.979   5.403
 2635TIP3    H1 7846   2.555   1.894   5.376
 2635TIP3    H2 7847   2.641   1.961   5.481
 2636TIP3   OH2 7848   4.344   3.571   5.644
 2636TIP3    H1 7849   4.306   3.483   5.644
 2636TIP3    H2 7850   4.438   3.557   5.650
 2637TIP3   OH2 7851   1.730   7.368   6.361
 2637TIP3    H1 7852   1.742   7.373   6.456
 2637TIP3    H2 7853   1.757   7.453   6.328
 2638TIP3   OH2 7854   6.722   6.722   1.636
 2638TIP3    H1 7855   6.756   6.702   1.549
 2638TIP3    H2 7856   6.755   6.810   1.656
 2639TIP3   OH2 7857   1.902   7.406   2.616
 2639TIP3    H1 7858   1.965   7.477   2.608
 2639TIP3    H2 7859   1.818   7.446   2.590
 2640TIP3   OH2 7860   7.631   7.551   2.138
 2640TIP3    H1 7861   7.544   7.589   2.145
 2640TIP3    H2 7862   7.639   7.494   2.215
 2641TIP3   OH2 7863   2.219   7.407   3.904
 2641TIP3    H1 7864   2.296   7.414   3.848
 2641TIP3    H2 7865   2.163   7.480   3.877
 2642TIP3   OH2 7866   8.069   0.633   5.595
 2642TIP3    H1 7867   7.981   0.598   5.614
 2642TIP3    H2 7868   8.060   0.728   5.605
 2643TIP3   OH2 7869   0.117   0.788   5.658
 2643TIP3    H1 7870   0.098   0.707   5.610
 2643TIP3    H2 7871   0.209   0.806   5.638
 2644TIP3   OH2 7872   2.865   2.259   0.484
 2644TIP3    H1 7873   2.908   2.228   0.564
 2644TIP3    H2 7874   2.812   2.334   0.513
 2645TIP3   OH2 7875   5.177   6.095   3.140
 2645TIP3    H1 7876   5.109   6.073   3.076
 2645TIP3    H2 7877   5.167   6.189   3.155
 2646TIP3   OH2 7878   0.941   5.553   6.027
 2646TIP3    H1 7879   0.911   5.531   5.939
 2646TIP3    H2 7880   0.890   5.631   6.050
 2647TIP3   OH2 7881   2.055   3.250   6.489
 2647TIP3    H1 7882   1.998   3.173   6.489
 2647TIP3    H2 7883   2.138   3.217   6.524
 2648TIP3   OH2 7884   1.416   7.022   3.131
 2648TIP3    H1 7885   1.345   7.025   3.067
 2648TIP3    H2 7886   1.494   7.002   3.079
 2649TIP3   OH2 7887   8.326   4.049   6.362
 2649TIP3    H1 7888   8.405   4.003   6.334
 2649TIP3    H2 7889   8.357   4.122   6.415
 2650TIP3   OH2 7890   5.432   0.738   1.263
 2650TIP3    H1 7891   5.347   0.710   1.230
 2650TIP3    H2 7892   5.462   0.665   1.317
 2651TIP3   OH2 7893   2.487   6.998   5.913
 2651TIP3    H1 7894   2.417   6.934   5.899
 2651TIP3    H2 7895   2.494   7.006   6.008
 2652TIP3   OH2 7896   3.963   6.898   3.546
 2652TIP3    H1 7897   4.041   6.909   3.601
 2652TIP3    H2 7898   3.899   6.858   3.605
 2653TIP3   OH2 7899   7.848   5.476   4.574
 2653TIP3    H1 7900   7.761   5.497   4.541
 2653TIP3    H2 7901   7.887   5.421   4.506
 2654TIP3   OH2 7902   2.794   1.003   0.073
 2654TIP3    H1 7903   2.762   0.940   0.009
 2654TIP3    H2 7904   2.889   0.987   0.077
 2655TIP3   OH2 7905   2.069   1.283   0.689
 2655TIP3    H1 7906   2.088   1.191   0.707
 2655TIP3    H2 7907   2.136   1.309   0.627
 2656TIP3   OH2 7908   7.454   3.795   2.511
 2656TIP3    H1 7909   7.519   3.865   2.517
 2656TIP3    H2 7910   7.432   3.774   2.602
 2657TIP3   OH2 7911   1.074   7.065   2.943
 2657TIP3    H1 7912   1.084   7.027   2.856
 2657TIP3    H2 7913   1.018   7.003   2.990
 2658TIP3   OH2 7914   6.574   7.139   0.997
 2658TIP3    H1 7915   6.501   7.184   0.954
 2658TIP3    H2 7916   6.593   7.193   1.074
 2659TIP3   OH2 7917   3.348   0.676   1.525
 2659TIP3    H1 7918   3.341   0.598   1.471
 2659TIP3    H2 7919   3.305   0.744   1.474
 2660TIP3   OH2 7920   7.834   1.872   6.607
 2660TIP3    H1 7921   7.815   1.780   6.589
 2660TIP3    H2 7922   7.758   1.904   6.655
 2661TIP3   OH2 7923   0.484   5.715   4.158
 2661TIP3    H1 7924   0.527   5.645   4.109
 2661TIP3    H2 7925   0.549   5.785   4.161
 2662TIP3   OH2 7926   7.314   3.438   4.652
 2662TIP3    H1 7927   7.367   3.434   4.572
 2662TIP3    H2 7928   7.323   3.528   4.683
 2663TIP3   OH2 7929   4.640   4.824   3.451
 2663TIP3    H1 7930   4.624   4.735   3.484
 2663TIP3    H2 7931   4.628   4.880   3.528
 2664TIP3   OH2 7932   6.665   6.664   1.955
 2664TIP3    H1 7933   6.664   6.712   1.872
 2664TIP3    H2 7934   6.686   6.574   1.931
 2665TIP3   OH2 7935   5.245   4.945   5.190
 2665TIP3    H1 7936   5.220   5.031   5.224
 2665TIP3    H2 7937   5.326   4.924   5.236
 2666TIP3   OH2 7938   3.606   1.555   6.786
 2666TIP3    H1 7939   3.645   1.471   6.762
 2666TIP3    H2 7940   3.541   1.533   6.854
 2667TIP3   OH2 7941   1.303   5.451   3.132
 2667TIP3    H1 7942   1.362   5.381   3.159
 2667TIP3    H2 7943   1.343   5.486   3.052
 2668TIP3   OH2 7944   4.529   6.046   2.028
 2668TIP3    H1 7945   4.602   6.107   2.031
 2668TIP3    H2 7946   4.569   5.963   2.002
 2669TIP3   OH2 7947   0.919   6.708   6.325
 2669TIP3    H1 7948   0.829   6.721   6.356
 2669TIP3    H2 7949   0.911   6.703   6.230
 2670TIP3   OH2 7950   6.662   6.311   3.367
 2670TIP3    H1 7951   6.594   6.244   3.364
 2670TIP3    H2 7952   6.715   6.294   3.289
 2671TIP3   OH2 7953   6.011   7.684   6.891
 2671TIP3    H1 7954   5.939   7.621   6.890
 2671TIP3    H2 7955   5.975   7.762   6.847
 2672TIP3   OH2 7956   7.592   1.879   5.989
 2672TIP3    H1 7957   7.672   1.895   6.039
 2672TIP3    H2 7958   7.553   1.966   5.978
 2673TIP3   OH2 7959   1.102   6.831   0.321
 2673TIP3    H1 7960   1.113   6.923   0.300
 2673TIP3    H2 7961   1.019   6.827   0.369
 2674TIP3   OH2 7962   7.280   6.484   1.191
 2674TIP3    H1 7963   7.298   6.560   1.135
 2674TIP3    H2 7964   7.264   6.413   1.130
 2675TIP3   OH2 7965   2.564   6.921   4.475
 2675TIP3    H1 7966   2.478   6.933   4.514
 2675TIP3    H2 7967   2.546   6.910   4.381
 2676TIP3   OH2 7968   3.565   1.688   1.580
 2676TIP3    H1 7969   3.545   1.635   1.503
 2676TIP3    H2 7970   3.528   1.774   1.562
 2677TIP3   OH2 7971   0.602   2.913   1.638
 2677TIP3    H1 7972   0.558   2.830   1.658
 2677TIP3    H2 7973   0.643   2.899   1.553
 2678TIP3   OH2 7974   3.761   2.238   4.765
 2678TIP3    H1 7975   3.775   2.332   4.758
 2678TIP3    H2 7976   3.724   2.212   4.681
 2679TIP3   OH2 7977   3.114   7.301   6.484
 2679TIP3    H1 7978   3.138   7.348   6.404
 2679TIP3    H2 7979   3.137   7.360   6.555
 2680TIP3   OH2 7980   1.500   3.635   2.665
 2680TIP3    H1 7981   1.554   3.604   2.738
 2680TIP3    H2 7982   1.431   3.686   2.706
 2681TIP3   OH2 7983   1.410   4.030   5.089
 2681TIP3    H1 7984   1.496   4.044   5.050
 2681TIP3    H2 7985   1.374   4.118   5.103
 2682TIP3   OH2 7986   2.156   6.303   2.662
 2682TIP3    H1 7987   2.227   6.304   2.598
 2682TIP3    H2 7988   2.089   6.359   2.625
 2683TIP3   OH2 7989   4.941   3.498   1.691
 2683TIP3    H1 7990   4.877   3.553   1.645
 2683TIP3    H2 7991   4.891   3.421   1.718
 2684TIP3   OH2 7992   8.270   4.750   0.730
 2684TIP3    H1 7993   8.293   4.820   0.670
 2684TIP3    H2 7994   8.268   4.792   0.816
 2685TIP3   OH2 7995   5.370   4.099   0.592
 2685TIP3    H1 7996   5.397   4.008   0.604
 2685TIP3    H2 7997   5.284   4.093   0.550
 2686TIP3   OH2 7998   5.132   0.884   5.631
 2686TIP3    H1 7999   5.102   0.835   5.554
 2686TIP3    H2 8000   5.227   0.870   5.632
 2687TIP3   OH2 8001   1.576   6.839   2.007
 2687TIP3    H1 8002   1.521   6.777   1.960
 2687TIP3    H2 8003   1.516   6.887   2.064
 2688TIP3   OH2 8004   4.651   5.608   2.374
 2688TIP3    H1 8005   4.664   5.529   2.426
 2688TIP3    H2 8006   4.584   5.658   2.421
 2689TIP3   OH2 8007   4.434   0.832   0.877
 2689TIP3    H1 8008   4.351   0.805   0.837
 2689TIP3    H2 8009   4.475   0.750   0.904
 2690TIP3   OH2 8010   4.782   3.822   3.999
 2690TIP3    H1 8011   4.783   3.741   4.051
 2690TIP3    H2 8012   4.828   3.799   3.919
 2691TIP3   OH2 8013   0.987   6.581   2.707
 2691TIP3    H1 8014   0.988   6.677   2.704
 2691TIP3    H2 8015   0.930   6.556   2.634
 2692TIP3   OH2 8016   2.240   6.316   6.199
 2692TIP3    H1 8017   2.175   6.339   6.133
 2692TIP3    H2 8018   2.264   6.225   6.178
 2693TIP3   OH2 8019   8.237   3.385   4.816
 2693TIP3    H1 8020   8.269   3.297   4.833
 2693TIP3    H2 8021   8.209   3.384   4.725
 2694TIP3   OH2 8022   1.466   6.710   0.022
 2694TIP3    H1 8023   1.412   6.677   0.094
 2694TIP3    H2 8024   1.407   6.709  -0.054
 2695TIP3   OH2 8025   4.225   3.936   2.668
 2695TIP3    H1 8026   4.155   3.966   2.610
 2695TIP3    H2 8027   4.223   3.996   2.742
 2696TIP3   OH2 8028   1.764   0.851   6.655
 2696TIP3    H1 8029   1.844   0.805   6.628
 2696TIP3    H2 8030   1.706   0.843   6.580
 2697TIP3   OH2 8031   1.004   1.269   5.675
 2697TIP3    H1 8032   1.033   1.355   5.705
 2697TIP3    H2 8033   0.924   1.287   5.626
 2698TIP3   OH2 8034   8.024   7.763   5.860
 2698TIP3    H1 8035   8.083   7.794   5.791
 2698TIP3    H2 8036   8.056   7.675   5.881
 2699TIP3   OH2 8037   2.378   3.057   0.920
 2699TIP3    H1 8038   2.328   3.037   0.841
 2699TIP3    H2 8039   2.322   3.116   0.970
 2700TIP3   OH2 8040   5.114   7.664   6.392
 2700TIP3    H1 8041   5.136   7.689   6.482
 2700TIP3    H2 8042   5.170   7.589   6.374
 2701TIP3   OH2 8043   7.434   2.789   4.287
 2701TIP3    H1 8044   7.395   2.801   4.374
 2701TIP3    H2 8045   7.528   2.779   4.304
 2702TIP3   OH2 8046   4.382   6.517   3.274
 2702TIP3    H1 8047   4.418   6.485   3.357
 2702TIP3    H2 8048   4.375   6.612   3.286
 2703TIP3   OH2 8049   5.588   4.053   1.964
 2703TIP3    H1 8050   5.607   4.127   1.907
 2703TIP3    H2 8051   5.621   3.977   1.916
 2704TIP3   OH2 8052   4.801   6.800   3.925
 2704TIP3    H1 8053   4.810   6.714   3.883
 2704TIP3    H2 8054   4.879   6.848   3.898
 2705TIP3   OH2 8055   0.648   4.686   1.787
 2705TIP3    H1 8056   0.614   4.775   1.783
 2705TIP3    H2 8057   0.670   4.672   1.880
 2706TIP3   OH2 8058   5.558   4.037   3.132
 2706TIP3    H1 8059   5.530   4.021   3.042
 2706TIP3    H2 8060   5.526   3.962   3.181
 2707TIP3   OH2 8061   1.182   2.121   6.807
 2707TIP3    H1 8062   1.273   2.143   6.790
 2707TIP3    H2 8063   1.166   2.152   6.897
 2708TIP3   OH2 8064   6.350   4.198   3.078
 2708TIP3    H1 8065   6.285   4.173   3.012
 2708TIP3    H2 8066   6.406   4.262   3.034
 2709TIP3   OH2 8067   8.233   0.727   1.104
 2709TIP3    H1 8068   8.199   0.817   1.107
 2709TIP3    H2 8069   8.280   0.718   1.187
 2710TIP3   OH2 8070   0.439   2.497   1.138
 2710TIP3    H1 8071   0.505   2.528   1.075
 2710TIP3    H2 8072   0.485   2.433   1.192
 2711TIP3   OH2 8073   4.360   6.607   0.906
 2711TIP3    H1 8074   4.425   6.656   0.956
 2711TIP3    H2 8075   4.276   6.647   0.930
 2712TIP3   OH2 8076   3.628   3.759   0.519
 2712TIP3    H1 8077   3.584   3.789   0.599
 2712TIP3    H2 8078   3.649   3.667   0.537
 2713TIP3   OH2 8079   2.629   2.797   0.719
 2713TIP3    H1 8080   2.705   2.848   0.745
 2713TIP3    H2 8081   2.665   2.720   0.675
 2714TIP3   OH2 8082   0.711   7.477   5.709
 2714TIP3    H1 8083   0.717   7.573   5.706
 2714TIP3    H2 8084   0.736   7.454   5.799
 2715TIP3   OH2 8085   1.970   4.561   5.059
 2715TIP3    H1 8086   1.991   4.593   4.971
 2715TIP3    H2 8087   1.938   4.472   5.045
 2716TIP3   OH2 8088   7.284   1.534   0.704
 2716TIP3    H1 8089   7.222   1.498   0.767
 2716TIP3    H2 8090   7.369   1.531   0.749
 2717TIP3   OH2 8091   4.894   2.144   6.347
 2717TIP3    H1 8092   4.917   2.138   6.440
 2717TIP3    H2 8093   4.888   2.238   6.330
 2718TIP3   OH2 8094   0.350   1.093   6.136
 2718TIP3    H1 8095   0.276   1.142   6.172
 2718TIP3    H2 8096   0.364   1.022   6.198
 2719TIP3   OH2 8097   3.608   5.597   0.044
 2719TIP3    H1 8098   3.513   5.608   0.043
 2719TIP3    H2 8099   3.627   5.560   0.130
 2720TIP3   OH2 8100   3.262   4.132   2.462
 2720TIP3    H1 8101   3.267   4.036   2.460
 2720TIP3    H2 8102   3.249   4.157   2.371
 2721TIP3   OH2 8103   7.431   7.823   0.202
 2721TIP3    H1 8104   7.493   7.787   0.265
 2721TIP3    H2 8105   7.366   7.754   0.191
 2722TIP3   OH2 8106   1.366   6.533   1.003
 2722TIP3    H1 8107   1.342   6.594   0.933
 2722TIP3    H2 8108   1.291   6.533   1.062
 2723TIP3   OH2 8109   2.409   2.892   4.933
 2723TIP3    H1 8110   2.440   2.880   5.023
 2723TIP3    H2 8111   2.388   2.804   4.903
 2724TIP3   OH2 8112   0.034   3.808   0.223
 2724TIP3    H1 8113   0.067   3.765   0.145
 2724TIP3    H2 8114   0.051   3.746   0.294
 2725TIP3   OH2 8115   3.677   5.620   6.587
 2725TIP3    H1 8116   3.667   5.580   6.501
 2725TIP3    H2 8117   3.714   5.551   6.642
 2726TIP3   OH2 8118   5.081   2.871   5.569
 2726TIP3    H1 8119   5.072   2.940   5.503
 2726TIP3    H2 8120   5.141   2.807   5.529
 2727TIP3   OH2 8121   0.822   1.178   0.829
 2727TIP3    H1 8122   0.790   1.240   0.764
 2727TIP3    H2 8123   0.753   1.112   0.837
 2728TIP3   OH2 8124   3.900   2.634   5.334
 2728TIP3    H1 8125   3.926   2.621   5.425
 2728TIP3    H2 8126   3.905   2.728   5.320
 2729TIP3   OH2 8127   0.272   6.712   6.550
 2729TIP3    H1 8128   0.198   6.721   6.610
 2729TIP3    H2 8129   0.336   6.777   6.579
 2730TIP3   OH2 8130   1.415   3.486   1.692
 2730TIP3    H1 8131   1.440   3.403   1.650
 2730TIP3    H2 8132   1.331   3.508   1.652
 2731TIP3   OH2 8133   7.354   4.860   2.286
 2731TIP3    H1 8134   7.433   4.864   2.340
 2731TIP3    H2 8135   7.341   4.767   2.268
 2732TIP3   OH2 8136   2.051   6.861   6.524
 2732TIP3    H1 8137   2.120   6.913   6.564
 2732TIP3    H2 8138   1.969   6.904   6.551
 2733TIP3   OH2 8139   6.478   3.473   0.047
 2733TIP3    H1 8140   6.514   3.440   0.130
 2733TIP3    H2 8141   6.473   3.568   0.058
 2734TIP3   OH2 8142   6.930   5.081   3.938
 2734TIP3    H1 8143   6.894   5.125   3.861
 2734TIP3    H2 8144   6.889   5.126   4.012
 2735TIP3   OH2 8145   7.033   1.923   2.468
 2735TIP3    H1 8146   7.090   1.855   2.433
 2735TIP3    H2 8147   7.015   1.980   2.393
 2736TIP3   OH2 8148   7.128   0.521   2.649
 2736TIP3    H1 8149   7.138   0.611   2.680
 2736TIP3    H2 8150   7.213   0.500   2.609
 2737TIP3   OH2 8151   1.300   6.989   0.950
 2737TIP3    H1 8152   1.374   7.010   1.007
 2737TIP3    H2 8153   1.265   7.074   0.924
 2738TIP3   OH2 8154   4.123   0.748   3.518
 2738TIP3    H1 8155   4.092   0.815   3.580
 2738TIP3    H2 8156   4.043   0.703   3.491
 2739TIP3   OH2 8157   4.522   5.064   2.032
 2739TIP3    H1 8158   4.534   5.108   1.948
 2739TIP3    H2 8159   4.532   5.133   2.098
 2740TIP3   OH2 8160   5.634   6.675   4.132
 2740TIP3    H1 8161   5.668   6.621   4.060
 2740TIP3    H2 8162   5.702   6.670   4.199
 2741TIP3   OH2 8163   3.862   4.659   3.063
 2741TIP3    H1 8164   3.822   4.737   3.101
 2741TIP3    H2 8165   3.824   4.653   2.976
 2742TIP3   OH2 8166   2.978   2.016   6.864
 2742TIP3    H1 8167   2.891   1.987   6.891
 2742TIP3    H2 8168   2.962   2.088   6.803
 2743TIP3   OH2 8169   7.515   5.502   6.283
 2743TIP3    H1 8170   7.493   5.481   6.374
 2743TIP3    H2 8171   7.487   5.426   6.233
 2744TIP3   OH2 8172   3.621   6.143   3.245
 2744TIP3    H1 8173   3.714   6.121   3.245
 2744TIP3    H2 8174   3.617   6.231   3.284
 2745TIP3   OH2 8175   8.305   2.116   1.830
 2745TIP3    H1 8176   8.336   2.110   1.740
 2745TIP3    H2 8177   8.372   2.070   1.881
 2746TIP3   OH2 8178   3.469   0.348   6.609
 2746TIP3    H1 8179   3.469   0.408   6.684
 2746TIP3    H2 8180   3.384   0.362   6.568
 2747TIP3   OH2 8181   1.269   1.709   5.790
 2747TIP3    H1 8182   1.265   1.773   5.719
 2747TIP3    H2 8183   1.181   1.710   5.829
 2748TIP3   OH2 8184   7.778   6.903   1.316
 2748TIP3    H1 8185   7.718   6.829   1.316
 2748TIP3    H2 8186   7.741   6.964   1.253
 2749TIP3   OH2 8187  -0.029   5.893   3.498
 2749TIP3    H1 8188   0.034   5.965   3.501
 2749TIP3    H2 8189   0.019   5.818   3.532
 2750TIP3   OH2 8190   8.273   1.638   6.835
 2750TIP3    H1 8191   8.252   1.597   6.751
 2750TIP3    H2 8192   8.251   1.572   6.900
 2751TIP3   OH2 8193   5.120   1.457   6.119
 2751TIP3    H1 8194   5.108   1.531   6.179
 2751TIP3    H2 8195   5.031   1.427   6.101
 2752TIP3   OH2 8196   8.378   7.723   2.072
 2752TIP3    H1 8197   8.343   7.775   2.000
 2752TIP3    H2 8198   8.372   7.632   2.043
 2753TIP3   OH2 8199   2.293   0.951   3.126
 2753TIP3    H1 8200   2.202   0.963   3.154
 2753TIP3    H2 8201   2.335   1.035   3.144
 2754TIP3   OH2 8202   2.500   3.703   0.292
 2754TIP3    H1 8203   2.538   3.691   0.205
 2754TIP3    H2 8204   2.573   3.734   0.346
 2755TIP3   OH2 8205   5.926   5.527   6.351
 2755TIP3    H1 8206   5.833   5.545   6.364
 2755TIP3    H2 8207   5.948   5.466   6.421
 2756TIP3   OH2 8208   8.077   4.944   3.140
 2756TIP3    H1 8209   8.107   5.025   3.181
 2756TIP3    H2 8210   8.150   4.916   3.086
 2757TIP3   OH2 8211   7.359   7.360   2.084
 2757TIP3    H1 8212   7.452   7.356   2.063
 2757TIP3    H2 8213   7.348   7.443   2.130
 2758TIP3   OH2 8214   0.369   0.984   4.906
 2758TIP3    H1 8215   0.410   0.928   4.972
 2758TIP3    H2 8216   0.275   0.967   4.915
 2759TIP3   OH2 8217   5.351   1.185   1.491
 2759TIP3    H1 8218   5.406   1.109   1.471
 2759TIP3    H2 8219   5.263   1.150   1.501
 2760TIP3   OH2 8220   4.047   6.983   0.799
 2760TIP3    H1 8221   4.047   7.017   0.710
 2760TIP3    H2 8222   3.973   7.028   0.841
 2761TIP3   OH2 8223   2.940   1.668   3.036
 2761TIP3    H1 8224   3.012   1.645   3.094
 2761TIP3    H2 8225   2.939   1.599   2.970
 2762TIP3   OH2 8226   7.339   3.927   6.358
 2762TIP3    H1 8227   7.334   3.851   6.415
 2762TIP3    H2 8228   7.299   3.899   6.276
 2763TIP3   OH2 8229   6.324   3.208   6.685
 2763TIP3    H1 8230   6.419   3.205   6.671
 2763TIP3    H2 8231   6.314   3.209   6.780
 2764TIP3   OH2 8232   7.419   7.545   3.239
 2764TIP3    H1 8233   7.514   7.533   3.243
 2764TIP3    H2 8234   7.396   7.531   3.147
 2765TIP3   OH2 8235   5.148   3.081   6.711
 2765TIP3    H1 8236   5.092   3.139   6.763
 2765TIP3    H2 8237   5.103   2.996   6.715
 2766TIP3   OH2 8238   2.016   0.256   2.208
 2766TIP3    H1 8239   1.955   0.223   2.274
 2766TIP3    H2 8240   1.961   0.271   2.131
 2767TIP3   OH2 8241   5.822   3.031   4.182
 2767TIP3    H1 8242   5.764   2.958   4.203
 2767TIP3    H2 8243   5.770   3.109   4.200
 2768TIP3   OH2 8244   6.960   6.367   1.365
 2768TIP3    H1 8245   7.011   6.291   1.338
 2768TIP3    H2 8246   6.946   6.417   1.285
 2769TIP3   OH2 8247   7.446   6.166   1.432
 2769TIP3    H1 8248   7.540   6.178   1.445
 2769TIP3    H2 8249   7.409   6.252   1.448
 2770TIP3   OH2 8250   4.970   4.781   4.765
 2770TIP3    H1 8251   4.935   4.755   4.851
 2770TIP3    H2 8252   5.022   4.859   4.783
 2771TIP3   OH2 8253   2.668   1.471   4.620
 2771TIP3    H1 8254   2.660   1.393   4.566
 2771TIP3    H2 8255   2.735   1.524   4.577
 2772TIP3   OH2 8256   8.047   5.054   1.552
 2772TIP3    H1 8257   8.040   4.966   1.590
 2772TIP3    H2 8258   8.101   5.103   1.614
 2773TIP3   OH2 8259   3.875   0.026   5.555
 2773TIP3    H1 8260   3.862   0.024   5.460
 2773TIP3    H2 8261   3.815  -0.040   5.590
 2774TIP3   OH2 8262   0.915   0.888   4.212
 2774TIP3    H1 8263   0.823   0.891   4.185
 2774TIP3    H2 8264   0.914   0.922   4.302
 2775TIP3   OH2 8265   1.678   6.367   0.646
 2775TIP3    H1 8266   1.648   6.392   0.733
 2775TIP3    H2 8267   1.754   6.424   0.629
 2776TIP3   OH2 8268   4.842   6.561   0.740
 2776TIP3    H1 8269   4.820   6.475   0.776
 2776TIP3    H2 8270   4.871   6.612   0.815
 2777TIP3   OH2 8271   4.013   2.626   4.108
 2777TIP3    H1 8272   3.951   2.699   4.107
 2777TIP3    H2 8273   4.099   2.667   4.113
 2778TIP3   OH2 8274   8.047   3.914   5.469
 2778TIP3    H1 8275   7.997   3.876   5.396
 2778TIP3    H2 8276   8.137   3.917   5.437
 2779TIP3   OH2 8277   4.270   3.978   6.496
 2779TIP3    H1 8278   4.211   3.911   6.460
 2779TIP3    H2 8279   4.235   3.998   6.582
 2780TIP3   OH2 8280   3.280   1.088   6.014
 2780TIP3    H1 8281   3.209   1.026   6.024
 2780TIP3    H2 8282   3.259   1.160   6.073
 2781TIP3   OH2 8283   6.072   3.921   1.435
 2781TIP3    H1 8284   5.992   3.967   1.460
 2781TIP3    H2 8285   6.044   3.832   1.416
 2782TIP3   OH2 8286   4.783   2.343   1.452
 2782TIP3    H1 8287   4.795   2.281   1.524
 2782TIP3    H2 8288   4.855   2.325   1.392
 2783TIP3   OH2 8289   7.645   6.494   3.490
 2783TIP3    H1 8290   7.730   6.466   3.525
 2783TIP3    H2 8291   7.611   6.416   3.446
 2784TIP3   OH2 8292   4.805   3.870   1.640
 2784TIP3    H1 8293   4.782   3.778   1.625
 2784TIP3    H2 8294   4.861   3.894   1.567
 2785TIP3   OH2 8295   5.376   2.111   6.030
 2785TIP3    H1 8296   5.462   2.136   6.066
 2785TIP3    H2 8297   5.314   2.163   6.081
 2786TIP3   OH2 8298   1.924   2.928   6.273
 2786TIP3    H1 8299   1.905   2.969   6.357
 2786TIP3    H2 8300   1.838   2.908   6.236
 2787TIP3   OH2 8301   0.378   1.567   4.573
 2787TIP3    H1 8302   0.289   1.551   4.604
 2787TIP3    H2 8303   0.379   1.660   4.550
 2788TIP3   OH2 8304   1.495   1.922   1.525
 2788TIP3    H1 8305   1.584   1.907   1.556
 2788TIP3    H2 8306   1.448   1.957   1.600
 2789TIP3   OH2 8307   1.876   6.539   3.933
 2789TIP3    H1 8308   1.961   6.528   3.976
 2789TIP3    H2 8309   1.883   6.623   3.887
 2790TIP3   OH2 8310   4.254   5.281   4.787
 2790TIP3    H1 8311   4.185   5.215   4.795
 2790TIP3    H2 8312   4.207   5.360   4.759
 2791TIP3   OH2 8313   6.253   6.203   0.145
 2791TIP3    H1 8314   6.344   6.207   0.176
 2791TIP3    H2 8315   6.201   6.230   0.221
 2792TIP3   OH2 8316   0.430   4.866   4.487
 2792TIP3    H1 8317   0.379   4.821   4.420
 2792TIP3    H2 8318   0.466   4.943   4.442
 2793TIP3   OH2 8319   0.445   7.104   5.045
 2793TIP3    H1 8320   0.355   7.134   5.028
 2793TIP3    H2 8321   0.438   7.056   5.128
 2794TIP3   OH2 8322   0.914   2.387   1.716
 2794TIP3    H1 8323   1.000   2.416   1.745
 2794TIP3    H2 8324   0.860   2.466   1.717
 2795TIP3   OH2 8325   7.765   5.653   2.674
 2795TIP3    H1 8326   7.774   5.564   2.710
 2795TIP3    H2 8327   7.671   5.666   2.665
 2796TIP3   OH2 8328   4.601   7.791   2.491
 2796TIP3    H1 8329   4.630   7.700   2.480
 2796TIP3    H2 8330   4.682   7.840   2.503
 2797TIP3   OH2 8331   1.289   6.486   2.385
 2797TIP3    H1 8332   1.260   6.554   2.324
 2797TIP3    H2 8333   1.385   6.486   2.376
 2798TIP3   OH2 8334   5.197   6.989   5.349
 2798TIP3    H1 8335   5.280   7.020   5.313
 2798TIP3    H2 8336   5.145   6.964   5.272
 2799TIP3   OH2 8337   3.800   5.953   3.018
 2799TIP3    H1 8338   3.874   5.894   3.012
 2799TIP3    H2 8339   3.787   5.964   3.113
 2800TIP3   OH2 8340   0.095   7.187   6.694
 2800TIP3    H1 8341   0.121   7.279   6.688
 2800TIP3    H2 8342   0.064   7.165   6.606
 2801TIP3   OH2 8343   4.901   0.918   5.790
 2801TIP3    H1 8344   4.990   0.938   5.817
 2801TIP3    H2 8345   4.902   0.928   5.694
 2802TIP3   OH2 8346   2.260   5.065   0.959
 2802TIP3    H1 8347   2.318   4.993   0.985
 2802TIP3    H2 8348   2.233   5.044   0.870
 2803TIP3   OH2 8349   7.592   4.694   1.724
 2803TIP3    H1 8350   7.549   4.614   1.753
 2803TIP3    H2 8351   7.682   4.667   1.703
 2804TIP3   OH2 8352   2.849   5.492   3.472
 2804TIP3    H1 8353   2.780   5.444   3.426
 2804TIP3    H2 8354   2.922   5.492   3.410
 2805TIP3   OH2 8355   4.591   1.079   2.611
 2805TIP3    H1 8356   4.602   0.990   2.575
 2805TIP3    H2 8357   4.564   1.132   2.536
 2806TIP3   OH2 8358   5.466   4.640   0.725
 2806TIP3    H1 8359   5.553   4.619   0.692
 2806TIP3    H2 8360   5.407   4.588   0.670
 2807TIP3   OH2 8361   8.017   3.305   5.183
 2807TIP3    H1 8362   7.947   3.251   5.145
 2807TIP3    H2 8363   8.026   3.272   5.272
 2808TIP3   OH2 8364   5.799   5.099   2.708
 2808TIP3    H1 8365   5.779   5.051   2.788
 2808TIP3    H2 8366   5.851   5.174   2.737
 2809TIP3   OH2 8367   7.181   0.153   2.723
 2809TIP3    H1 8368   7.219   0.076   2.765
 2809TIP3    H2 8369   7.236   0.167   2.645
 2810TIP3   OH2 8370   1.478   4.083   4.620
 2810TIP3    H1 8371   1.508   4.032   4.545
 2810TIP3    H2 8372   1.431   4.157   4.582
 2811TIP3   OH2 8373   1.092   7.137   2.232
 2811TIP3    H1 8374   1.096   7.188   2.313
 2811TIP3    H2 8375   1.080   7.047   2.261
 2812TIP3   OH2 8376   7.364   1.560   5.976
 2812TIP3    H1 8377   7.396   1.471   5.995
 2812TIP3    H2 8378   7.315   1.585   6.054
 2813TIP3   OH2 8379   1.254   3.916   0.628
 2813TIP3    H1 8380   1.230   3.884   0.715
 2813TIP3    H2 8381   1.332   3.969   0.643
 2814TIP3   OH2 8382   6.406   7.551   2.283
 2814TIP3    H1 8383   6.316   7.544   2.251
 2814TIP3    H2 8384   6.419   7.473   2.337
 2815TIP3   OH2 8385   2.652   2.952   2.826
 2815TIP3    H1 8386   2.664   3.019   2.894
 2815TIP3    H2 8387   2.591   2.992   2.764
 2816TIP3   OH2 8388   0.792   1.366   5.508
 2816TIP3    H1 8389   0.708   1.357   5.462
 2816TIP3    H2 8390   0.831   1.445   5.471
 2817TIP3   OH2 8391   4.645   0.058   0.875
 2817TIP3    H1 8392   4.714   0.073   0.811
 2817TIP3    H2 8393   4.668  -0.026   0.916
 2818TIP3   OH2 8394   1.542   1.400   3.337
 2818TIP3    H1 8395   1.630   1.369   3.317
 2818TIP3    H2 8396   1.492   1.320   3.354
 2819TIP3   OH2 8397   8.326   4.742   3.183
 2819TIP3    H1 8398   8.231   4.727   3.185
 2819TIP3    H2 8399   8.355   4.717   3.271
 2820TIP3   OH2 8400   7.202   3.333   3.159
 2820TIP3    H1 8401   7.117   3.290   3.147
 2820TIP3    H2 8402   7.213   3.385   3.079
 2821TIP3   OH2 8403   1.473   6.839   6.602
 2821TIP3    H1 8404   1.388   6.861   6.562
 2821TIP3    H2 8405   1.525   6.919   6.592
 2822TIP3   OH2 8406   1.853   0.265   5.998
 2822TIP3    H1 8407   1.812   0.211   6.066
 2822TIP3    H2 8408   1.924   0.210   5.964
 2823TIP3   OH2 8409   1.749   4.912   4.358
 2823TIP3    H1 8410   1.823   4.941   4.306
 2823TIP3    H2 8411   1.786   4.849   4.420
 2824TIP3   OH2 8412   1.033   2.050   0.953
 2824TIP3    H1 8413   0.991   2.087   1.031
 2824TIP3    H2 8414   0.992   2.096   0.880
 2825TIP3   OH2 8415   6.174   3.668   5.195
 2825TIP3    H1 8416   6.125   3.587   5.184
 2825TIP3    H2 8417   6.107   3.735   5.208
 2826TIP3   OH2 8418   8.095   0.557   6.757
 2826TIP3    H1 8419   8.112   0.548   6.663
 2826TIP3    H2 8420   8.050   0.476   6.781
 2827TIP3   OH2 8421   2.051   2.712   2.458
 2827TIP3    H1 8422   2.057   2.789   2.401
 2827TIP3    H2 8423   2.135   2.709   2.503
 2828TIP3   OH2 8424   4.491   5.014   4.623
 2828TIP3    H1 8425   4.492   4.986   4.715
 2828TIP3    H2 8426   4.561   5.079   4.617
 2829TIP3   OH2 8427   5.540   2.004   2.133
 2829TIP3    H1 8428   5.589   2.086   2.128
 2829TIP3    H2 8429   5.500   2.005   2.220
 2830TIP3   OH2 8430   4.065   6.904   4.305
 2830TIP3    H1 8431   4.048   6.850   4.227
 2830TIP3    H2 8432   4.160   6.905   4.313
 2831TIP3   OH2 8433   4.203   0.098   4.648
 2831TIP3    H1 8434   4.222   0.095   4.742
 2831TIP3    H2 8435   4.124   0.046   4.638
 2832TIP3   OH2 8436   0.013   1.837   4.887
 2832TIP3    H1 8437   0.007   1.868   4.797
 2832TIP3    H2 8438   0.072   1.899   4.930
 2833TIP3   OH2 8439   5.235   6.248   0.890
 2833TIP3    H1 8440   5.224   6.219   0.981
 2833TIP3    H2 8441   5.325   6.224   0.868
 2834TIP3   OH2 8442   1.996   5.413   2.238
 2834TIP3    H1 8443   2.070   5.410   2.299
 2834TIP3    H2 8444   1.932   5.471   2.280
 2835TIP3   OH2 8445   2.968   2.132   1.045
 2835TIP3    H1 8446   2.954   2.216   1.090
 2835TIP3    H2 8447   3.034   2.151   0.979
 2836TIP3   OH2 8448   7.250   4.203   1.029
 2836TIP3    H1 8449   7.195   4.155   0.967
 2836TIP3    H2 8450   7.307   4.256   0.974
 2837TIP3   OH2 8451   5.064   5.051   4.293
 2837TIP3    H1 8452   5.155   5.027   4.275
 2837TIP3    H2 8453   5.063   5.071   4.386
 2838TIP3   OH2 8454   2.541   2.946   1.546
 2838TIP3    H1 8455   2.446   2.945   1.551
 2838TIP3    H2 8456   2.566   2.855   1.534
 2839TIP3   OH2 8457   5.060   7.238   3.913
 2839TIP3    H1 8458   4.992   7.246   3.846
 2839TIP3    H2 8459   5.123   7.307   3.892
 2840TIP3   OH2 8460   0.871   5.063   4.980
 2840TIP3    H1 8461   0.891   5.097   4.893
 2840TIP3    H2 8462   0.928   4.986   4.989
 2841TIP3   OH2 8463   8.305   1.905   6.847
 2841TIP3    H1 8464   8.333   1.814   6.852
 2841TIP3    H2 8465   8.214   1.900   6.817
 2842TIP3   OH2 8466   8.143   1.866   1.530
 2842TIP3    H1 8467   8.140   1.784   1.481
 2842TIP3    H2 8468   8.067   1.862   1.588
 2843TIP3   OH2 8469   5.356   2.499   2.163
 2843TIP3    H1 8470   5.377   2.528   2.252
 2843TIP3    H2 8471   5.337   2.580   2.116
 2844TIP3   OH2 8472   5.544   7.657   6.231
 2844TIP3    H1 8473   5.458   7.616   6.242
 2844TIP3    H2 8474   5.605   7.584   6.220
 2845TIP3   OH2 8475   6.953   5.342   5.610
 2845TIP3    H1 8476   6.883   5.302   5.558
 2845TIP3    H2 8477   7.012   5.269   5.630
 2846TIP3   OH2 8478   1.362   0.843   6.362
 2846TIP3    H1 8479   1.343   0.775   6.426
 2846TIP3    H2 8480   1.458   0.844   6.356
 2847TIP3   OH2 8481   4.388   1.010   1.679
 2847TIP3    H1 8482   4.415   0.988   1.769
 2847TIP3    H2 8483   4.422   0.938   1.626
 2848TIP3   OH2 8484   5.447   7.411   4.887
 2848TIP3    H1 8485   5.450   7.507   4.881
 2848TIP3    H2 8486   5.404   7.384   4.806
 2849TIP3   OH2 8487   3.801   0.854   2.718
 2849TIP3    H1 8488   3.826   0.946   2.705
 2849TIP3    H2 8489   3.875   0.804   2.685
 2850TIP3   OH2 8490   3.298   0.545   2.392
 2850TIP3    H1 8491   3.246   0.522   2.316
 2850TIP3    H2 8492   3.240   0.600   2.446
 2851TIP3   OH2 8493   0.722   7.624   2.449
 2851TIP3    H1 8494   0.716   7.528   2.452
 2851TIP3    H2 8495   0.798   7.641   2.393
 2852TIP3   OH2 8496   4.209   4.889   2.968
 2852TIP3    H1 8497   4.135   4.891   3.030
 2852TIP3    H2 8498   4.253   4.806   2.987
 2853TIP3   OH2 8499   1.734   4.968   5.145
 2853TIP3    H1 8500   1.710   4.899   5.084
 2853TIP3    H2 8501   1.830   4.972   5.141
 2854TIP3   OH2 8502   0.832   0.031   3.215
 2854TIP3    H1 8503   0.900   0.066   3.272
 2854TIP3    H2 8504   0.791   0.108   3.176
 2855TIP3   OH2 8505   2.122   6.948   6.093
 2855TIP3    H1 8506   2.084   6.924   6.177
 2855TIP3    H2 8507   2.109   6.871   6.038
 2856TIP3   OH2 8508   8.027   1.588   6.006
 2856TIP3    H1 8509   8.063   1.543   6.082
 2856TIP3    H2 8510   7.938   1.554   5.997
 2857TIP3   OH2 8511   6.875   6.933   6.318
 2857TIP3    H1 8512   6.916   6.878   6.385
 2857TIP3    H2 8513   6.783   6.906   6.316
 2858TIP3   OH2 8514   6.824   3.745   6.174
 2858TIP3    H1 8515   6.740   3.790   6.184
 2858TIP3    H2 8516   6.885   3.814   6.149
 2859TIP3   OH2 8517   8.003   6.436   1.821
 2859TIP3    H1 8518   7.936   6.482   1.771
 2859TIP3    H2 8519   8.020   6.356   1.771
 2860TIP3   OH2 8520   3.263   2.392   6.713
 2860TIP3    H1 8521   3.231   2.388   6.623
 2860TIP3    H2 8522   3.285   2.301   6.734
 2861TIP3   OH2 8523   7.863   2.585   2.345
 2861TIP3    H1 8524   7.883   2.673   2.314
 2861TIP3    H2 8525   7.807   2.600   2.422
 2862TIP3   OH2 8526   3.599   3.514   6.809
 2862TIP3    H1 8527   3.593   3.467   6.726
 2862TIP3    H2 8528   3.509   3.541   6.828
 2863TIP3   OH2 8529   6.718   5.441   3.224
 2863TIP3    H1 8530   6.809   5.414   3.210
 2863TIP3    H2 8531   6.669   5.399   3.153
 2864TIP3   OH2 8532   4.833   6.277   3.416
 2864TIP3    H1 8533   4.781   6.201   3.387
 2864TIP3    H2 8534   4.922   6.257   3.387
 2865TIP3   OH2 8535   4.038   3.162   5.395
 2865TIP3    H1 8536   4.005   3.116   5.473
 2865TIP3    H2 8537   3.961   3.172   5.339
 2866TIP3   OH2 8538   6.226   0.310   1.094
 2866TIP3    H1 8539   6.304   0.364   1.103
 2866TIP3    H2 8540   6.260   0.223   1.072
 2867TIP3   OH2 8541   6.490   7.086   1.662
 2867TIP3    H1 8542   6.505   7.162   1.719
 2867TIP3    H2 8543   6.573   7.039   1.663
 2868TIP3   OH2 8544   6.879   7.844   0.904
 2868TIP3    H1 8545   6.885   7.904   0.830
 2868TIP3    H2 8546   6.963   7.851   0.949
 2869TIP3   OH2 8547   5.386   0.267   1.361
 2869TIP3    H1 8548   5.309   0.279   1.417
 2869TIP3    H2 8549   5.355   0.294   1.274
 2870TIP3   OH2 8550   1.705   2.283   0.384
 2870TIP3    H1 8551   1.641   2.223   0.346
 2870TIP3    H2 8552   1.667   2.370   0.369
 2871TIP3   OH2 8553   8.417   4.500   5.526
 2871TIP3    H1 8554   8.424   4.533   5.437
 2871TIP3    H2 8555   8.326   4.516   5.551
 2872TIP3   OH2 8556   2.881   1.531   0.445
 2872TIP3    H1 8557   2.910   1.516   0.355
 2872TIP3    H2 8558   2.919   1.459   0.495
 2873TIP3   OH2 8559   6.799   5.917   1.950
 2873TIP3    H1 8560   6.754   6.000   1.932
 2873TIP3    H2 8561   6.888   5.931   1.920
 2874TIP3   OH2 8562   6.164   4.476   5.766
 2874TIP3    H1 8563   6.157   4.381   5.773
 2874TIP3    H2 8564   6.114   4.509   5.840
 2875TIP3   OH2 8565   3.258   6.144   1.353
 2875TIP3    H1 8566   3.183   6.104   1.397
 2875TIP3    H2 8567   3.335   6.107   1.398
 2876TIP3   OH2 8568   1.529   1.168   5.756
 2876TIP3    H1 8569   1.438   1.196   5.745
 2876TIP3    H2 8570   1.537   1.151   5.850
 2877TIP3   OH2 8571   6.809   5.506   2.032
 2877TIP3    H1 8572   6.808   5.411   2.044
 2877TIP3    H2 8573   6.854   5.519   1.948
 2878TIP3   OH2 8574   6.577   2.435   2.651
 2878TIP3    H1 8575   6.603   2.512   2.601
 2878TIP3    H2 8576   6.655   2.411   2.700
 2879TIP3   OH2 8577   7.740   7.209   2.201
 2879TIP3    H1 8578   7.693   7.155   2.264
 2879TIP3    H2 8579   7.817   7.240   2.248
 2880TIP3   OH2 8580   3.304   6.247   5.815
 2880TIP3    H1 8581   3.262   6.297   5.745
 2880TIP3    H2 8582   3.366   6.308   5.855
 2881TIP3   OH2 8583   2.107   2.995   2.499
 2881TIP3    H1 8584   2.132   2.977   2.589
 2881TIP3    H2 8585   2.189   2.995   2.450
 2882TIP3   OH2 8586   6.805   3.163   4.504
 2882TIP3    H1 8587   6.840   3.075   4.492
 2882TIP3    H2 8588   6.719   3.160   4.461
 2883TIP3   OH2 8589   6.814   1.910   4.261
 2883TIP3    H1 8590   6.769   1.923   4.345
 2883TIP3    H2 8591   6.905   1.929   4.280
 2884TIP3   OH2 8592   6.669   3.473   3.417
 2884TIP3    H1 8593   6.738   3.419   3.380
 2884TIP3    H2 8594   6.672   3.555   3.367
 2885TIP3   OH2 8595   4.994   7.022   5.603
 2885TIP3    H1 8596   4.940   7.095   5.572
 2885TIP3    H2 8597   5.049   6.999   5.528
 2886TIP3   OH2 8598   2.925   2.639   6.220
 2886TIP3    H1 8599   2.876   2.718   6.242
 2886TIP3    H2 8600   2.994   2.633   6.286
 2887TIP3   OH2 8601   0.609   5.138   0.104
 2887TIP3    H1 8602   0.622   5.043   0.095
 2887TIP3    H2 8603   0.543   5.160   0.038
 2888TIP3   OH2 8604   6.440   2.189   4.312
 2888TIP3    H1 8605   6.387   2.155   4.240
 2888TIP3    H2 8606   6.407   2.144   4.390
 2889TIP3   OH2 8607   1.340   2.598   1.116
 2889TIP3    H1 8608   1.378   2.528   1.169
 2889TIP3    H2 8609   1.333   2.672   1.176
 2890TIP3   OH2 8610   1.378   6.510   3.245
 2890TIP3    H1 8611   1.342   6.594   3.217
 2890TIP3    H2 8612   1.306   6.466   3.291
 2891TIP3   OH2 8613   6.188   2.686   2.849
 2891TIP3    H1 8614   6.130   2.651   2.781
 2891TIP3    H2 8615   6.267   2.632   2.843
 2892TIP3   OH2 8616   8.343   4.264   4.628
 2892TIP3    H1 8617   8.247   4.256   4.630
 2892TIP3    H2 8618   8.371   4.227   4.712
 2893TIP3   OH2 8619   4.621   4.501   3.472
 2893TIP3    H1 8620   4.633   4.537   3.384
 2893TIP3    H2 8621   4.569   4.422   3.458
 2894TIP3   OH2 8622   7.416   0.603   3.038
 2894TIP3    H1 8623   7.370   0.674   3.082
 2894TIP3    H2 8624   7.500   0.597   3.082
 2895TIP3   OH2 8625   2.121   3.517   0.911
 2895TIP3    H1 8626   2.057   3.447   0.923
 2895TIP3    H2 8627   2.176   3.513   0.989
 2896TIP3   OH2 8628   5.940   7.748   5.019
 2896TIP3    H1 8629   5.955   7.668   5.070
 2896TIP3    H2 8630   5.907   7.717   4.935
 2897TIP3   OH2 8631   3.279   1.659   2.585
 2897TIP3    H1 8632   3.283   1.753   2.606
 2897TIP3    H2 8633   3.331   1.650   2.506
 2898TIP3   OH2 8634   0.371   4.655   1.484
 2898TIP3    H1 8635   0.418   4.572   1.496
 2898TIP3    H2 8636   0.296   4.649   1.544
 2899TIP3   OH2 8637   2.119   0.285   6.591
 2899TIP3    H1 8638   2.119   0.308   6.498
 2899TIP3    H2 8639   2.212   0.279   6.614
 2900TIP3   OH2 8640   1.302   0.427   3.632
 2900TIP3    H1 8641   1.314   0.522   3.642
 2900TIP3    H2 8642   1.207   0.416   3.626
 2901TIP3   OH2 8643   6.034   3.529   6.155
 2901TIP3    H1 8644   6.084   3.452   6.184
 2901TIP3    H2 8645   5.948   3.494   6.131
 2902TIP3   OH2 8646   5.721   2.986   6.754
 2902TIP3    H1 8647   5.693   3.024   6.671
 2902TIP3    H2 8648   5.786   3.048   6.788
 2903TIP3   OH2 8649   4.275   3.643   5.262
 2903TIP3    H1 8650   4.369   3.638   5.279
 2903TIP3    H2 8651   4.254   3.560   5.220
 2904TIP3   OH2 8652   3.710   2.957   3.425
 2904TIP3    H1 8653   3.747   3.025   3.369
 2904TIP3    H2 8654   3.760   2.878   3.404
 2905TIP3   OH2 8655   1.398   5.744   5.155
 2905TIP3    H1 8656   1.407   5.816   5.217
 2905TIP3    H2 8657   1.307   5.716   5.164
 2906TIP3   OH2 8658   6.380   1.407   6.041
 2906TIP3    H1 8659   6.406   1.387   5.951
 2906TIP3    H2 8660   6.462   1.430   6.085
 2907TIP3   OH2 8661   2.618   4.369   5.836
 2907TIP3    H1 8662   2.617   4.459   5.871
 2907TIP3    H2 8663   2.527   4.341   5.837
 2908TIP3   OH2 8664   1.169   4.537   1.095
 2908TIP3    H1 8665   1.076   4.526   1.075
 2908TIP3    H2 8666   1.194   4.618   1.050
 2909TIP3   OH2 8667   5.741   1.422   6.671
 2909TIP3    H1 8668   5.835   1.414   6.653
 2909TIP3    H2 8669   5.736   1.469   6.754
 2910TIP3   OH2 8670   2.297   2.113   2.806
 2910TIP3    H1 8671   2.234   2.161   2.860
 2910TIP3    H2 8672   2.281   2.021   2.828
 2911TIP3   OH2 8673   3.922   4.228   0.378
 2911TIP3    H1 8674   3.867   4.208   0.454
 2911TIP3    H2 8675   3.973   4.148   0.365
 2912TIP3   OH2 8676   5.475   1.550   6.791
 2912TIP3    H1 8677   5.500   1.518   6.877
 2912TIP3    H2 8678   5.472   1.472   6.736
 2913TIP3   OH2 8679   4.763   3.581   6.531
 2913TIP3    H1 8680   4.748   3.624   6.616
 2913TIP3    H2 8681   4.743   3.648   6.466
 2914TIP3   OH2 8682   1.405   7.350   2.201
 2914TIP3    H1 8683   1.356   7.431   2.186
 2914TIP3    H2 8684   1.358   7.306   2.272
 2915TIP3   OH2 8685   8.155   3.928   2.250
 2915TIP3    H1 8686   8.169   3.918   2.156
 2915TIP3    H2 8687   8.144   4.022   2.262
 2916TIP3   OH2 8688   6.958   2.755   2.034
 2916TIP3    H1 8689   6.947   2.720   2.123
 2916TIP3    H2 8690   6.912   2.693   1.978
 2917TIP3   OH2 8691   0.517   4.474   5.119
 2917TIP3    H1 8692   0.442   4.416   5.128
 2917TIP3    H2 8693   0.494   4.534   5.048
 2918TIP3   OH2 8694   6.226   6.210   1.056
 2918TIP3    H1 8695   6.314   6.229   1.089
 2918TIP3    H2 8696   6.173   6.202   1.135
 2919TIP3   OH2 8697   7.057   6.174   1.062
 2919TIP3    H1 8698   7.103   6.171   1.146
 2919TIP3    H2 8699   7.034   6.083   1.045
 2920TIP3   OH2 8700   3.756   5.117   6.736
 2920TIP3    H1 8701   3.683   5.136   6.677
 2920TIP3    H2 8702   3.823   5.079   6.678
 2921TIP3   OH2 8703   2.705   4.673   3.413
 2921TIP3    H1 8704   2.745   4.678   3.326
 2921TIP3    H2 8705   2.698   4.579   3.430
 2922TIP3   OH2 8706   3.154   1.680   3.967
 2922TIP3    H1 8707   3.248   1.677   3.949
 2922TIP3    H2 8708   3.124   1.761   3.925
 2923TIP3   OH2 8709   0.804   3.168   1.055
 2923TIP3    H1 8710   0.855   3.190   1.133
 2923TIP3    H2 8711   0.728   3.226   1.058
 2924TIP3   OH2 8712   5.351   3.308   0.814
 2924TIP3    H1 8713   5.362   3.345   0.726
 2924TIP3    H2 8714   5.368   3.215   0.803
 2925TIP3   OH2 8715   5.053   7.850   3.090
 2925TIP3    H1 8716   5.108   7.796   3.034
 2925TIP3    H2 8717   5.063   7.939   3.057
 2926TIP3   OH2 8718   8.309   2.386   3.583
 2926TIP3    H1 8719   8.322   2.292   3.570
 2926TIP3    H2 8720   8.224   2.392   3.627
 2927TIP3   OH2 8721   4.387   6.397   1.252
 2927TIP3    H1 8722   4.459   6.395   1.189
 2927TIP3    H2 8723   4.385   6.488   1.284
 2928TIP3   OH2 8724   8.363   0.283   1.225
 2928TIP3    H1 8725   8.297   0.214   1.212
 2928TIP3    H2 8726   8.424   0.246   1.288
 2929TIP3   OH2 8727   2.558   4.251   4.814
 2929TIP3    H1 8728   2.542   4.333   4.767
 2929TIP3    H2 8729   2.471   4.217   4.834
 2930TIP3   OH2 8730   5.472   1.295   6.688
 2930TIP3    H1 8731   5.462   1.201   6.675
 2930TIP3    H2 8732   5.563   1.307   6.714
 2931TIP3   OH2 8733   7.352   5.654   1.315
 2931TIP3    H1 8734   7.422   5.681   1.374
 2931TIP3    H2 8735   7.398   5.611   1.242
 2932TIP3   OH2 8736   2.169   2.836   4.469
 2932TIP3    H1 8737   2.243   2.787   4.434
 2932TIP3    H2 8738   2.109   2.845   4.396
 2933TIP3   OH2 8739   0.776   5.330   6.396
 2933TIP3    H1 8740   0.764   5.425   6.392
 2933TIP3    H2 8741   0.870   5.318   6.385
 2934TIP3   OH2 8742   3.797   1.128   2.731
 2934TIP3    H1 8743   3.736   1.200   2.749
 2934TIP3    H2 8744   3.883   1.164   2.753
 2935TIP3   OH2 8745   0.644   0.469   6.275
 2935TIP3    H1 8746   0.736   0.494   6.277
 2935TIP3    H2 8747   0.603   0.522   6.343
 2936TIP3   OH2 8748   3.829   1.063   4.432
 2936TIP3    H1 8749   3.760   1.003   4.460
 2936TIP3    H2 8750   3.784   1.126   4.376
 2937TIP3   OH2 8751   1.134   0.100   4.663
 2937TIP3    H1 8752   1.088   0.118   4.581
 2937TIP3    H2 8753   1.177   0.182   4.685
 2938TIP3   OH2 8754   1.465   4.895   2.773
 2938TIP3    H1 8755   1.545   4.934   2.737
 2938TIP3    H2 8756   1.496   4.820   2.823
 2939TIP3   OH2 8757   0.206   7.222   4.530
 2939TIP3    H1 8758   0.181   7.279   4.457
 2939TIP3    H2 8759   0.202   7.278   4.607
 2940TIP3   OH2 8760   1.988   7.357   5.410
 2940TIP3    H1 8761   2.035   7.406   5.342
 2940TIP3    H2 8762   1.971   7.421   5.479
 2941TIP3   OH2 8763   2.638   6.051   3.912
 2941TIP3    H1 8764   2.664   6.104   3.988
 2941TIP3    H2 8765   2.547   6.029   3.928
 2942TIP3   OH2 8766   5.245   4.686   5.501
 2942TIP3    H1 8767   5.291   4.695   5.584
 2942TIP3    H2 8768   5.250   4.593   5.479
 2943TIP3   OH2 8769   8.192   3.583   2.539
 2943TIP3    H1 8770   8.225   3.514   2.597
 2943TIP3    H2 8771   8.236   3.567   2.456
 2944TIP3   OH2 8772   5.943   4.698   5.786
 2944TIP3    H1 8773   5.980   4.726   5.870
 2944TIP3    H2 8774   5.935   4.779   5.736
 2945TIP3   OH2 8775   0.308   4.658   2.728
 2945TIP3    H1 8776   0.220   4.620   2.722
 2945TIP3    H2 8777   0.296   4.740   2.776
 2946TIP3   OH2 8778   5.401   5.977   2.835
 2946TIP3    H1 8779   5.461   6.017   2.772
 2946TIP3    H2 8780   5.400   6.037   2.910
 2947TIP3   OH2 8781   7.943   7.281   5.775
 2947TIP3    H1 8782   8.013   7.345   5.760
 2947TIP3    H2 8783   7.867   7.334   5.798
 2948TIP3   OH2 8784   5.840   0.317   2.848
 2948TIP3    H1 8785   5.912   0.378   2.865
 2948TIP3    H2 8786   5.773   0.339   2.913
 2949TIP3   OH2 8787   6.213   0.178   1.830
 2949TIP3    H1 8788   6.195   0.084   1.819
 2949TIP3    H2 8789   6.236   0.209   1.743
 2950TIP3   OH2 8790   1.593   2.316   2.009
 2950TIP3    H1 8791   1.543   2.367   2.073
 2950TIP3    H2 8792   1.683   2.318   2.041
 2951TIP3   OH2 8793   6.902   6.381   2.132
 2951TIP3    H1 8794   6.863   6.384   2.045
 2951TIP3    H2 8795   6.915   6.288   2.150
 2952TIP3   OH2 8796   3.813   7.775   0.129
 2952TIP3    H1 8797   3.843   7.725   0.053
 2952TIP3    H2 8798   3.815   7.712   0.201
 2953TIP3   OH2 8799   6.630   4.973   1.931
 2953TIP3    H1 8800   6.694   4.997   1.999
 2953TIP3    H2 8801   6.672   5.000   1.849
 2954TIP3   OH2 8802   7.608   1.327   2.884
 2954TIP3    H1 8803   7.587   1.400   2.941
 2954TIP3    H2 8804   7.680   1.281   2.928
 2955TIP3   OH2 8805   7.460   0.966   6.544
 2955TIP3    H1 8806   7.509   0.924   6.614
 2955TIP3    H2 8807   7.422   1.044   6.585
 2956TIP3   OH2 8808   2.075   0.127   1.575
 2956TIP3    H1 8809   2.114   0.064   1.636
 2956TIP3    H2 8810   1.990   0.148   1.613
 2957TIP3   OH2 8811   5.683   6.850   0.167
 2957TIP3    H1 8812   5.778   6.845   0.179
 2957TIP3    H2 8813   5.649   6.770   0.206
 2958TIP3   OH2 8814   3.140   6.773   5.155
 2958TIP3    H1 8815   3.228   6.792   5.123
 2958TIP3    H2 8816   3.087   6.845   5.123
 2959TIP3   OH2 8817   5.785   5.281   6.709
 2959TIP3    H1 8818   5.703   5.329   6.720
 2959TIP3    H2 8819   5.822   5.278   6.797
 2960TIP3   OH2 8820   7.962   7.223   3.400
 2960TIP3    H1 8821   7.989   7.289   3.337
 2960TIP3    H2 8822   7.937   7.147   3.347
 2961TIP3   OH2 8823   1.351   6.980   2.111
 2961TIP3    H1 8824   1.262   6.946   2.108
 2961TIP3    H2 8825   1.347   7.055   2.170
 2962TIP3   OH2 8826   4.690   2.939   5.890
 2962TIP3    H1 8827   4.618   2.918   5.830
 2962TIP3    H2 8828   4.741   3.006   5.843
 2963TIP3   OH2 8829   7.066   5.879   1.755
 2963TIP3    H1 8830   7.119   5.950   1.718
 2963TIP3    H2 8831   7.047   5.822   1.681
 2964TIP3   OH2 8832   4.119   5.336   6.799
 2964TIP3    H1 8833   4.084   5.357   6.712
 2964TIP3    H2 8834   4.204   5.378   6.802
 2965TIP3   OH2 8835   1.222   2.099   4.436
 2965TIP3    H1 8836   1.173   2.027   4.476
 2965TIP3    H2 8837   1.252   2.064   4.352
 2966TIP3   OH2 8838   6.312   5.355   4.136
 2966TIP3    H1 8839   6.274   5.329   4.221
 2966TIP3    H2 8840   6.389   5.300   4.127
 2967TIP3   OH2 8841   5.747   7.698   1.858
 2967TIP3    H1 8842   5.780   7.670   1.773
 2967TIP3    H2 8843   5.801   7.652   1.922
 2968TIP3   OH2 8844   0.033   2.146   0.735
 2968TIP3    H1 8845   0.008   2.160   0.644
 2968TIP3    H2 8846   0.057   2.054   0.739
 2969TIP3   OH2 8847   0.486   0.722   3.028
 2969TIP3    H1 8848   0.576   0.727   2.995
 2969TIP3    H2 8849   0.485   0.781   3.104
 2970TIP3   OH2 8850   2.877   6.835   2.849
 2970TIP3    H1 8851   2.790   6.873   2.865
 2970TIP3    H2 8852   2.898   6.860   2.759
 2971TIP3   OH2 8853   3.184   6.549   2.568
 2971TIP3    H1 8854   3.123   6.526   2.639
 2971TIP3    H2 8855   3.259   6.492   2.582
 2972TIP3   OH2 8856   3.231   0.505   1.287
 2972TIP3    H1 8857   3.137   0.494   1.302
 2972TIP3    H2 8858   3.272   0.483   1.371
 2973TIP3   OH2 8859   5.287   6.118   1.143
 2973TIP3    H1 8860   5.303   6.098   1.235
 2973TIP3    H2 8861   5.370   6.098   1.100
 2974TIP3   OH2 8862   8.257   4.147   1.263
 2974TIP3    H1 8863   8.276   4.105   1.179
 2974TIP3    H2 8864   8.334   4.128   1.317
 2975TIP3   OH2 8865   8.192   4.112   2.973
 2975TIP3    H1 8866   8.114   4.128   2.919
 2975TIP3    H2 8867   8.264   4.149   2.922
 2976TIP3   OH2 8868   6.686   2.221   2.157
 2976TIP3    H1 8869   6.653   2.160   2.223
 2976TIP3    H2 8870   6.620   2.291   2.155
 2977TIP3   OH2 8871   3.400   7.756   3.745
 2977TIP3    H1 8872   3.484   7.749   3.701
 2977TIP3    H2 8873   3.413   7.825   3.811
 2978TIP3   OH2 8874   0.481   7.088   5.406
 2978TIP3    H1 8875   0.563   7.112   5.362
 2978TIP3    H2 8876   0.413   7.128   5.353
 2979TIP3   OH2 8877   1.676   6.101   5.182
 2979TIP3    H1 8878   1.759   6.060   5.207
 2979TIP3    H2 8879   1.619   6.089   5.259
 2980TIP3   OH2 8880   5.540   1.948   1.060
 2980TIP3    H1 8881   5.542   1.979   1.151
 2980TIP3    H2 8882   5.624   1.904   1.048
 2981TIP3   OH2 8883   2.744   5.621   1.603
 2981TIP3    H1 8884   2.765   5.712   1.582
 2981TIP3    H2 8885   2.795   5.569   1.541
 2982TIP3   OH2 8886   5.622   0.536   6.439
 2982TIP3    H1 8887   5.636   0.464   6.500
 2982TIP3    H2 8888   5.614   0.494   6.354
 2983TIP3   OH2 8889   4.734   6.058   6.784
 2983TIP3    H1 8890   4.640   6.040   6.780
 2983TIP3    H2 8891   4.771   6.007   6.712
 2984TIP3   OH2 8892   3.127   5.919   1.218
 2984TIP3    H1 8893   3.182   5.994   1.237
 2984TIP3    H2 8894   3.140   5.860   1.292
 2985TIP3   OH2 8895   3.899   4.786   4.861
 2985TIP3    H1 8896   3.804   4.780   4.847
 2985TIP3    H2 8897   3.916   4.880   4.870
 2986TIP3   OH2 8898   6.159   1.895   6.399
 2986TIP3    H1 8899   6.074   1.919   6.436
 2986TIP3    H2 8900   6.139   1.858   6.313
 2987TIP3   OH2 8901   6.191   0.414   4.544
 2987TIP3    H1 8902   6.202   0.408   4.639
 2987TIP3    H2 8903   6.173   0.324   4.516
 2988TIP3   OH2 8904   4.212   3.710   0.799
 2988TIP3    H1 8905   4.125   3.717   0.759
 2988TIP3    H2 8906   4.194   3.693   0.892
 2989TIP3   OH2 8907   4.316   7.247   2.639
 2989TIP3    H1 8908   4.265   7.189   2.696
 2989TIP3    H2 8909   4.399   7.201   2.626
 2990TIP3   OH2 8910   7.698   3.680   0.769
 2990TIP3    H1 8911   7.713   3.726   0.686
 2990TIP3    H2 8912   7.733   3.592   0.755
 2991TIP3   OH2 8913   7.176   6.665   4.687
 2991TIP3    H1 8914   7.239   6.711   4.743
 2991TIP3    H2 8915   7.091   6.688   4.723
 2992TIP3   OH2 8916   3.651   3.852   4.590
 2992TIP3    H1 8917   3.579   3.884   4.536
 2992TIP3    H2 8918   3.629   3.879   4.679
 2993TIP3   OH2 8919   6.297   7.491   4.040
 2993TIP3    H1 8920   6.230   7.527   3.982
 2993TIP3    H2 8921   6.378   7.536   4.014
 2994TIP3   OH2 8922   0.764   3.026   5.988
 2994TIP3    H1 8923   0.780   2.979   5.907
 2994TIP3    H2 8924   0.847   3.070   6.007
 2995TIP3   OH2 8925   4.661   7.362   1.309
 2995TIP3    H1 8926   4.623   7.368   1.397
 2995TIP3    H2 8927   4.613   7.426   1.257
 2996TIP3   OH2 8928   6.462   3.457   4.750
 2996TIP3    H1 8929   6.368   3.460   4.771
 2996TIP3    H2 8930   6.491   3.548   4.759
 2997TIP3   OH2 8931   5.560   5.265   4.916
 2997TIP3    H1 8932   5.588   5.266   4.824
 2997TIP3    H2 8933   5.465   5.269   4.912
 2998TIP3   OH2 8934   7.379   2.270   3.383
 2998TIP3    H1 8935   7.467   2.279   3.419
 2998TIP3    H2 8936   7.324   2.253   3.459
 2999TIP3   OH2 8937   4.894   3.563   0.651
 2999TIP3    H1 8938   4.963   3.621   0.622
 2999TIP3    H2 8939   4.813   3.607   0.627
 3000TIP3   OH2 8940   7.016   5.426   4.949
 3000TIP3    H1 8941   7.018   5.501   4.890
 3000TIP3    H2 8942   6.974   5.458   5.028
 3001TIP3   OH2 8943   4.849   4.636   0.147
 3001TIP3    H1 8944   4.759   4.617   0.174
 3001TIP3    H2 8945   4.843   4.718   0.098
 3002TIP3   OH2 8946   1.685   1.919   1.012
 3002TIP3    H1 8947   1.673   1.879   0.926
 3002TIP3    H2 8948   1.643   2.005   1.004
 3003TIP3   OH2 8949   1.671   1.340   2.334
 3003TIP3    H1 8950   1.668   1.433   2.312
 3003TIP3    H2 8951   1.764   1.320   2.345
 3004TIP3   OH2 8952   6.142   1.402   4.350
 3004TIP3    H1 8953   6.106   1.314   4.343
 3004TIP3    H2 8954   6.217   1.402   4.290
 3005TIP3   OH2 8955   2.989   2.223   5.973
 3005TIP3    H1 8956   2.958   2.153   6.030
 3005TIP3    H2 8957   3.066   2.258   6.017
 3006TIP3   OH2 8958   7.468   0.313   0.123
 3006TIP3    H1 8959   7.417   0.255   0.067
 3006TIP3    H2 8960   7.558   0.305   0.092
 3007TIP3   OH2 8961   6.749   7.607   5.108
 3007TIP3    H1 8962   6.692   7.535   5.082
 3007TIP3    H2 8963   6.734   7.675   5.042
 3008TIP3   OH2 8964   1.379   5.064   6.045
 3008TIP3    H1 8965   1.350   4.978   6.012
 3008TIP3    H2 8966   1.343   5.127   5.982
 3009TIP3   OH2 8967   0.306   5.352   2.560
 3009TIP3    H1 8968   0.239   5.418   2.540
 3009TIP3    H2 8969   0.320   5.361   2.655
 3010TIP3   OH2 8970   0.815   1.229   4.540
 3010TIP3    H1 8971   0.734   1.280   4.545
 3010TIP3    H2 8972   0.813   1.174   4.618
 3011TIP3   OH2 8973   5.514   3.219   3.991
 3011TIP3    H1 8974   5.574   3.281   3.950
 3011TIP3    H2 8975   5.506   3.148   3.928
 3012TIP3   OH2 8976   5.670   0.528   1.656
 3012TIP3    H1 8977   5.675   0.476   1.736
 3012TIP3    H2 8978   5.683   0.618   1.686
 3013TIP3   OH2 8979   4.970   4.622   4.542
 3013TIP3    H1 8980   4.887   4.575   4.547
 3013TIP3    H2 8981   4.983   4.658   4.629
 3014TIP3   OH2 8982   2.792   2.656   2.535
 3014TIP3    H1 8983   2.879   2.622   2.555
 3014TIP3    H2 8984   2.740   2.634   2.613
 3015TIP3   OH2 8985   6.117   4.711   1.630
 3015TIP3    H1 8986   6.050   4.696   1.696
 3015TIP3    H2 8987   6.167   4.630   1.627
 3016TIP3   OH2 8988   7.786   2.130   2.684
 3016TIP3    H1 8989   7.880   2.143   2.672
 3016TIP3    H2 8990   7.748   2.149   2.599
 3017TIP3   OH2 8991   7.046   7.843   0.140
 3017TIP3    H1 8992   7.031   7.859   0.233
 3017TIP3    H2 8993   7.088   7.757   0.138
 3018TIP3   OH2 8994   1.214   5.412   1.626
 3018TIP3    H1 8995   1.124   5.440   1.609
 3018TIP3    H2 8996   1.254   5.486   1.672
 3019TIP3   OH2 8997   0.432   7.055   1.648
 3019TIP3    H1 8998   0.374   7.117   1.604
 3019TIP3    H2 8999   0.409   6.970   1.610
 3020TIP3   OH2 9000   4.876   5.161   2.031
 3020TIP3    H1 9001   4.863   5.237   1.973
 3020TIP3    H2 9002   4.800   5.105   2.014
 3021TIP3   OH2 9003   1.523   5.158   5.643
 3021TIP3    H1 9004   1.442   5.108   5.646
 3021TIP3    H2 9005   1.587   5.099   5.604
 3022TIP3   OH2 9006   4.550   5.908   2.562
 3022TIP3    H1 9007   4.616   5.898   2.494
 3022TIP3    H2 9008   4.485   5.968   2.524
 3023TIP3   OH2 9009   1.231   0.532   4.887
 3023TIP3    H1 9010   1.311   0.546   4.836
 3023TIP3    H2 9011   1.174   0.604   4.862
 3024TIP3   OH2 9012   7.323   6.606   2.637
 3024TIP3    H1 9013   7.296   6.655   2.715
 3024TIP3    H2 9014   7.413   6.579   2.656
 3025TIP3   OH2 9015   7.678   5.907   0.700
 3025TIP3    H1 9016   7.705   5.817   0.682
 3025TIP3    H2 9017   7.749   5.961   0.666
 3026TIP3   OH2 9018   7.164   4.327   1.276
 3026TIP3    H1 9019   7.192   4.296   1.190
 3026TIP3    H2 9020   7.193   4.419   1.278
 3027TIP3   OH2 9021   0.928   5.570   1.527
 3027TIP3    H1 9022   0.853   5.528   1.486
 3027TIP3    H2 9023   0.892   5.650   1.567
 3028TIP3   OH2 9024   6.767   0.611   6.524
 3028TIP3    H1 9025   6.832   0.670   6.486
 3028TIP3    H2 9026   6.731   0.565   6.448
 3029TIP3   OH2 9027   4.311   3.468   1.674
 3029TIP3    H1 9028   4.245   3.454   1.742
 3029TIP3    H2 9029   4.270   3.433   1.595
 3030TIP3   OH2 9030   1.548   6.336   5.750
 3030TIP3    H1 9031   1.548   6.326   5.655
 3030TIP3    H2 9032   1.556   6.430   5.765
 3031TIP3   OH2 9033   7.932   6.771   2.354
 3031TIP3    H1 9034   7.948   6.849   2.300
 3031TIP3    H2 9035   8.014   6.759   2.403
 3032TIP3   OH2 9036   3.887   3.407   1.833
 3032TIP3    H1 9037   3.812   3.365   1.790
 3032TIP3    H2 9038   3.853   3.439   1.917
 3033TIP3   OH2 9039   7.390   1.141   4.057
 3033TIP3    H1 9040   7.445   1.065   4.077
 3033TIP3    H2 9041   7.404   1.156   3.964
 3034TIP3   OH2 9042   2.410   2.436   6.399
 3034TIP3    H1 9043   2.316   2.455   6.407
 3034TIP3    H2 9044   2.453   2.520   6.415
 3035TIP3   OH2 9045   5.630   5.068   5.070
 3035TIP3    H1 9046   5.718   5.037   5.047
 3035TIP3    H2 9047   5.620   5.150   5.021
 3036TIP3   OH2 9048   7.439   5.274   6.151
 3036TIP3    H1 9049   7.433   5.256   6.058
 3036TIP3    H2 9050   7.367   5.223   6.190
 3037TIP3   OH2 9051   4.899   2.450   6.345
 3037TIP3    H1 9052   4.975   2.501   6.371
 3037TIP3    H2 9053   4.848   2.509   6.290
 3038TIP3   OH2 9054   5.148   5.936   2.250
 3038TIP3    H1 9055   5.167   5.900   2.337
 3038TIP3    H2 9056   5.196   6.019   2.249
 3039TIP3   OH2 9057   4.196   4.029   3.741
 3039TIP3    H1 9058   4.277   4.079   3.750
 3039TIP3    H2 9059   4.224   3.938   3.753
 3040TIP3   OH2 9060   2.798   6.587   2.424
 3040TIP3    H1 9061   2.725   6.640   2.394
 3040TIP3    H2 9062   2.851   6.646   2.477
 3041TIP3   OH2 9063   4.877   3.446   6.287
 3041TIP3    H1 9064   4.796   3.433   6.238
 3041TIP3    H2 9065   4.849   3.487   6.369
 3042TIP3   OH2 9066   5.498   6.422   1.549
 3042TIP3    H1 9067   5.538   6.502   1.581
 3042TIP3    H2 9068   5.425   6.406   1.609
 3043TIP3   OH2 9069   1.599   5.726   2.710
 3043TIP3    H1 9070   1.567   5.782   2.639
 3043TIP3    H2 9071   1.679   5.687   2.676
 3044TIP3   OH2 9072   0.087   4.180   3.397
 3044TIP3    H1 9073   0.118   4.092   3.380
 3044TIP3    H2 9074   0.015   4.193   3.336
 3045TIP3   OH2 9075   6.828   1.549   6.521
 3045TIP3    H1 9076   6.806   1.551   6.614
 3045TIP3    H2 9077   6.923   1.559   6.518
 3046TIP3   OH2 9078   3.411   4.368   3.683
 3046TIP3    H1 9079   3.465   4.344   3.608
 3046TIP3    H2 9080   3.355   4.439   3.651
 3047TIP3   OH2 9081   7.674   7.655   0.912
 3047TIP3    H1 9082   7.723   7.728   0.874
 3047TIP3    H2 9083   7.712   7.644   0.999
 3048TIP3   OH2 9084   0.784   2.874   6.650
 3048TIP3    H1 9085   0.827   2.945   6.697
 3048TIP3    H2 9086   0.792   2.798   6.708
 3049TIP3   OH2 9087   0.236   7.252   1.601
 3049TIP3    H1 9088   0.183   7.241   1.522
 3049TIP3    H2 9089   0.199   7.330   1.643
 3050TIP3   OH2 9090   6.937   7.529   0.372
 3050TIP3    H1 9091   7.024   7.542   0.334
 3050TIP3    H2 9092   6.905   7.448   0.332
 3051TIP3   OH2 9093   3.940   1.438   5.651
 3051TIP3    H1 9094   3.886   1.463   5.576
 3051TIP3    H2 9095   3.880   1.439   5.726
 3052TIP3   OH2 9096   1.305   4.169   2.406
 3052TIP3    H1 9097   1.283   4.211   2.489
 3052TIP3    H2 9098   1.306   4.240   2.342
 3053TIP3   OH2 9099   2.415   1.771   6.162
 3053TIP3    H1 9100   2.406   1.676   6.155
 3053TIP3    H2 9101   2.471   1.784   6.238
 3054TIP3   OH2 9102   3.145   1.442   2.661
 3054TIP3    H1 9103   3.196   1.520   2.638
 3054TIP3    H2 9104   3.104   1.416   2.579
 3055TIP3   OH2 9105   7.562   2.810   0.416
 3055TIP3    H1 9106   7.587   2.751   0.345
 3055TIP3    H2 9107   7.566   2.898   0.378
 3056TIP3   OH2 9108   4.125   7.334   5.817
 3056TIP3    H1 9109   4.186   7.283   5.869
 3056TIP3    H2 9110   4.149   7.314   5.726
 3057TIP3   OH2 9111   5.827   0.810   0.062
 3057TIP3    H1 9112   5.736   0.797   0.087
 3057TIP3    H2 9113   5.877   0.760   0.126
 3058TIP3   OH2 9114   0.717   5.493   3.745
 3058TIP3    H1 9115   0.640   5.443   3.721
 3058TIP3    H2 9116   0.683   5.579   3.771
 3059TIP3   OH2 9117   1.143   4.463   6.856
 3059TIP3    H1 9118   1.198   4.400   6.901
 3059TIP3    H2 9119   1.197   4.496   6.784
 3060TIP3   OH2 9120   4.555   4.126   5.870
 3060TIP3    H1 9121   4.586   4.086   5.951
 3060TIP3    H2 9122   4.460   4.133   5.881
 3061TIP3   OH2 9123   6.312   4.547   4.540
 3061TIP3    H1 9124   6.325   4.464   4.587
 3061TIP3    H2 9125   6.262   4.601   4.601
 3062TIP3   OH2 9126   2.539   4.872   3.376
 3062TIP3    H1 9127   2.598   4.905   3.308
 3062TIP3    H2 9128   2.570   4.783   3.394
 3063TIP3   OH2 9129   4.562   7.809   4.778
 3063TIP3    H1 9130   4.507   7.817   4.856
 3063TIP3    H2 9131   4.500   7.816   4.705
 3064TIP3   OH2 9132   6.007   1.063   5.745
 3064TIP3    H1 9133   5.989   1.061   5.839
 3064TIP3    H2 9134   6.062   0.986   5.730
 3065TIP3   OH2 9135   6.637   0.379   3.794
 3065TIP3    H1 9136   6.632   0.410   3.884
 3065TIP3    H2 9137   6.549   0.349   3.774
 3066TIP3   OH2 9138   4.061   3.408   5.787
 3066TIP3    H1 9139   4.122   3.374   5.853
 3066TIP3    H2 9140   4.099   3.380   5.704
 3067TIP3   OH2 9141   0.317   1.926   2.619
 3067TIP3    H1 9142   0.343   1.864   2.687
 3067TIP3    H2 9143   0.222   1.933   2.629
 3068TIP3   OH2 9144   4.039   0.504   2.732
 3068TIP3    H1 9145   3.984   0.440   2.777
 3068TIP3    H2 9146   4.114   0.516   2.790
 3069TIP3   OH2 9147   2.138   3.222   5.369
 3069TIP3    H1 9148   2.133   3.146   5.427
 3069TIP3    H2 9149   2.180   3.189   5.289
 3070TIP3   OH2 9150   2.977   0.150   0.148
 3070TIP3    H1 9151   3.028   0.129   0.226
 3070TIP3    H2 9152   2.887   0.125   0.169
 3071TIP3   OH2 9153   0.360   5.659   1.837
 3071TIP3    H1 9154   0.314   5.576   1.834
 3071TIP3    H2 9155   0.292   5.724   1.853
 3072TIP3   OH2 9156   1.273   5.243   0.717
 3072TIP3    H1 9157   1.217   5.170   0.689
 3072TIP3    H2 9158   1.224   5.321   0.692
 3073TIP3   OH2 9159   7.164   1.255   6.021
 3073TIP3    H1 9160   7.099   1.322   6.001
 3073TIP3    H2 9161   7.191   1.274   6.111
 3074TIP3   OH2 9162   5.854   4.172   1.630
 3074TIP3    H1 9163   5.770   4.183   1.674
 3074TIP3    H2 9164   5.840   4.100   1.568
 3075TIP3   OH2 9165   2.348   3.159   6.217
 3075TIP3    H1 9166   2.307   3.118   6.293
 3075TIP3    H2 9167   2.274   3.184   6.161
 3076TIP3   OH2 9168   5.932   4.234   5.469
 3076TIP3    H1 9169   5.912   4.325   5.494
 3076TIP3    H2 9170   5.879   4.219   5.391
 3077TIP3   OH2 9171   6.171   4.466   2.637
 3077TIP3    H1 9172   6.203   4.423   2.716
 3077TIP3    H2 9173   6.223   4.546   2.630
 3078TIP3   OH2 9174   5.632   4.535   3.465
 3078TIP3    H1 9175   5.697   4.577   3.409
 3078TIP3    H2 9176   5.656   4.442   3.465
 3079TIP3   OH2 9177   6.294   3.937   6.120
 3079TIP3    H1 9178   6.219   3.909   6.172
 3079TIP3    H2 9179   6.281   4.031   6.108
 3080TIP3   OH2 9180   2.005   3.516   2.707
 3080TIP3    H1 9181   1.997   3.438   2.762
 3080TIP3    H2 9182   2.056   3.487   2.631
 3081TIP3   OH2 9183   0.476   4.932   0.975
 3081TIP3    H1 9184   0.458   5.025   0.989
 3081TIP3    H2 9185   0.460   4.918   0.881
 3082TIP3   OH2 9186   3.510   2.696   3.856
 3082TIP3    H1 9187   3.566   2.622   3.832
 3082TIP3    H2 9188   3.532   2.713   3.948
 3083TIP3   OH2 9189   3.824   6.357   2.651
 3083TIP3    H1 9190   3.894   6.350   2.586
 3083TIP3    H2 9191   3.815   6.268   2.685
 3084TIP3   OH2 9192   4.916   4.172   4.532
 3084TIP3    H1 9193   4.978   4.187   4.604
 3084TIP3    H2 9194   4.891   4.080   4.541
 3085TIP3   OH2 9195   6.056   4.003   3.551
 3085TIP3    H1 9196   6.126   4.060   3.519
 3085TIP3    H2 9197   6.088   3.969   3.634
 3086TIP3   OH2 9198   4.614   2.459   3.401
 3086TIP3    H1 9199   4.676   2.390   3.424
 3086TIP3    H2 9200   4.625   2.525   3.469
 3087TIP3   OH2 9201   8.197   2.610   2.508
 3087TIP3    H1 9202   8.131   2.614   2.578
 3087TIP3    H2 9203   8.246   2.692   2.517
 3088TIP3   OH2 9204   0.584   2.909   0.149
 3088TIP3    H1 9205   0.548   2.821   0.165
 3088TIP3    H2 9206   0.510   2.968   0.164
 3089TIP3   OH2 9207   4.240   3.335   1.442
 3089TIP3    H1 9208   4.259   3.241   1.444
 3089TIP3    H2 9209   4.283   3.366   1.362
 3090TIP3   OH2 9210   4.650   6.968   0.324
 3090TIP3    H1 9211   4.636   6.917   0.244
 3090TIP3    H2 9212   4.733   6.936   0.359
 3091TIP3   OH2 9213   2.532   7.018   6.717
 3091TIP3    H1 9214   2.601   7.054   6.661
 3091TIP3    H2 9215   2.498   6.943   6.668
 3092TIP3   OH2 9216   4.309   0.793   2.094
 3092TIP3    H1 9217   4.223   0.765   2.123
 3092TIP3    H2 9218   4.325   0.876   2.139
 3093TIP3   OH2 9219   0.602   3.024   2.220
 3093TIP3    H1 9220   0.534   3.059   2.162
 3093TIP3    H2 9221   0.560   2.949   2.263
 3094TIP3   OH2 9222   4.437   5.500   3.972
 3094TIP3    H1 9223   4.375   5.545   3.914
 3094TIP3    H2 9224   4.464   5.423   3.922
 3095TIP3   OH2 9225   6.078   0.235   4.220
 3095TIP3    H1 9226   6.040   0.184   4.149
 3095TIP3    H2 9227   6.011   0.301   4.241
 3096TIP3   OH2 9228   2.764   1.270   2.888
 3096TIP3    H1 9229   2.769   1.288   2.982
 3096TIP3    H2 9230   2.786   1.177   2.880
 3097TIP3   OH2 9231   0.177   2.016   5.030
 3097TIP3    H1 9232   0.231   2.024   4.952
 3097TIP3    H2 9233   0.235   2.035   5.103
 3098TIP3   OH2 9234   5.016   4.929   6.575
 3098TIP3    H1 9235   4.965   4.858   6.614
 3098TIP3    H2 9236   4.951   4.993   6.547
 3099TIP3   OH2 9237   6.318   2.163   1.200
 3099TIP3    H1 9238   6.242   2.175   1.256
 3099TIP3    H2 9239   6.340   2.070   1.209
 3100TIP3   OH2 9240   3.294   2.784   6.133
 3100TIP3    H1 9241   3.226   2.788   6.200
 3100TIP3    H2 9242   3.268   2.712   6.075
 3101TIP3   OH2 9243   3.449   1.393   0.115
 3101TIP3    H1 9244   3.392   1.410   0.190
 3101TIP3    H2 9245   3.447   1.298   0.105
 3102TIP3   OH2 9246   6.995   0.698   1.649
 3102TIP3    H1 9247   6.915   0.683   1.599
 3102TIP3    H2 9248   6.973   0.671   1.738
 3103TIP3   OH2 9249   1.665   0.907   2.351
 3103TIP3    H1 9250   1.743   0.854   2.340
 3103TIP3    H2 9251   1.681   0.958   2.431
 3104TIP3   OH2 9252   3.181   7.680   6.813
 3104TIP3    H1 9253   3.092   7.649   6.831
 3104TIP3    H2 9254   3.218   7.699   6.899
 3105TIP3   OH2 9255   1.160   5.642   0.083
 3105TIP3    H1 9256   1.189   5.732   0.069
 3105TIP3    H2 9257   1.065   5.648   0.094
 3106TIP3   OH2 9258   7.799   6.021   4.698
 3106TIP3    H1 9259   7.891   5.998   4.683
 3106TIP3    H2 9260   7.756   6.002   4.615
 3107TIP3   OH2 9261   7.585   5.599   5.044
 3107TIP3    H1 9262   7.648   5.565   4.980
 3107TIP3    H2 9263   7.542   5.521   5.079
 3108TIP3   OH2 9264   1.225   2.357   4.622
 3108TIP3    H1 9265   1.288   2.392   4.685
 3108TIP3    H2 9266   1.139   2.374   4.662
 3109TIP3   OH2 9267   4.090   1.480   2.328
 3109TIP3    H1 9268   4.043   1.485   2.411
 3109TIP3    H2 9269   4.042   1.414   2.278
 3110TIP3   OH2 9270   1.026   0.636   4.261
 3110TIP3    H1 9271   0.972   0.709   4.231
 3110TIP3    H2 9272   1.009   0.566   4.198
 3111TIP3   OH2 9273   1.278   1.237   3.075
 3111TIP3    H1 9274   1.313   1.185   3.148
 3111TIP3    H2 9275   1.354   1.280   3.038
 3112TIP3   OH2 9276   4.688   0.805   0.015
 3112TIP3    H1 9277   4.654   0.788   0.103
 3112TIP3    H2 9278   4.736   0.725  -0.008
 3113TIP3   OH2 9279   5.988   7.096   6.675
 3113TIP3    H1 9280   6.011   7.160   6.742
 3113TIP3    H2 9281   5.967   7.149   6.598
 3114TIP3   OH2 9282   1.742   7.183   1.056
 3114TIP3    H1 9283   1.785   7.114   1.005
 3114TIP3    H2 9284   1.670   7.212   1.001
 3115TIP3   OH2 9285   1.530   5.591   5.447
 3115TIP3    H1 9286   1.453   5.540   5.422
 3115TIP3    H2 9287   1.601   5.553   5.395
 3116TIP3   OH2 9288   5.702   1.822   3.705
 3116TIP3    H1 9289   5.637   1.829   3.635
 3116TIP3    H2 9290   5.786   1.822   3.660
 3117TIP3   OH2 9291   2.410   3.162   1.373
 3117TIP3    H1 9292   2.490   3.133   1.416
 3117TIP3    H2 9293   2.395   3.098   1.304
 3118TIP3   OH2 9294   6.032   3.712   2.077
 3118TIP3    H1 9295   5.936   3.713   2.070
 3118TIP3    H2 9296   6.057   3.804   2.080
 3119TIP3   OH2 9297   4.773   4.190   2.057
 3119TIP3    H1 9298   4.688   4.202   2.014
 3119TIP3    H2 9299   4.750   4.154   2.143
 3120TIP3   OH2 9300   1.915   6.781   3.789
 3120TIP3    H1 9301   1.989   6.821   3.744
 3120TIP3    H2 9302   1.862   6.855   3.819
 3121TIP3   OH2 9303   3.026   5.406   2.264
 3121TIP3    H1 9304   2.961   5.392   2.195
 3121TIP3    H2 9305   2.988   5.475   2.319
 3122TIP3   OH2 9306   6.963   2.879   0.978
 3122TIP3    H1 9307   6.954   2.878   0.883
 3122TIP3    H2 9308   6.914   2.802   1.007
 3123TIP3   OH2 9309   3.509   1.951   3.129
 3123TIP3    H1 9310   3.553   1.893   3.191
 3123TIP3    H2 9311   3.569   1.956   3.054
 3124TIP3   OH2 9312   2.149   0.484   0.954
 3124TIP3    H1 9313   2.063   0.459   0.989
 3124TIP3    H2 9314   2.211   0.428   1.001
 3125TIP3   OH2 9315   1.313   7.335   6.041
 3125TIP3    H1 9316   1.222   7.341   6.014
 3125TIP3    H2 9317   1.311   7.351   6.136
 3126TIP3   OH2 9318   8.128   7.844   5.047
 3126TIP3    H1 9319   8.091   7.778   4.989
 3126TIP3    H2 9320   8.081   7.834   5.130
 3127TIP3   OH2 9321   7.465   3.225   1.379
 3127TIP3    H1 9322   7.466   3.129   1.371
 3127TIP3    H2 9323   7.434   3.255   1.294
 3128TIP3   OH2 9324   7.780   3.615   3.502
 3128TIP3    H1 9325   7.687   3.639   3.510
 3128TIP3    H2 9326   7.824   3.664   3.572
 3129TIP3   OH2 9327   7.908   3.908   0.214
 3129TIP3    H1 9328   7.949   3.987   0.177
 3129TIP3    H2 9329   7.977   3.866   0.264
 3130TIP3   OH2 9330   4.945   1.046   2.571
 3130TIP3    H1 9331   4.940   1.134   2.531
 3130TIP3    H2 9332   5.035   1.019   2.557
 3131TIP3   OH2 9333   1.371   5.875   4.900
 3131TIP3    H1 9334   1.393   5.865   4.993
 3131TIP3    H2 9335   1.456   5.872   4.856
 3132TIP3   OH2 9336   0.808   1.574   6.159
 3132TIP3    H1 9337   0.827   1.500   6.217
 3132TIP3    H2 9338   0.752   1.537   6.091
 3133TIP3   OH2 9339   0.430   7.068   4.628
 3133TIP3    H1 9340   0.351   7.108   4.594
 3133TIP3    H2 9341   0.498   7.135   4.616
 3134TIP3   OH2 9342   0.698   3.092   3.140
 3134TIP3    H1 9343   0.682   3.174   3.094
 3134TIP3    H2 9344   0.758   3.116   3.211
 3135TIP3   OH2 9345   2.164   7.571   4.906
 3135TIP3    H1 9346   2.167   7.641   4.971
 3135TIP3    H2 9347   2.129   7.614   4.827
 3136TIP3   OH2 9348   7.569   2.557   1.336
 3136TIP3    H1 9349   7.535   2.500   1.404
 3136TIP3    H2 9350   7.498   2.620   1.321
 3137TIP3   OH2 9351   6.759   7.689   3.650
 3137TIP3    H1 9352   6.853   7.703   3.655
 3137TIP3    H2 9353   6.747   7.634   3.573
 3138TIP3   OH2 9354   5.699   5.789   1.819
 3138TIP3    H1 9355   5.655   5.727   1.760
 3138TIP3    H2 9356   5.627   5.838   1.859
 3139TIP3   OH2 9357   1.604   2.891   1.225
 3139TIP3    H1 9358   1.568   2.948   1.158
 3139TIP3    H2 9359   1.569   2.925   1.308
 3140TIP3   OH2 9360   1.819   2.074   6.601
 3140TIP3    H1 9361   1.764   2.058   6.524
 3140TIP3    H2 9362   1.815   1.993   6.651
 3141TIP3   OH2 9363   1.619   4.998   6.199
 3141TIP3    H1 9364   1.525   5.009   6.187
 3141TIP3    H2 9365   1.629   4.984   6.294
 3142TIP3   OH2 9366   3.514   5.549   3.340
 3142TIP3    H1 9367   3.521   5.562   3.245
 3142TIP3    H2 9368   3.596   5.582   3.375
 3143TIP3   OH2 9369   2.581   6.606   2.764
 3143TIP3    H1 9370   2.570   6.562   2.679
 3143TIP3    H2 9371   2.671   6.585   2.790
 3144TIP3   OH2 9372   3.290   4.517   5.887
 3144TIP3    H1 9373   3.357   4.470   5.936
 3144TIP3    H2 9374   3.211   4.463   5.898
 3145TIP3   OH2 9375   3.593   3.274   2.686
 3145TIP3    H1 9376   3.541   3.203   2.648
 3145TIP3    H2 9377   3.631   3.319   2.611
 3146TIP3   OH2 9378   0.475   1.188   2.177
 3146TIP3    H1 9379   0.394   1.173   2.227
 3146TIP3    H2 9380   0.530   1.240   2.236
 3147TIP3   OH2 9381   7.319   3.096   6.165
 3147TIP3    H1 9382   7.359   3.176   6.129
 3147TIP3    H2 9383   7.378   3.026   6.137
 3148TIP3   OH2 9384   5.117   2.045   0.504
 3148TIP3    H1 9385   5.040   2.101   0.513
 3148TIP3    H2 9386   5.138   2.020   0.594
 3149TIP3   OH2 9387   5.979   3.311   3.532
 3149TIP3    H1 9388   5.887   3.290   3.519
 3149TIP3    H2 9389   6.020   3.227   3.553
 3150TIP3   OH2 9390   4.077   6.032   5.145
 3150TIP3    H1 9391   4.149   6.073   5.193
 3150TIP3    H2 9392   4.092   5.938   5.156
 3151TIP3   OH2 9393   4.168   4.003   6.760
 3151TIP3    H1 9394   4.118   4.085   6.768
 3151TIP3    H2 9395   4.186   3.977   6.851
 3152TIP3   OH2 9396   5.317   7.799   0.319
 3152TIP3    H1 9397   5.375   7.725   0.338
 3152TIP3    H2 9398   5.321   7.853   0.397
 3153TIP3   OH2 9399   1.120   5.423   6.786
 3153TIP3    H1 9400   1.146   5.339   6.749
 3153TIP3    H2 9401   1.178   5.436   6.861
 3154TIP3   OH2 9402   7.801   6.279   2.734
 3154TIP3    H1 9403   7.834   6.191   2.753
 3154TIP3    H2 9404   7.826   6.295   2.643
 3155TIP3   OH2 9405   4.248   6.623   4.798
 3155TIP3    H1 9406   4.273   6.709   4.831
 3155TIP3    H2 9407   4.153   6.628   4.787
 3156TIP3   OH2 9408   5.679   1.476   0.768
 3156TIP3    H1 9409   5.639   1.497   0.684
 3156TIP3    H2 9410   5.711   1.386   0.758
 3157TIP3   OH2 9411   7.482   6.009   6.481
 3157TIP3    H1 9412   7.462   5.922   6.449
 3157TIP3    H2 9413   7.537   6.048   6.413
 3158TIP3   OH2 9414   1.523   5.418   0.863
 3158TIP3    H1 9415   1.524   5.408   0.767
 3158TIP3    H2 9416   1.435   5.451   0.882
 3159TIP3   OH2 9417   2.762   5.746   2.683
 3159TIP3    H1 9418   2.827   5.785   2.742
 3159TIP3    H2 9419   2.794   5.768   2.595
 3160TIP3   OH2 9420   3.980   6.939   3.134
 3160TIP3    H1 9421   4.042   6.999   3.094
 3160TIP3    H2 9422   4.030   6.894   3.202
 3161TIP3   OH2 9423   2.289   7.640   6.239
 3161TIP3    H1 9424   2.331   7.585   6.172
 3161TIP3    H2 9425   2.256   7.716   6.190
 3162TIP3   OH2 9426   3.801   2.255   3.249
 3162TIP3    H1 9427   3.858   2.244   3.325
 3162TIP3    H2 9428   3.841   2.200   3.181
 3163TIP3   OH2 9429   0.076   1.977   5.758
 3163TIP3    H1 9430   0.108   1.906   5.813
 3163TIP3    H2 9431  -0.010   1.999   5.795
 3164TIP3   OH2 9432   3.762   6.175   4.461
 3164TIP3    H1 9433   3.697   6.105   4.452
 3164TIP3    H2 9434   3.712   6.250   4.491
 3165TIP3   OH2 9435   6.871   4.961   5.447
 3165TIP3    H1 9436   6.955   5.000   5.470
 3165TIP3    H2 9437   6.893   4.881   5.399
 3166TIP3   OH2 9438   6.998   4.600   2.765
 3166TIP3    H1 9439   7.072   4.654   2.737
 3166TIP3    H2 9440   6.921   4.646   2.731
 3167TIP3   OH2 9441   2.271   4.011   1.207
 3167TIP3    H1 9442   2.331   4.085   1.216
 3167TIP3    H2 9443   2.294   3.952   1.279
 3168TIP3   OH2 9444   2.140   6.173   3.157
 3168TIP3    H1 9445   2.180   6.247   3.202
 3168TIP3    H2 9446   2.184   6.169   3.072
 3169TIP3   OH2 9447   2.805   4.247   2.199
 3169TIP3    H1 9448   2.740   4.193   2.155
 3169TIP3    H2 9449   2.763   4.332   2.211
 3170TIP3   OH2 9450   5.587   4.604   4.262
 3170TIP3    H1 9451   5.501   4.644   4.261
 3170TIP3    H2 9452   5.577   4.524   4.210
 3171TIP3   OH2 9453   5.088   5.023   4.571
 3171TIP3    H1 9454   5.131   4.937   4.569
 3171TIP3    H2 9455   5.161   5.085   4.575
 3172TIP3   OH2 9456   0.900   4.124   4.229
 3172TIP3    H1 9457   0.805   4.130   4.228
 3172TIP3    H2 9458   0.919   4.031   4.237
 3173TIP3   OH2 9459   5.716   6.000   3.764
 3173TIP3    H1 9460   5.776   6.069   3.793
 3173TIP3    H2 9461   5.769   5.944   3.708
 3174TIP3   OH2 9462   7.835   0.915   2.492
 3174TIP3    H1 9463   7.777   0.938   2.565
 3174TIP3    H2 9464   7.866   0.827   2.512
 3175TIP3   OH2 9465   0.251   2.308   0.153
 3175TIP3    H1 9466   0.250   2.291   0.247
 3175TIP3    H2 9467   0.280   2.226   0.113
 3176TIP3   OH2 9468   8.373   1.396   1.142
 3176TIP3    H1 9469   8.368   1.419   1.234
 3176TIP3    H2 9470   8.465   1.371   1.129
 3177TIP3   OH2 9471   1.828   7.709   2.339
 3177TIP3    H1 9472   1.798   7.800   2.330
 3177TIP3    H2 9473   1.777   7.674   2.413
 3178TIP3   OH2 9474   4.974   0.477   6.495
 3178TIP3    H1 9475   5.000   0.385   6.483
 3178TIP3    H2 9476   4.983   0.492   6.589
 3179TIP3   OH2 9477   1.942   5.018   6.708
 3179TIP3    H1 9478   1.853   5.007   6.743
 3179TIP3    H2 9479   1.960   5.111   6.720
 3180TIP3   OH2 9480   1.640   7.146   1.723
 3180TIP3    H1 9481   1.682   7.068   1.759
 3180TIP3    H2 9482   1.578   7.112   1.658
 3181TIP3   OH2 9483   3.216   4.617   0.245
 3181TIP3    H1 9484   3.304   4.586   0.266
 3181TIP3    H2 9485   3.193   4.676   0.317
 3182TIP3   OH2 9486   0.533   2.863   3.375
 3182TIP3    H1 9487   0.533   2.841   3.468
 3182TIP3    H2 9488   0.460   2.813   3.338
 3183TIP3   OH2 9489   0.143   6.385   2.212
 3183TIP3    H1 9490   0.231   6.348   2.215
 3183TIP3    H2 9491   0.134   6.417   2.123
 3184TIP3   OH2 9492   1.272   2.978   0.872
 3184TIP3    H1 9493   1.278   2.977   0.967
 3184TIP3    H2 9494   1.231   3.062   0.851
 3185TIP3   OH2 9495   1.700   3.206   1.890
 3185TIP3    H1 9496   1.719   3.270   1.959
 3185TIP3    H2 9497   1.748   3.239   1.813
 3186TIP3   OH2 9498   1.264   0.485   0.776
 3186TIP3    H1 9499   1.223   0.449   0.697
 3186TIP3    H2 9500   1.347   0.522   0.744
 3187TIP3   OH2 9501   5.515   5.398   6.342
 3187TIP3    H1 9502   5.582   5.341   6.305
 3187TIP3    H2 9503   5.542   5.411   6.433
 3188TIP3   OH2 9504   5.696   6.550   2.822
 3188TIP3    H1 9505   5.668   6.629   2.869
 3188TIP3    H2 9506   5.762   6.511   2.879
 3189TIP3   OH2 9507   3.396   2.918   1.611
 3189TIP3    H1 9508   3.449   2.841   1.588
 3189TIP3    H2 9509   3.423   2.939   1.700
 3190TIP3   OH2 9510   2.065   4.717   3.844
 3190TIP3    H1 9511   2.053   4.635   3.893
 3190TIP3    H2 9512   2.151   4.749   3.872
 3191TIP3   OH2 9513   2.301   5.127   5.623
 3191TIP3    H1 9514   2.289   5.060   5.556
 3191TIP3    H2 9515   2.306   5.078   5.705
 3192TIP3   OH2 9516   1.033   2.405   3.459
 3192TIP3    H1 9517   0.969   2.394   3.388
 3192TIP3    H2 9518   0.986   2.377   3.538
 3193TIP3   OH2 9519   1.640   2.502   5.876
 3193TIP3    H1 9520   1.591   2.436   5.924
 3193TIP3    H2 9521   1.582   2.578   5.874
 3194TIP3   OH2 9522   7.332   1.259   2.889
 3194TIP3    H1 9523   7.286   1.342   2.900
 3194TIP3    H2 9524   7.425   1.281   2.897
 3195TIP3   OH2 9525   8.084   5.861   3.496
 3195TIP3    H1 9526   8.041   5.939   3.531
 3195TIP3    H2 9527   8.172   5.891   3.470
 3196TIP3   OH2 9528   5.383   3.551   5.417
 3196TIP3    H1 9529   5.470   3.532   5.450
 3196TIP3    H2 9530   5.356   3.629   5.466
 3197TIP3   OH2 9531   3.658   0.377   1.253
 3197TIP3    H1 9532   3.626   0.418   1.173
 3197TIP3    H2 9533   3.646   0.283   1.240
 3198TIP3   OH2 9534   2.421   0.244   1.568
 3198TIP3    H1 9535   2.360   0.293   1.513
 3198TIP3    H2 9536   2.406   0.152   1.544
 3199TIP3   OH2 9537   2.093   7.398   1.582
 3199TIP3    H1 9538   2.117   7.391   1.674
 3199TIP3    H2 9539   2.132   7.321   1.541
 3200TIP3   OH2 9540   1.574   2.599   4.732
 3200TIP3    H1 9541   1.659   2.599   4.776
 3200TIP3    H2 9542   1.537   2.512   4.749
 3201TIP3   OH2 9543   2.522   7.052   1.380
 3201TIP3    H1 9544   2.498   7.142   1.399
 3201TIP3    H2 9545   2.461   7.025   1.311
 3202TIP3   OH2 9546   6.039   3.025   4.843
 3202TIP3    H1 9547   6.120   2.995   4.882
 3202TIP3    H2 9548   5.975   2.956   4.863
 3203TIP3   OH2 9549   3.612   7.029   0.907
 3203TIP3    H1 9550   3.579   7.117   0.893
 3203TIP3    H2 9551   3.541   6.983   0.951
 3204TIP3   OH2 9552   2.415   7.307   3.313
 3204TIP3    H1 9553   2.414   7.259   3.231
 3204TIP3    H2 9554   2.484   7.266   3.365
 3205TIP3   OH2 9555   6.539   7.899   3.730
 3205TIP3    H1 9556   6.495   7.861   3.654
 3205TIP3    H2 9557   6.626   7.858   3.730
 3206TIP3   OH2 9558   6.757   6.576   4.637
 3206TIP3    H1 9559   6.806   6.638   4.692
 3206TIP3    H2 9560   6.815   6.501   4.628
 3207TIP3   OH2 9561   1.075   7.714   1.546
 3207TIP3    H1 9562   1.023   7.639   1.576
 3207TIP3    H2 9563   1.087   7.767   1.625
 3208TIP3   OH2 9564   5.205   3.262   4.248
 3208TIP3    H1 9565   5.160   3.191   4.203
 3208TIP3    H2 9566   5.138   3.301   4.305
 3209TIP3   OH2 9567   5.185   3.335   2.483
 3209TIP3    H1 9568   5.107   3.315   2.535
 3209TIP3    H2 9569   5.257   3.332   2.546
 3210TIP3   OH2 9570   2.497   1.956   1.577
 3210TIP3    H1 9571   2.532   2.041   1.553
 3210TIP3    H2 9572   2.402   1.965   1.567
 3211TIP3   OH2 9573   8.337   4.156   2.103
 3211TIP3    H1 9574   8.279   4.178   2.030
 3211TIP3    H2 9575   8.325   4.229   2.165
 3212TIP3   OH2 9576   1.493   1.094   5.246
 3212TIP3    H1 9577   1.554   1.161   5.275
 3212TIP3    H2 9578   1.481   1.111   5.152
 3213TIP3   OH2 9579   7.607   3.503   4.161
 3213TIP3    H1 9580   7.610   3.460   4.246
 3213TIP3    H2 9581   7.571   3.437   4.102
 3214TIP3   OH2 9582   4.939   4.223   2.731
 3214TIP3    H1 9583   4.954   4.242   2.638
 3214TIP3    H2 9584   5.004   4.157   2.753
 3215TIP3   OH2 9585   5.079   5.773   1.826
 3215TIP3    H1 9586   4.995   5.820   1.826
 3215TIP3    H2 9587   5.145   5.841   1.841
 3216TIP3   OH2 9588   3.623   5.440   5.237
 3216TIP3    H1 9589   3.691   5.501   5.209
 3216TIP3    H2 9590   3.586   5.407   5.155
 3217TIP3   OH2 9591   1.774   3.276   1.622
 3217TIP3    H1 9592   1.853   3.329   1.617
 3217TIP3    H2 9593   1.755   3.253   1.531
 3218TIP3   OH2 9594   2.647   0.988   3.254
 3218TIP3    H1 9595   2.662   0.991   3.348
 3218TIP3    H2 9596   2.618   0.899   3.237
 3219TIP3   OH2 9597   1.593   3.494   5.906
 3219TIP3    H1 9598   1.663   3.443   5.947
 3219TIP3    H2 9599   1.515   3.474   5.958
 3220TIP3   OH2 9600   0.244   4.207   5.498
 3220TIP3    H1 9601   0.202   4.121   5.490
 3220TIP3    H2 9602   0.174   4.269   5.475
 3221TIP3   OH2 9603   2.020   3.831   4.982
 3221TIP3    H1 9604   2.072   3.848   4.904
 3221TIP3    H2 9605   1.986   3.917   5.007
 3222TIP3   OH2 9606   3.824   6.561   6.423
 3222TIP3    H1 9607   3.876   6.603   6.491
 3222TIP3    H2 9608   3.872   6.577   6.342
 3223TIP3   OH2 9609   5.065   6.921   3.545
 3223TIP3    H1 9610   5.116   6.841   3.536
 3223TIP3    H2 9611   5.062   6.957   3.457
 3224TIP3   OH2 9612   0.162   6.708   6.299
 3224TIP3    H1 9613   0.240   6.726   6.247
 3224TIP3    H2 9614   0.195   6.692   6.387
 3225TIP3   OH2 9615   2.755   4.651   1.154
 3225TIP3    H1 9616   2.705   4.603   1.087
 3225TIP3    H2 9617   2.715   4.737   1.156
 3226TIP3   OH2 9618   0.092   4.488   0.036
 3226TIP3    H1 9619   0.045   4.517   0.113
 3226TIP3    H2 9620   0.175   4.453   0.070
 3227TIP3   OH2 9621   5.463   5.544   0.569
 3227TIP3    H1 9622   5.488   5.558   0.660
 3227TIP3    H2 9623   5.530   5.590   0.519
 3228TIP3   OH2 9624   2.469   4.747   1.684
 3228TIP3    H1 9625   2.553   4.792   1.676
 3228TIP3    H2 9626   2.489   4.666   1.731
 3229TIP3   OH2 9627   6.331   4.887   3.745
 3229TIP3    H1 9628   6.314   4.936   3.664
 3229TIP3    H2 9629   6.280   4.807   3.736
 3230TIP3   OH2 9630   4.793   0.351   1.159
 3230TIP3    H1 9631   4.823   0.376   1.246
 3230TIP3    H2 9632   4.818   0.259   1.150
 3231TIP3   OH2 9633   3.509   2.528   4.502
 3231TIP3    H1 9634   3.537   2.501   4.415
 3231TIP3    H2 9635   3.515   2.623   4.502
 3232TIP3   OH2 9636   6.007   3.917   4.226
 3232TIP3    H1 9637   5.986   3.925   4.319
 3232TIP3    H2 9638   5.929   3.877   4.187
 3233TIP3   OH2 9639   6.765   1.940   5.445
 3233TIP3    H1 9640   6.796   1.851   5.429
 3233TIP3    H2 9641   6.814   1.970   5.521
 3234TIP3   OH2 9642   8.126   4.310   3.792
 3234TIP3    H1 9643   8.174   4.344   3.717
 3234TIP3    H2 9644   8.060   4.377   3.811
 3235TIP3   OH2 9645   2.860   0.575   5.400
 3235TIP3    H1 9646   2.837   0.590   5.492
 3235TIP3    H2 9647   2.851   0.481   5.387
 3236TIP3   OH2 9648   4.195   5.798   5.746
 3236TIP3    H1 9649   4.108   5.758   5.754
 3236TIP3    H2 9650   4.238   5.747   5.677
 3237TIP3   OH2 9651   0.988   4.187   5.541
 3237TIP3    H1 9652   1.016   4.100   5.567
 3237TIP3    H2 9653   0.974   4.234   5.623
 3238TIP3   OH2 9654   3.976   2.182   5.417
 3238TIP3    H1 9655   4.014   2.174   5.505
 3238TIP3    H2 9656   4.051   2.170   5.358
 3239TIP3   OH2 9657   5.104   1.560   5.706
 3239TIP3    H1 9658   5.127   1.552   5.614
 3239TIP3    H2 9659   5.161   1.630   5.739
 3240TIP3   OH2 9660   5.960   2.925   5.133
 3240TIP3    H1 9661   5.934   2.886   5.049
 3240TIP3    H2 9662   6.030   2.868   5.165
 3241TIP3   OH2 9663   7.324   5.188   3.529
 3241TIP3    H1 9664   7.389   5.229   3.472
 3241TIP3    H2 9665   7.364   5.190   3.616
 3242TIP3   OH2 9666   2.788   5.460   5.383
 3242TIP3    H1 9667   2.783   5.483   5.476
 3242TIP3    H2 9668   2.727   5.520   5.340
 3243TIP3   OH2 9669   2.381   3.792   2.159
 3243TIP3    H1 9670   2.418   3.810   2.073
 3243TIP3    H2 9671   2.405   3.868   2.212
 3244TIP3   OH2 9672   1.274   0.166   4.048
 3244TIP3    H1 9673   1.224   0.186   3.968
 3244TIP3    H2 9674   1.322   0.086   4.026
 3245TIP3   OH2 9675   4.461   0.125   4.571
 3245TIP3    H1 9676   4.489   0.203   4.524
 3245TIP3    H2 9677   4.370   0.143   4.595
 3246TIP3   OH2 9678   2.041   4.244   2.666
 3246TIP3    H1 9679   1.993   4.162   2.657
 3246TIP3    H2 9680   2.128   4.224   2.629
 3247TIP3   OH2 9681   5.727   3.928   4.606
 3247TIP3    H1 9682   5.724   3.998   4.671
 3247TIP3    H2 9683   5.800   3.950   4.549
 3248TIP3   OH2 9684   3.679   7.334   5.082
 3248TIP3    H1 9685   3.707   7.426   5.081
 3248TIP3    H2 9686   3.586   7.338   5.062
 3249TIP3   OH2 9687   3.000   3.463   5.104
 3249TIP3    H1 9688   3.029   3.537   5.051
 3249TIP3    H2 9689   3.028   3.486   5.193
 3250TIP3   OH2 9690   4.065   7.107   3.854
 3250TIP3    H1 9691   4.127   7.180   3.848
 3250TIP3    H2 9692   3.990   7.144   3.900
 3251TIP3   OH2 9693   4.757   2.184   6.702
 3251TIP3    H1 9694   4.813   2.172   6.778
 3251TIP3    H2 9695   4.735   2.095   6.673
 3252TIP3   OH2 9696   7.330   6.073   0.624
 3252TIP3    H1 9697   7.340   5.982   0.651
 3252TIP3    H2 9698   7.269   6.111   0.687
 3253TIP3   OH2 9699   6.775   1.715   0.113
 3253TIP3    H1 9700   6.836   1.646   0.089
 3253TIP3    H2 9701   6.791   1.785   0.049
 3254TIP3   OH2 9702   6.263   4.847   2.284
 3254TIP3    H1 9703   6.211   4.825   2.206
 3254TIP3    H2 9704   6.319   4.771   2.298
 3255TIP3   OH2 9705   1.768   6.700   5.719
 3255TIP3    H1 9706   1.694   6.761   5.722
 3255TIP3    H2 9707   1.845   6.756   5.714
 3256TIP3   OH2 9708   6.793   5.039   5.744
 3256TIP3    H1 9709   6.765   5.045   5.652
 3256TIP3    H2 9710   6.728   5.090   5.792
 3257TIP3   OH2 9711   6.937   0.763   6.363
 3257TIP3    H1 9712   6.892   0.808   6.292
 3257TIP3    H2 9713   7.005   0.824   6.392
 3258TIP3   OH2 9714   0.122   3.436   6.352
 3258TIP3    H1 9715   0.095   3.492   6.425
 3258TIP3    H2 9716   0.105   3.489   6.274
 3259TIP3   OH2 9717   0.399   5.506   0.259
 3259TIP3    H1 9718   0.432   5.578   0.206
 3259TIP3    H2 9719   0.375   5.546   0.342
 3260TIP3   OH2 9720   0.114   3.024   2.955
 3260TIP3    H1 9721   0.104   3.051   2.864
 3260TIP3    H2 9722   0.160   3.097   2.997
 3261TIP3   OH2 9723   2.634   4.154   5.377
 3261TIP3    H1 9724   2.698   4.100   5.423
 3261TIP3    H2 9725   2.643   4.241   5.417
 3262TIP3   OH2 9726   6.785   7.086   0.267
 3262TIP3    H1 9727   6.732   7.091   0.187
 3262TIP3    H2 9728   6.835   7.005   0.258
 3263TIP3   OH2 9729   1.416   4.897   1.571
 3263TIP3    H1 9730   1.495   4.874   1.522
 3263TIP3    H2 9731   1.383   4.975   1.527
 3264TIP3   OH2 9732   0.459   2.707   0.284
 3264TIP3    H1 9733   0.413   2.675   0.206
 3264TIP3    H2 9734   0.397   2.767   0.326
 3265TIP3   OH2 9735   8.271   6.498   4.083
 3265TIP3    H1 9736   8.185   6.537   4.069
 3265TIP3    H2 9737   8.263   6.451   4.165
 3266TIP3   OH2 9738   1.520   0.297   2.938
 3266TIP3    H1 9739   1.590   0.279   2.875
 3266TIP3    H2 9740   1.442   0.256   2.900
 3267TIP3   OH2 9741   1.660   5.318   4.130
 3267TIP3    H1 9742   1.658   5.222   4.122
 3267TIP3    H2 9743   1.655   5.333   4.224
 3268TIP3   OH2 9744   1.680   3.915   1.606
 3268TIP3    H1 9745   1.604   3.872   1.568
 3268TIP3    H2 9746   1.739   3.843   1.629
 3269TIP3   OH2 9747   6.416   5.662   1.805
 3269TIP3    H1 9748   6.451   5.647   1.717
 3269TIP3    H2 9749   6.477   5.615   1.862
 3270TIP3   OH2 9750   2.119   2.544   1.547
 3270TIP3    H1 9751   2.168   2.556   1.628
 3270TIP3    H2 9752   2.028   2.556   1.573
 3271TIP3   OH2 9753   7.714   1.288   3.496
 3271TIP3    H1 9754   7.750   1.351   3.434
 3271TIP3    H2 9755   7.750   1.204   3.467
 3272TIP3   OH2 9756   0.011   5.347   0.645
 3272TIP3    H1 9757  -0.025   5.262   0.670
 3272TIP3    H2 9758   0.032   5.339   0.552
 3273TIP3   OH2 9759   6.655   2.144   6.265
 3273TIP3    H1 9760   6.599   2.207   6.220
 3273TIP3    H2 9761   6.603   2.064   6.269
 3274TIP3   OH2 9762   0.322   0.879   2.881
 3274TIP3    H1 9763   0.368   0.816   2.937
 3274TIP3    H2 9764   0.239   0.837   2.861
 3275TIP3   OH2 9765   6.266   7.768   4.407
 3275TIP3    H1 9766   6.216   7.835   4.361
 3275TIP3    H2 9767   6.357   7.785   4.382
 3276TIP3   OH2 9768   2.472   2.019   3.916
 3276TIP3    H1 9769   2.403   1.961   3.884
 3276TIP3    H2 9770   2.478   2.000   4.010
 3277TIP3   OH2 9771   6.348   6.390   1.218
 3277TIP3    H1 9772   6.415   6.450   1.185
 3277TIP3    H2 9773   6.391   6.345   1.291
 3278TIP3   OH2 9774   4.280   1.183   4.767
 3278TIP3    H1 9775   4.363   1.229   4.781
 3278TIP3    H2 9776   4.216   1.252   4.750
 3279TIP3   OH2 9777   1.522   0.495   1.826
 3279TIP3    H1 9778   1.562   0.566   1.775
 3279TIP3    H2 9779   1.551   0.511   1.916
 3280TIP3   OH2 9780   1.312   4.282   0.540
 3280TIP3    H1 9781   1.258   4.272   0.619
 3280TIP3    H2 9782   1.365   4.202   0.538
 3281TIP3   OH2 9783   3.940   0.268   2.886
 3281TIP3    H1 9784   3.860   0.321   2.886
 3281TIP3    H2 9785   3.938   0.223   2.971
 3282TIP3   OH2 9786   8.041   3.104   1.765
 3282TIP3    H1 9787   8.034   3.012   1.791
 3282TIP3    H2 9788   8.086   3.102   1.681
 3283TIP3   OH2 9789   2.764   1.187   5.962
 3283TIP3    H1 9790   2.810   1.185   5.878
 3283TIP3    H2 9791   2.672   1.189   5.939
 3284TIP3   OH2 9792   0.822   2.694   4.261
 3284TIP3    H1 9793   0.785   2.740   4.336
 3284TIP3    H2 9794   0.748   2.649   4.221
 3285TIP3   OH2 9795   3.193   7.623   3.221
 3285TIP3    H1 9796   3.247   7.618   3.143
 3285TIP3    H2 9797   3.141   7.703   3.210
 3286TIP3   OH2 9798   3.638   2.869   1.049
 3286TIP3    H1 9799   3.668   2.796   0.996
 3286TIP3    H2 9800   3.711   2.888   1.108
 3287TIP3   OH2 9801   0.932   0.380   4.577
 3287TIP3    H1 9802   1.016   0.426   4.577
 3287TIP3    H2 9803   0.921   0.351   4.667
 3288TIP3   OH2 9804   2.832   2.108   2.372
 3288TIP3    H1 9805   2.741   2.138   2.362
 3288TIP3    H2 9806   2.830   2.054   2.451
 3289TIP3   OH2 9807   0.801   0.539   0.809
 3289TIP3    H1 9808   0.870   0.474   0.804
 3289TIP3    H2 9809   0.724   0.491   0.839
 3290TIP3   OH2 9810   4.828   0.119   5.894
 3290TIP3    H1 9811   4.866   0.073   5.969
 3290TIP3    H2 9812   4.903   0.162   5.852
 3291TIP3   OH2 9813   7.200   6.962   1.264
 3291TIP3    H1 9814   7.270   6.903   1.291
 3291TIP3    H2 9815   7.240   7.018   1.197
 3292TIP3   OH2 9816   1.646   7.864   5.131
 3292TIP3    H1 9817   1.583   7.795   5.109
 3292TIP3    H2 9818   1.666   7.906   5.047
 3293TIP3   OH2 9819   7.621   6.942   4.932
 3293TIP3    H1 9820   7.606   6.875   5.000
 3293TIP3    H2 9821   7.650   7.019   4.981
 3294TIP3   OH2 9822   7.677   2.533   6.360
 3294TIP3    H1 9823   7.653   2.547   6.452
 3294TIP3    H2 9824   7.633   2.451   6.336
 3295TIP3   OH2 9825   4.700   5.674   6.490
 3295TIP3    H1 9826   4.762   5.618   6.537
 3295TIP3    H2 9827   4.735   5.679   6.401
 3296TIP3   OH2 9828   7.030   4.804   1.441
 3296TIP3    H1 9829   6.960   4.866   1.462
 3296TIP3    H2 9830   7.003   4.722   1.483
 3297TIP3   OH2 9831   3.103   4.250   1.746
 3297TIP3    H1 9832   3.032   4.200   1.705
 3297TIP3    H2 9833   3.065   4.286   1.826
 3298TIP3   OH2 9834   1.818   0.865   3.845
 3298TIP3    H1 9835   1.830   0.786   3.792
 3298TIP3    H2 9836   1.895   0.868   3.901
 3299TIP3   OH2 9837   5.635   6.390   4.647
 3299TIP3    H1 9838   5.702   6.434   4.594
 3299TIP3    H2 9839   5.556   6.441   4.634
 3300TIP3   OH2 9840   1.928   7.061   0.872
 3300TIP3    H1 9841   1.983   7.082   0.947
 3300TIP3    H2 9842   1.988   7.060   0.798
 3301TIP3   OH2 9843   6.547   2.788   1.302
 3301TIP3    H1 9844   6.504   2.873   1.311
 3301TIP3    H2 9845   6.478   2.729   1.271
 3302TIP3   OH2 9846   4.081   2.603   2.886
 3302TIP3    H1 9847   4.125   2.521   2.910
 3302TIP3    H2 9848   4.076   2.652   2.968
 3303TIP3   OH2 9849   7.403   0.741   0.056
 3303TIP3    H1 9850   7.340   0.669   0.064
 3303TIP3    H2 9851   7.356   0.807   0.004
 3304TIP3   OH2 9852   5.131   3.706   3.060
 3304TIP3    H1 9853   5.148   3.697   3.154
 3304TIP3    H2 9854   5.168   3.626   3.021
 3305TIP3   OH2 9855   7.700   1.244   0.290
 3305TIP3    H1 9856   7.685   1.338   0.284
 3305TIP3    H2 9857   7.631   1.213   0.349
 3306TIP3   OH2 9858   2.850  -0.017   3.531
 3306TIP3    H1 9859   2.922  -0.054   3.583
 3306TIP3    H2 9860   2.772  -0.030   3.585
 3307TIP3   OH2 9861   6.996   5.899   1.042
 3307TIP3    H1 9862   6.912   5.873   1.004
 3307TIP3    H2 9863   7.041   5.816   1.058
 3308TIP3   OH2 9864   6.403   4.150   4.171
 3308TIP3    H1 9865   6.326   4.166   4.226
 3308TIP3    H2 9866   6.412   4.230   4.118
 3309TIP3   OH2 9867   4.786   0.271   3.162
 3309TIP3    H1 9868   4.750   0.257   3.249
 3309TIP3    H2 9869   4.710   0.294   3.108
 3310TIP3   OH2 9870   4.851   0.836   0.507
 3310TIP3    H1 9871   4.863   0.839   0.602
 3310TIP3    H2 9872   4.772   0.782   0.495
 3311TIP3   OH2 9873   2.090   6.977   5.395
 3311TIP3    H1 9874   2.102   7.026   5.476
 3311TIP3    H2 9875   2.055   6.892   5.422
 3312TIP3   OH2 9876   7.009   3.119   1.874
 3312TIP3    H1 9877   7.103   3.136   1.869
 3312TIP3    H2 9878   7.000   3.028   1.844
 3313TIP3   OH2 9879   7.662   0.618   2.526
 3313TIP3    H1 9880   7.746   0.574   2.541
 3313TIP3    H2 9881   7.650   0.674   2.603
 3314TIP3   OH2 9882   1.063   6.502   3.582
 3314TIP3    H1 9883   1.109   6.543   3.656
 3314TIP3    H2 9884   1.001   6.441   3.622
 3315TIP3   OH2 9885   1.011   5.082   2.101
 3315TIP3    H1 9886   0.928   5.102   2.146
 3315TIP3    H2 9887   1.064   5.160   2.115
 3316TIP3   OH2 9888   3.745   4.403   0.264
 3316TIP3    H1 9889   3.803   4.341   0.309
 3316TIP3    H2 9890   3.658   4.363   0.270
 3317TIP3   OH2 9891   3.046   1.070   2.706
 3317TIP3    H1 9892   3.087   1.113   2.631
 3317TIP3    H2 9893   3.102   1.094   2.781
 3318TIP3   OH2 9894   6.126   0.176   0.176
 3318TIP3    H1 9895   6.136   0.182   0.081
 3318TIP3    H2 9896   6.190   0.238   0.211
 3319TIP3   OH2 9897   7.298   3.663   3.868
 3319TIP3    H1 9898   7.386   3.691   3.843
 3319TIP3    H2 9899   7.249   3.745   3.878
 3320TIP3   OH2 9900   5.593   2.950   0.904
 3320TIP3    H1 9901   5.530   2.967   0.834
 3320TIP3    H2 9902   5.650   3.027   0.903
 3321TIP3   OH2 9903   0.826   3.737   5.334
 3321TIP3    H1 9904   0.800   3.828   5.344
 3321TIP3    H2 9905   0.746   3.693   5.305
 3322TIP3   OH2 9906   0.827   3.888   5.666
 3322TIP3    H1 9907   0.827   3.914   5.759
 3322TIP3    H2 9908   0.836   3.793   5.668
 3323TIP3   OH2 9909   5.917   4.989   5.734
 3323TIP3    H1 9910   5.971   5.058   5.696
 3323TIP3    H2 9911   5.876   5.029   5.810
 3324TIP3   OH2 9912   0.394   3.069   0.261
 3324TIP3    H1 9913   0.331   3.114   0.204
 3324TIP3    H2 9914   0.341   3.010   0.314
 3325TIP3   OH2 9915   1.350   2.500   2.745
 3325TIP3    H1 9916   1.278   2.525   2.803
 3325TIP3    H2 9917   1.401   2.580   2.735
 3326TIP3   OH2 9918   3.579   3.005   6.337
 3326TIP3    H1 9919   3.620   3.061   6.403
 3326TIP3    H2 9920   3.493   3.045   6.322
 3327TIP3   OH2 9921   0.719   1.983   4.133
 3327TIP3    H1 9922   0.798   1.995   4.185
 3327TIP3    H2 9923   0.688   1.895   4.156
 3328TIP3   OH2 9924   0.617   0.619   1.610
 3328TIP3    H1 9925   0.698   0.664   1.634
 3328TIP3    H2 9926   0.611   0.546   1.671
 3329TIP3   OH2 9927   3.922   3.880   2.298
 3329TIP3    H1 9928   3.918   3.939   2.224
 3329TIP3    H2 9929   3.900   3.934   2.374
 3330TIP3   OH2 9930   0.755   6.577   5.886
 3330TIP3    H1 9931   0.808   6.564   5.807
 3330TIP3    H2 9932   0.736   6.488   5.916
 3331TIP3   OH2 9933   4.634   7.796   6.290
 3331TIP3    H1 9934   4.543   7.772   6.304
 3331TIP3    H2 9935   4.633   7.847   6.209
 3332TIP3   OH2 9936   1.725   4.088   2.186
 3332TIP3    H1 9937   1.649   4.132   2.224
 3332TIP3    H2 9938   1.731   4.123   2.098
 3333TIP3   OH2 9939   5.023   3.894   2.171
 3333TIP3    H1 9940   4.951   3.883   2.109
 3333TIP3    H2 9941   4.979   3.902   2.257
 3334TIP3   OH2 9942   7.800   4.339   3.652
 3334TIP3    H1 9943   7.841   4.312   3.570
 3334TIP3    H2 9944   7.849   4.417   3.679
 3335TIP3   OH2 9945   0.047   2.766   2.993
 3335TIP3    H1 9946   0.079   2.856   2.987
 3335TIP3    H2 9947   0.016   2.758   3.083
 3336TIP3   OH2 9948   2.488   6.438  -0.032
 3336TIP3    H1 9949   2.410   6.485  -0.062
 3336TIP3    H2 9950   2.478   6.350  -0.067
 3337TIP3   OH2 9951   5.502   4.833   2.488
 3337TIP3    H1 9952   5.534   4.809   2.401
 3337TIP3    H2 9953   5.506   4.929   2.489
 3338TIP3   OH2 9954   3.020   7.679   4.734
 3338TIP3    H1 9955   3.073   7.599   4.729
 3338TIP3    H2 9956   3.084   7.749   4.725
 3339TIP3   OH2 9957   6.386   2.191   3.674
 3339TIP3    H1 9958   6.463   2.143   3.705
 3339TIP3    H2 9959   6.311   2.139   3.705
 3340TIP3   OH2 9960   2.764   1.678   1.930
 3340TIP3    H1 9961   2.763   1.599   1.983
 3340TIP3    H2 9962   2.845   1.672   1.879
 3341TIP3   OH2 9963   8.308   2.485   0.437
 3341TIP3    H1 9964   8.336   2.573   0.411
 3341TIP3    H2 9965   8.378   2.454   0.495
 3342TIP3   OH2 9966   6.223   1.414   1.173
 3342TIP3    H1 9967   6.229   1.510   1.178
 3342TIP3    H2 9968   6.130   1.397   1.158
 3343TIP3   OH2 9969   2.620   3.969   3.704
 3343TIP3    H1 9970   2.700   3.919   3.720
 3343TIP3    H2 9971   2.573   3.967   3.788
 3344TIP3   OH2 9972   1.904   6.505   6.226
 3344TIP3    H1 9973   1.908   6.484   6.319
 3344TIP3    H2 9974   1.810   6.518   6.209
 3345TIP3   OH2 9975   2.288   0.638   4.517
 3345TIP3    H1 9976   2.245   0.723   4.512
 3345TIP3    H2 9977   2.270   0.606   4.605
 3346TIP3   OH2 9978   2.306   6.108   6.511
 3346TIP3    H1 9979   2.366   6.034   6.508
 3346TIP3    H2 9980   2.284   6.125   6.419
 3347TIP3   OH2 9981   5.689   1.550   3.387
 3347TIP3    H1 9982   5.637   1.630   3.393
 3347TIP3    H2 9983   5.767   1.576   3.337
 3348TIP3   OH2 9984   5.874   5.043   4.621
 3348TIP3    H1 9985   5.936   5.073   4.687
 3348TIP3    H2 9986   5.885   5.103   4.548
 3349TIP3   OH2 9987   5.270   5.770   5.635
 3349TIP3    H1 9988   5.317   5.698   5.677
 3349TIP3    H2 9989   5.272   5.749   5.541
 3350TIP3   OH2 9990   3.658   0.110   2.837
 3350TIP3    H1 9991   3.571   0.107   2.798
 3350TIP3    H2 9992   3.685   0.201   2.828
 3351TIP3   OH2 9993   0.393   3.600   4.542
 3351TIP3    H1 9994   0.330   3.591   4.471
 3351TIP3    H2 9995   0.343   3.583   4.622
 3352TIP3   OH2 9996   7.361   6.400   0.786
 3352TIP3    H1 9997   7.303   6.475   0.769
 3352TIP3    H2 9998   7.317   6.327   0.742
 3353TIP3   OH2 9999   6.485   6.050   5.923
 3353TIP3    H110000   6.487   5.986   5.853
 3353TIP3    H210001   6.557   6.111   5.902
 3354TIP3   OH210002   1.152   2.466   0.467
 3354TIP3    H110003   1.136   2.377   0.436
 3354TIP3    H210004   1.146   2.520   0.388
 3355TIP3   OH210005   3.125   7.775   0.659
 3355TIP3    H110006   3.164   7.752   0.743
 3355TIP3    H210007   3.032   7.788   0.679
 3356TIP3   OH210008   6.148   5.496   2.635
 3356TIP3    H110009   6.166   5.567   2.697
 3356TIP3    H210010   6.154   5.538   2.549
 3357TIP3   OH210011   7.365   1.740   3.824
 3357TIP3    H110012   7.339   1.691   3.746
 3357TIP3    H210013   7.329   1.828   3.809
 3358TIP3   OH210014   6.745   0.239   3.522
 3358TIP3    H110015   6.758   0.182   3.446
 3358TIP3    H210016   6.663   0.285   3.504
 3359TIP3   OH210017   6.805   5.659   0.026
 3359TIP3    H110018   6.720   5.685   0.061
 3359TIP3    H210019   6.807   5.564   0.035
 3360TIP3   OH210020   5.044   0.496   4.249
 3360TIP3    H110021   5.007   0.553   4.182
 3360TIP3    H210022   5.003   0.411   4.232
 3361TIP3   OH210023   7.365   0.778   0.395
 3361TIP3    H110024   7.440   0.808   0.447
 3361TIP3    H210025   7.401   0.710   0.338
 3362TIP3   OH210026   3.129   0.386   4.290
 3362TIP3    H110027   3.119   0.450   4.360
 3362TIP3    H210028   3.048   0.393   4.239
 3363TIP3   OH210029   3.363   4.123   1.664
 3363TIP3    H110030   3.277   4.159   1.688
 3363TIP3    H210031   3.343   4.044   1.614
 3364TIP3   OH210032   0.218   4.187   1.161
 3364TIP3    H110033   0.137   4.232   1.185
 3364TIP3    H210034   0.255   4.238   1.090
 3365TIP3   OH210035   1.036   0.057   6.558
 3365TIP3    H110036   1.030   0.153   6.562
 3365TIP3    H210037   1.066   0.032   6.646
 3366TIP3   OH210038   2.598   7.390   2.117
 3366TIP3    H110039   2.558   7.379   2.031
 3366TIP3    H210040   2.552   7.464   2.156
 3367TIP3   OH210041   6.882   1.963   1.117
 3367TIP3    H110042   6.824   1.917   1.178
 3367TIP3    H210043   6.961   1.910   1.114
 3368TIP3   OH210044   5.350   2.375   5.874
 3368TIP3    H110045   5.294   2.299   5.861
 3368TIP3    H210046   5.364   2.379   5.968
 3369TIP3   OH210047   3.178   6.159   1.884
 3369TIP3    H110048   3.179   6.210   1.965
 3369TIP3    H210049   3.179   6.224   1.815
 3370TIP3   OH210050   7.124   4.182   5.445
 3370TIP3    H110051   7.193   4.117   5.437
 3370TIP3    H210052   7.054   4.151   5.388
 3371TIP3   OH210053   3.489   4.408   6.086
 3371TIP3    H110054   3.575   4.423   6.124
 3371TIP3    H210055   3.477   4.313   6.089
 3372TIP3   OH210056   8.237   1.150   3.529
 3372TIP3    H110057   8.311   1.210   3.519
 3372TIP3    H210058   8.222   1.116   3.441
 3373TIP3   OH210059   5.228   3.984   2.524
 3373TIP3    H110060   5.290   3.913   2.508
 3373TIP3    H210061   5.227   4.035   2.443
 3374TIP3   OH210062   0.478   0.301   1.934
 3374TIP3    H110063   0.475   0.250   2.014
 3374TIP3    H210064   0.398   0.354   1.936
 3375TIP3   OH210065   5.207   7.254   6.114
 3375TIP3    H110066   5.203   7.220   6.024
 3375TIP3    H210067   5.120   7.291   6.129
 3376TIP3   OH210068   3.935   4.240   3.173
 3376TIP3    H110069   3.913   4.306   3.239
 3376TIP3    H210070   3.889   4.270   3.094
 3377TIP3   OH210071   1.511   2.903   6.429
 3377TIP3    H110072   1.562   2.833   6.387
 3377TIP3    H210073   1.487   2.961   6.357
 3378TIP3   OH210074   6.914   5.538   1.207
 3378TIP3    H110075   6.926   5.478   1.281
 3378TIP3    H210076   6.829   5.513   1.169
 3379TIP3   OH210077   3.242   2.982   6.718
 3379TIP3    H110078   3.319   3.040   6.719
 3379TIP3    H210079   3.168   3.040   6.737
 3380TIP3   OH210080   7.740   6.417   0.817
 3380TIP3    H110081   7.666   6.384   0.869
 3380TIP3    H210082   7.699   6.455   0.739
 3381TIP3   OH210083   1.586   6.107   0.107
 3381TIP3    H110084   1.632   6.026   0.130
 3381TIP3    H210085   1.537   6.131   0.186
 3382TIP3   OH210086   5.428   7.811   4.427
 3382TIP3    H110087   5.428   7.817   4.522
 3382TIP3    H210088   5.503   7.864   4.399
 3383TIP3   OH210089   4.849   2.205   4.103
 3383TIP3    H110090   4.769   2.233   4.147
 3383TIP3    H210091   4.918   2.260   4.140
 3384TIP3   OH210092   8.122   2.306   2.903
 3384TIP3    H110093   8.168   2.390   2.895
 3384TIP3    H210094   8.076   2.297   2.820
 3385TIP3   OH210095   0.581   6.656   2.179
 3385TIP3    H110096   0.509   6.682   2.237
 3385TIP3    H210097   0.637   6.733   2.175
 3386TIP3   OH210098   5.586   3.430   2.764
 3386TIP3    H110099   5.676   3.397   2.751
 3386TIP3    H210100   5.598   3.519   2.797
 3387TIP3   OH210101   8.100   3.264   3.266
 3387TIP3    H110102   8.188   3.226   3.275
 3387TIP3    H210103   8.116   3.351   3.228
 3388TIP3   OH210104   4.630   5.518   0.890
 3388TIP3    H110105   4.711   5.564   0.870
 3388TIP3    H210106   4.652   5.463   0.965
 3389TIP3   OH210107   6.028   6.285   4.678
 3389TIP3    H110108   5.963   6.317   4.740
 3389TIP3    H210109   5.978   6.236   4.613
 3390TIP3   OH210110   5.823   2.052   4.354
 3390TIP3    H110111   5.879   2.056   4.431
 3390TIP3    H210112   5.881   2.025   4.283
 3391TIP3   OH210113   2.346   5.704   5.227
 3391TIP3    H110114   2.286   5.773   5.255
 3391TIP3    H210115   2.298   5.655   5.161
 3392TIP3   OH210116   7.583   5.434   0.484
 3392TIP3    H110117   7.580   5.376   0.408
 3392TIP3    H210118   7.504   5.412   0.533
 3393TIP3   OH210119   1.190   0.323   0.479
 3393TIP3    H110120   1.279   0.348   0.455
 3393TIP3    H210121   1.135   0.360   0.410
 3394TIP3   OH210122   2.050   3.615   3.201
 3394TIP3    H110123   2.060   3.656   3.116
 3394TIP3    H210124   2.053   3.687   3.264
 3395TIP3   OH210125   6.452   4.831   4.498
 3395TIP3    H110126   6.371   4.781   4.505
 3395TIP3    H210127   6.511   4.790   4.561
 3396TIP3   OH210128   3.621   0.479   4.090
 3396TIP3    H110129   3.627   0.416   4.163
 3396TIP3    H210130   3.529   0.506   4.089
 3397TIP3   OH210131   7.241   1.359   0.227
 3397TIP3    H110132   7.289   1.335   0.306
 3397TIP3    H210133   7.292   1.320   0.156
 3398TIP3   OH210134   7.573   4.636   4.776
 3398TIP3    H110135   7.555   4.697   4.848
 3398TIP3    H210136   7.493   4.584   4.768
 3399TIP3   OH210137   4.329   2.856   0.155
 3399TIP3    H110138   4.380   2.936   0.162
 3399TIP3    H210139   4.360   2.815   0.074
 3400TIP3   OH210140   3.421   5.891   0.102
 3400TIP3    H110141   3.369   5.891   0.182
 3400TIP3    H210142   3.379   5.826   0.045
 3401TIP3   OH210143   5.604   6.734   6.767
 3401TIP3    H110144   5.656   6.657   6.742
 3401TIP3    H210145   5.667   6.806   6.766
 3402TIP3   OH210146   3.576   5.987   4.363
 3402TIP3    H110147   3.634   5.945   4.299
 3402TIP3    H210148   3.488   5.967   4.331
 3403TIP3   OH210149   6.625   1.157   3.510
 3403TIP3    H110150   6.670   1.192   3.587
 3403TIP3    H210151   6.534   1.186   3.520
 3404TIP3   OH210152   7.024   2.065   1.369
 3404TIP3    H110153   6.974   2.058   1.451
 3404TIP3    H210154   6.958   2.084   1.303
 3405TIP3   OH210155   0.953   0.480   4.025
 3405TIP3    H110156   0.969   0.556   3.968
 3405TIP3    H210157   0.967   0.405   3.968
 3406TIP3   OH210158   7.310   6.435   2.292
 3406TIP3    H110159   7.217   6.454   2.304
 3406TIP3    H210160   7.326   6.356   2.345
 3407TIP3   OH210161   1.720   3.700   4.479
 3407TIP3    H110162   1.727   3.643   4.403
 3407TIP3    H210163   1.782   3.771   4.462
 3408TIP3   OH210164   6.655   6.180   2.669
 3408TIP3    H110165   6.725   6.117   2.691
 3408TIP3    H210166   6.700   6.264   2.660
 3409TIP3   OH210167   7.387   2.273   5.726
 3409TIP3    H110168   7.384   2.293   5.632
 3409TIP3    H210169   7.298   2.292   5.756
 3410TIP3   OH210170   6.126   7.691   5.668
 3410TIP3    H110171   6.113   7.602   5.701
 3410TIP3    H210172   6.068   7.697   5.592
 3411TIP3   OH210173   8.393   2.164   0.460
 3411TIP3    H110174   8.432   2.096   0.406
 3411TIP3    H210175   8.344   2.218   0.399
 3412TIP3   OH210176   4.301   3.490   2.489
 3412TIP3    H110177   4.305   3.526   2.400
 3412TIP3    H210178   4.393   3.472   2.511
 3413TIP3   OH210179   6.424   2.568   4.166
 3413TIP3    H110180   6.486   2.504   4.201
 3413TIP3    H210181   6.364   2.586   4.238
 3414TIP3   OH210182   5.063   1.735   3.220
 3414TIP3    H110183   5.158   1.728   3.223
 3414TIP3    H210184   5.042   1.741   3.127
 3415TIP3   OH210185   1.709   3.179   0.363
 3415TIP3    H110186   1.690   3.098   0.409
 3415TIP3    H210187   1.804   3.180   0.354
 3416TIP3   OH210188   6.305   1.846   4.209
 3416TIP3    H110189   6.226   1.885   4.245
 3416TIP3    H210190   6.361   1.830   4.285
 3417TIP3   OH210191   0.900   2.004   2.187
 3417TIP3    H110192   0.902   2.014   2.282
 3417TIP3    H210193   0.862   2.086   2.156
 3418TIP3   OH210194   3.639   6.891   6.563
 3418TIP3    H110195   3.612   6.802   6.540
 3418TIP3    H210196   3.600   6.946   6.494
 3419TIP3   OH210197   5.138   2.305   3.804
 3419TIP3    H110198   5.053   2.275   3.835
 3419TIP3    H210199   5.118   2.372   3.739
 3420TIP3   OH210200   2.325   3.147   4.902
 3420TIP3    H110201   2.356   3.057   4.888
 3420TIP3    H210202   2.399   3.202   4.878
 3421TIP3   OH210203   1.286   6.050   2.034
 3421TIP3    H110204   1.206   6.076   1.986
 3421TIP3    H210205   1.295   6.116   2.103
 3422TIP3   OH210206   6.862   2.738   6.672
 3422TIP3    H110207   6.860   2.755   6.578
 3422TIP3    H210208   6.852   2.644   6.680
 3423TIP3   OH210209   5.437   6.718   2.900
 3423TIP3    H110210   5.455   6.798   2.949
 3423TIP3    H210211   5.462   6.740   2.810
 3424TIP3   OH210212   3.613   1.078   1.712
 3424TIP3    H110213   3.613   1.021   1.635
 3424TIP3    H210214   3.530   1.126   1.706
 3425TIP3   OH210215   0.765   3.647   0.380
 3425TIP3    H110216   0.709   3.590   0.433
 3425TIP3    H210217   0.784   3.721   0.438
 3426TIP3   OH210218   8.178   2.523   4.766
 3426TIP3    H110219   8.223   2.513   4.849
 3426TIP3    H210220   8.224   2.594   4.722
 3427TIP3   OH210221   7.685   2.282   4.972
 3427TIP3    H110222   7.775   2.294   4.942
 3427TIP3    H210223   7.647   2.220   4.911
 3428TIP3   OH210224   1.840   7.526   0.092
 3428TIP3    H110225   1.774   7.459   0.074
 3428TIP3    H210226   1.884   7.539   0.009
 3429TIP3   OH210227   7.131   4.275   6.498
 3429TIP3    H110228   7.081   4.194   6.488
 3429TIP3    H210229   7.223   4.246   6.500
 3430TIP3   OH210230   0.483   4.397   1.474
 3430TIP3    H110231   0.507   4.363   1.388
 3430TIP3    H210232   0.522   4.336   1.536
 3431TIP3   OH210233   4.639   3.959   4.837
 3431TIP3    H110234   4.546   3.953   4.857
 3431TIP3    H210235   4.648   4.039   4.786
 3432TIP3   OH210236   2.742   2.416   5.905
 3432TIP3    H110237   2.660   2.376   5.934
 3432TIP3    H210238   2.809   2.353   5.930
 3433TIP3   OH210239   4.835   6.869   2.740
 3433TIP3    H110240   4.820   6.859   2.646
 3433TIP3    H210241   4.751   6.848   2.781
 3434TIP3   OH210242   6.250   4.445   1.659
 3434TIP3    H110243   6.225   4.358   1.628
 3434TIP3    H210244   6.342   4.454   1.632
 3435TIP3   OH210245   1.809   7.433   1.813
 3435TIP3    H110246   1.886   7.476   1.849
 3435TIP3    H210247   1.827   7.425   1.719
 3436TIP3   OH210248   4.111   3.534   4.592
 3436TIP3    H110249   4.148   3.606   4.540
 3436TIP3    H210250   4.035   3.573   4.635
 3437TIP3   OH210251   2.587   5.686   5.045
 3437TIP3    H110252   2.530   5.704   4.971
 3437TIP3    H210253   2.534   5.705   5.122
 3438TIP3   OH210254   6.217   7.269   6.491
 3438TIP3    H110255   6.130   7.272   6.453
 3438TIP3    H210256   6.229   7.356   6.529
 3439TIP3   OH210257   4.825   1.779   4.202
 3439TIP3    H110258   4.756   1.728   4.245
 3439TIP3    H210259   4.883   1.713   4.165
 3440TIP3   OH210260   6.173   0.212   5.533
 3440TIP3    H110261   6.269   0.215   5.535
 3440TIP3    H210262   6.152   0.122   5.509
 3441TIP3   OH210263   5.469   2.287   4.481
 3441TIP3    H110264   5.444   2.340   4.405
 3441TIP3    H210265   5.455   2.197   4.453
 3442TIP3   OH210266   3.775   3.624   5.400
 3442TIP3    H110267   3.694   3.573   5.406
 3442TIP3    H210268   3.779   3.654   5.309
 3443TIP3   OH210269   1.216   7.496   2.043
 3443TIP3    H110270   1.263   7.499   1.960
 3443TIP3    H210271   1.128   7.526   2.023
 3444TIP3   OH210272   2.661   7.642   5.023
 3444TIP3    H110273   2.574   7.606   5.005
 3444TIP3    H210274   2.721   7.576   4.988
 3445TIP3   OH210275   3.788   6.355   0.140
 3445TIP3    H110276   3.700   6.319   0.138
 3445TIP3    H210277   3.811   6.368   0.047
 3446TIP3   OH210278   1.078   6.135   2.616
 3446TIP3    H110279   1.078   6.053   2.666
 3446TIP3    H210280   0.999   6.131   2.562
 3447TIP3   OH210281   6.112   3.755   3.775
 3447TIP3    H110282   6.192   3.781   3.729
 3447TIP3    H210283   6.139   3.742   3.866
 3448TIP3   OH210284   7.761   7.283   5.537
 3448TIP3    H110285   7.800   7.305   5.453
 3448TIP3    H210286   7.670   7.313   5.530
 3449TIP3   OH210287   6.695   3.140   1.219
 3449TIP3    H110288   6.786   3.167   1.225
 3449TIP3    H210289   6.682   3.120   1.126
 3450TIP3   OH210290   5.537   7.237   2.382
 3450TIP3    H110291   5.567   7.325   2.404
 3450TIP3    H210292   5.488   7.247   2.301
 3451TIP3   OH210293   0.848   7.433   4.804
 3451TIP3    H110294   0.893   7.468   4.880
 3451TIP3    H210295   0.776   7.381   4.841
 3452TIP3   OH210296   2.157   0.916   1.937
 3452TIP3    H110297   2.104   0.853   1.986
 3452TIP3    H210298   2.236   0.927   1.989
 3453TIP3   OH210299   2.981   4.551   4.956
 3453TIP3    H110300   2.888   4.566   4.973
 3453TIP3    H210301   2.983   4.516   4.867
 3454TIP3   OH210302   4.229   7.358   0.609
 3454TIP3    H110303   4.238   7.287   0.673
 3454TIP3    H210304   4.311   7.355   0.559
 3455TIP3   OH210305   5.518   5.968   0.575
 3455TIP3    H110306   5.451   5.903   0.593
 3455TIP3    H210307   5.494   6.043   0.630
 3456TIP3   OH210308   6.793   0.469   3.268
 3456TIP3    H110309   6.806   0.515   3.185
 3456TIP3    H210310   6.880   0.469   3.309
 3457TIP3   OH210311   4.008   1.547   3.503
 3457TIP3    H110312   3.998   1.558   3.598
 3457TIP3    H210313   3.947   1.611   3.466
 3458TIP3   OH210314   6.293   5.167   0.431
 3458TIP3    H110315   6.361   5.207   0.376
 3458TIP3    H210316   6.283   5.079   0.397
 3459TIP3   OH210317   0.372   6.869   1.117
 3459TIP3    H110318   0.347   6.778   1.133
 3459TIP3    H210319   0.304   6.904   1.060
 3460TIP3   OH210320   3.803   1.886   2.692
 3460TIP3    H110321   3.808   1.876   2.597
 3460TIP3    H210322   3.893   1.872   2.722
 3461TIP3   OH210323   3.377   1.963   5.651
 3461TIP3    H110324   3.382   2.059   5.649
 3461TIP3    H210325   3.308   1.945   5.715
 3462TIP3   OH210326   6.558   6.824   6.818
 3462TIP3    H110327   6.563   6.744   6.767
 3462TIP3    H210328   6.594   6.801   6.904
 3463TIP3   OH210329   4.652   2.038   3.777
 3463TIP3    H110330   4.593   2.113   3.775
 3463TIP3    H210331   4.688   2.038   3.865
 3464TIP3   OH210332   2.360   0.214   5.950
 3464TIP3    H110333   2.363   0.248   5.861
 3464TIP3    H210334   2.442   0.164   5.959
 3465TIP3   OH210335   5.539   7.639   5.148
 3465TIP3    H110336   5.583   7.617   5.066
 3465TIP3    H210337   5.562   7.731   5.163
 3466TIP3   OH210338   4.324   1.308   0.252
 3466TIP3    H110339   4.251   1.301   0.314
 3466TIP3    H210340   4.284   1.339   0.171
 3467TIP3   OH210341   5.938   5.118   0.641
 3467TIP3    H110342   5.993   5.168   0.581
 3467TIP3    H210343   5.900   5.184   0.699
 3468TIP3   OH210344   3.669   4.424   1.183
 3468TIP3    H110345   3.752   4.379   1.167
 3468TIP3    H210346   3.668   4.438   1.278
 3469TIP3   OH210347   1.412   7.270   4.180
 3469TIP3    H110348   1.442   7.250   4.269
 3469TIP3    H210349   1.383   7.185   4.146
 3470TIP3   OH210350   0.775   4.336   1.274
 3470TIP3    H110351   0.847   4.373   1.325
 3470TIP3    H210352   0.751   4.256   1.321
 3471TIP3   OH210353   4.889   1.266   1.089
 3471TIP3    H110354   4.842   1.183   1.089
 3471TIP3    H210355   4.940   1.266   1.170
 3472TIP3   OH210356   5.727   1.582   4.162
 3472TIP3    H110357   5.724   1.593   4.067
 3472TIP3    H210358   5.648   1.531   4.183
 3473TIP3   OH210359   0.861   4.767   0.381
 3473TIP3    H110360   0.953   4.782   0.403
 3473TIP3    H210361   0.862   4.743   0.288
 3474TIP3   OH210362   5.873   6.490   0.377
 3474TIP3    H110363   5.847   6.579   0.355
 3474TIP3    H210364   5.824   6.469   0.456
 3475TIP3   OH210365   3.780   4.627   6.070
 3475TIP3    H110366   3.838   4.630   5.994
 3475TIP3    H210367   3.702   4.674   6.043
 3476TIP3   OH210368   3.511   4.979   3.841
 3476TIP3    H110369   3.536   5.058   3.889
 3476TIP3    H210370   3.576   4.972   3.771
 3477TIP3   OH210371   5.116   3.011   4.457
 3477TIP3    H110372   5.080   3.008   4.369
 3477TIP3    H210373   5.079   2.934   4.501
 3478TIP3   OH210374   2.430   6.793   3.346
 3478TIP3    H110375   2.494   6.843   3.296
 3478TIP3    H210376   2.448   6.701   3.326
 3479TIP3   OH210377   3.478   0.439   1.817
 3479TIP3    H110378   3.517   0.447   1.730
 3479TIP3    H210379   3.503   0.351   1.847
 3480TIP3   OH210380   7.728   2.186   3.885
 3480TIP3    H110381   7.802   2.171   3.826
 3480TIP3    H210382   7.721   2.106   3.937
 3481TIP3   OH210383   6.205   0.720   5.294
 3481TIP3    H110384   6.163   0.662   5.229
 3481TIP3    H210385   6.239   0.661   5.361
 3482TIP3   OH210386   1.890  -0.028   1.394
 3482TIP3    H110387   1.895   0.027   1.316
 3482TIP3    H210388   1.931   0.025   1.463
 3483TIP3   OH210389   1.735   1.001   0.116
 3483TIP3    H110390   1.753   0.927   0.173
 3483TIP3    H210391   1.809   1.061   0.130
 3484TIP3   OH210392   5.968   0.822   2.103
 3484TIP3    H110393   5.898   0.860   2.048
 3484TIP3    H210394   6.037   0.798   2.041
 3485TIP3   OH210395   3.737   4.619   2.803
 3485TIP3    H110396   3.650   4.653   2.782
 3485TIP3    H210397   3.770   4.584   2.721
 3486TIP3   OH210398   7.983   3.764   2.518
 3486TIP3    H110399   8.067   3.723   2.540
 3486TIP3    H210400   7.929   3.752   2.596
 3487TIP3   OH210401   5.295   3.320   3.830
 3487TIP3    H110402   5.344   3.314   3.912
 3487TIP3    H210403   5.210   3.356   3.856
 3488TIP3   OH210404   5.653   6.299   0.142
 3488TIP3    H110405   5.684   6.249   0.066
 3488TIP3    H210406   5.733   6.321   0.190
 3489TIP3   OH210407   7.810   3.941   4.863
 3489TIP3    H110408   7.842   4.017   4.912
 3489TIP3    H210409   7.852   3.866   4.906
 3490TIP3   OH210410   3.206   5.061   1.179
 3490TIP3    H110411   3.224   5.119   1.105
 3490TIP3    H210412   3.126   5.098   1.218
 3491TIP3   OH210413   7.689   2.681   2.556
 3491TIP3    H110414   7.705   2.729   2.637
 3491TIP3    H210415   7.634   2.740   2.504
 3492TIP3   OH210416   1.808   2.937   4.604
 3492TIP3    H110417   1.765   2.896   4.529
 3492TIP3    H210418   1.898   2.953   4.574
 3493TIP3   OH210419   3.630   6.983   0.133
 3493TIP3    H110420   3.573   7.048   0.174
 3493TIP3    H210421   3.663   6.931   0.206
 3494TIP3   OH210422   3.351   7.470   3.679
 3494TIP3    H110423   3.401   7.396   3.646
 3494TIP3    H210424   3.339   7.527   3.603
 3495TIP3   OH210425   4.444   7.377   4.337
 3495TIP3    H110426   4.527   7.391   4.293
 3495TIP3    H210427   4.383   7.435   4.292
 3496TIP3   OH210428   8.051   2.082   1.970
 3496TIP3    H110429   8.124   2.106   1.912
 3496TIP3    H210430   8.037   1.988   1.953
 3497TIP3   OH210431   5.674   3.688   3.477
 3497TIP3    H110432   5.721   3.652   3.552
 3497TIP3    H210433   5.733   3.673   3.403
 3498TIP3   OH210434   4.045   2.896   6.316
 3498TIP3    H110435   3.984   2.826   6.294
 3498TIP3    H210436   4.124   2.876   6.266
 3499TIP3   OH210437   1.977   5.368   5.004
 3499TIP3    H110438   1.922   5.348   4.928
 3499TIP3    H210439   1.916   5.407   5.067
 3500TIP3   OH210440   1.348   1.479   6.045
 3500TIP3    H110441   1.408   1.502   5.974
 3500TIP3    H210442   1.268   1.528   6.026
 3501TIP3   OH210443   0.937   1.338   6.553
 3501TIP3    H110444   0.899   1.336   6.641
 3501TIP3    H210445   0.862   1.329   6.494
 3502TIP3   OH210446   7.903   0.756   5.193
 3502TIP3    H110447   7.915   0.697   5.118
 3502TIP3    H210448   7.965   0.827   5.178
 3503TIP3   OH210449   1.498   4.041   0.626
 3503TIP3    H110450   1.546   4.057   0.707
 3503TIP3    H210451   1.549   3.974   0.580
 3504TIP3   OH210452   2.075   7.373   4.678
 3504TIP3    H110453   2.161   7.413   4.679
 3504TIP3    H210454   2.052   7.362   4.771
 3505TIP3   OH210455   0.852   2.948   5.745
 3505TIP3    H110456   0.893   3.021   5.699
 3505TIP3    H210457   0.825   2.888   5.675
 3506TIP3   OH210458   0.559   4.407   4.690
 3506TIP3    H110459   0.639   4.362   4.717
 3506TIP3    H210460   0.561   4.406   4.594
 3507TIP3   OH210461   0.531   0.658   6.854
 3507TIP3    H110462   0.445   0.655   6.897
 3507TIP3    H210463   0.521   0.601   6.778
 3508TIP3   OH210464   3.054   1.316   1.537
 3508TIP3    H110465   3.039   1.400   1.493
 3508TIP3    H210466   3.045   1.335   1.630
 3509TIP3   OH210467   7.658   6.112   0.128
 3509TIP3    H110468   7.697   6.199   0.139
 3509TIP3    H210469   7.632   6.086   0.216
 3510TIP3   OH210470   5.049   0.234   5.762
 3510TIP3    H110471   5.118   0.206   5.823
 3510TIP3    H210472   5.070   0.325   5.742
 3511TIP3   OH210473   2.622   2.033   0.147
 3511TIP3    H110474   2.711   2.059   0.126
 3511TIP3    H210475   2.567   2.098   0.102
 3512TIP3   OH210476   5.258   3.111   2.864
 3512TIP3    H110477   5.172   3.084   2.833
 3512TIP3    H210478   5.247   3.129   2.957
 3513TIP3   OH210479   0.238   4.663   0.496
 3513TIP3    H110480   0.265   4.610   0.420
 3513TIP3    H210481   0.196   4.601   0.555
 3514TIP3   OH210482   7.415   3.086   5.671
 3514TIP3    H110483   7.323   3.085   5.700
 3514TIP3    H210484   7.411   3.121   5.582
 3515TIP3   OH210485   7.826   0.857   4.006
 3515TIP3    H110486   7.834   0.853   3.911
 3515TIP3    H210487   7.866   0.775   4.036
 3516TIP3   OH210488   6.937   1.449   6.041
 3516TIP3    H110489   6.862   1.487   6.086
 3516TIP3    H210490   6.899   1.385   5.981
 3517TIP3   OH210491   7.909   1.653   2.462
 3517TIP3    H110492   7.922   1.747   2.454
 3517TIP3    H210493   7.838   1.633   2.400
 3518TIP3   OH210494   1.524   7.138   5.837
 3518TIP3    H110495   1.489   7.179   5.758
 3518TIP3    H210496   1.618   7.129   5.820
 3519TIP3   OH210497   5.832   2.684   6.808
 3519TIP3    H110498   5.767   2.654   6.872
 3519TIP3    H210499   5.801   2.771   6.781
 3520TIP3   OH210500   0.460   3.736   6.465
 3520TIP3    H110501   0.556   3.732   6.465
 3520TIP3    H210502   0.436   3.747   6.373
 3521TIP3   OH210503   7.993   6.492   6.291
 3521TIP3    H110504   8.070   6.533   6.251
 3521TIP3    H210505   8.024   6.406   6.318
 3522TIP3   OH210506   3.896   1.198   4.723
 3522TIP3    H110507   3.820   1.149   4.690
 3522TIP3    H210508   3.881   1.204   4.817
 3523TIP3   OH210509   1.323   6.472   3.971
 3523TIP3    H110510   1.307   6.518   4.053
 3523TIP3    H210511   1.418   6.472   3.961
 3524TIP3   OH210512   3.410   1.083   2.001
 3524TIP3    H110513   3.458   1.155   1.960
 3524TIP3    H210514   3.323   1.088   1.961
 3525TIP3   OH210515   4.539   6.734   0.629
 3525TIP3    H110516   4.527   6.639   0.626
 3525TIP3    H210517   4.632   6.747   0.610
 3526TIP3   OH210518   2.978   6.931   5.926
 3526TIP3    H110519   2.945   6.875   5.855
 3526TIP3    H210520   3.031   6.872   5.980
 3527TIP3   OH210521   2.074   4.188   4.830
 3527TIP3    H110522   2.111   4.259   4.776
 3527TIP3    H210523   1.981   4.209   4.836
 3528TIP3   OH210524   2.516   7.651   4.300
 3528TIP3    H110525   2.574   7.702   4.242
 3528TIP3    H210526   2.481   7.582   4.244
 3529TIP3   OH210527   1.319   6.152   6.926
 3529TIP3    H110528   1.391   6.213   6.941
 3529TIP3    H210529   1.324   6.130   6.833
 3530TIP3   OH210530   2.347   0.467   3.946
 3530TIP3    H110531   2.330   0.374   3.928
 3530TIP3    H210532   2.314   0.513   3.869
 3531TIP3   OH210533   6.118   1.638   4.119
 3531TIP3    H110534   6.089   1.695   4.048
 3531TIP3    H210535   6.207   1.667   4.139
 3532TIP3   OH210536   6.999   6.653   6.376
 3532TIP3    H110537   6.921   6.598   6.378
 3532TIP3    H210538   7.071   6.595   6.399
 3533TIP3   OH210539   5.620   7.586   0.649
 3533TIP3    H110540   5.642   7.645   0.721
 3533TIP3    H210541   5.701   7.578   0.598
 3534TIP3   OH210542   3.407   1.313   2.584
 3534TIP3    H110543   3.417   1.322   2.489
 3534TIP3    H210544   3.335   1.372   2.606
 3535TIP3   OH210545   4.273   2.202   1.664
 3535TIP3    H110546   4.208   2.163   1.606
 3535TIP3    H210547   4.266   2.151   1.746
 3536TIP3   OH210548   3.635   6.372   4.622
 3536TIP3    H110549   3.653   6.320   4.700
 3536TIP3    H210550   3.557   6.332   4.583
 3537TIP3   OH210551   4.285   0.734   2.813
 3537TIP3    H110552   4.329   0.814   2.784
 3537TIP3    H210553   4.357   0.672   2.828
 3538TIP3   OH210554   4.421   6.345   0.845
 3538TIP3    H110555   4.490   6.361   0.781
 3538TIP3    H210556   4.368   6.425   0.843
 3539TIP3   OH210557   3.674   7.441   3.686
 3539TIP3    H110558   3.658   7.518   3.631
 3539TIP3    H210559   3.756   7.460   3.731
 3540TIP3   OH210560   7.329   0.173   2.159
 3540TIP3    H110561   7.408   0.222   2.140
 3540TIP3    H210562   7.264   0.207   2.097
 3541TIP3   OH210563   6.444   7.647   6.741
 3541TIP3    H110564   6.395   7.641   6.659
 3541TIP3    H210565   6.417   7.570   6.791
 3542TIP3   OH210566   1.864   0.165   5.715
 3542TIP3    H110567   1.950   0.135   5.744
 3542TIP3    H210568   1.869   0.260   5.720
 3543TIP3   OH210569   1.697   3.741   6.210
 3543TIP3    H110570   1.652   3.778   6.286
 3543TIP3    H210571   1.696   3.812   6.145
 3544TIP3   OH210572   5.949   6.867   3.257
 3544TIP3    H110573   5.911   6.778   3.260
 3544TIP3    H210574   5.997   6.869   3.175
 3545TIP3   OH210575   1.430   7.511   4.802
 3545TIP3    H110576   1.426   7.486   4.709
 3545TIP3    H210577   1.354   7.567   4.814
 3546TIP3   OH210578   1.976   5.024   1.017
 3546TIP3    H110579   1.979   4.957   0.948
 3546TIP3    H210580   2.066   5.028   1.051
 3547TIP3   OH210581   5.519   5.815   5.929
 3547TIP3    H110582   5.426   5.833   5.938
 3547TIP3    H210583   5.562   5.895   5.960
 3548TIP3   OH210584   7.459   6.342   4.781
 3548TIP3    H110585   7.478   6.352   4.688
 3548TIP3    H210586   7.376   6.294   4.783
 3549TIP3   OH210587   6.921   7.156   2.007
 3549TIP3    H110588   6.929   7.097   2.082
 3549TIP3    H210589   7.004   7.147   1.961
 3550TIP3   OH210590   4.764   2.995   2.975
 3550TIP3    H110591   4.806   3.022   3.056
 3550TIP3    H210592   4.727   2.909   2.995
 3551TIP3   OH210593   4.622   3.563   5.645
 3551TIP3    H110594   4.644   3.472   5.666
 3551TIP3    H210595   4.682   3.587   5.575
 3552TIP3   OH210596   3.022   3.877   4.718
 3552TIP3    H110597   3.111   3.910   4.732
 3552TIP3    H210598   3.032   3.812   4.648
 3553TIP3   OH210599   4.694   7.354   6.531
 3553TIP3    H110600   4.721   7.419   6.467
 3553TIP3    H210601   4.776   7.323   6.570
 3554TIP3   OH210602   4.380   2.456   5.086
 3554TIP3    H110603   4.374   2.444   5.181
 3554TIP3    H210604   4.321   2.390   5.050
 3555TIP3   OH210605   5.323   0.719   6.202
 3555TIP3    H110606   5.403   0.667   6.214
 3555TIP3    H210607   5.334   0.759   6.116
 3556TIP3   OH210608   4.146   0.094   5.602
 3556TIP3    H110609   4.053   0.073   5.596
 3556TIP3    H210610   4.170   0.124   5.515
 3557TIP3   OH210611   3.450   1.551   2.400
 3557TIP3    H110612   3.450   1.464   2.361
 3557TIP3    H210613   3.517   1.599   2.351
 3558TIP3   OH210614   6.859   6.011   2.420
 3558TIP3    H110615   6.767   6.022   2.395
 3558TIP3    H210616   6.865   5.920   2.449
 3559TIP3   OH210617   5.709   5.402   0.199
 3559TIP3    H110618   5.691   5.350   0.278
 3559TIP3    H210619   5.688   5.343   0.127
 3560TIP3   OH210620   4.409   4.548   0.858
 3560TIP3    H110621   4.433   4.640   0.852
 3560TIP3    H210622   4.318   4.544   0.829
 3561TIP3   OH210623   4.472   6.824   6.876
 3561TIP3    H110624   4.445   6.914   6.892
 3561TIP3    H210625   4.550   6.832   6.821
 3562TIP3   OH210626   7.870   1.119   1.380
 3562TIP3    H110627   7.884   1.182   1.309
 3562TIP3    H210628   7.774   1.111   1.386
 3563TIP3   OH210629   6.330   5.898   0.110
 3563TIP3    H110630   6.260   5.840   0.080
 3563TIP3    H210631   6.340   5.961   0.039
 3564TIP3   OH210632   7.679   5.338   4.919
 3564TIP3    H110633   7.734   5.408   4.885
 3564TIP3    H210634   7.715   5.258   4.880
 3565TIP3   OH210635   4.821   6.882   5.245
 3565TIP3    H110636   4.913   6.894   5.221
 3565TIP3    H210637   4.790   6.971   5.263
 3566TIP3   OH210638   0.132   1.685   3.529
 3566TIP3    H110639   0.046   1.662   3.563
 3566TIP3    H210640   0.119   1.692   3.435
 3567TIP3   OH210641   6.632   0.713   1.790
 3567TIP3    H110642   6.718   0.726   1.829
 3567TIP3    H210643   6.618   0.791   1.736
 3568TIP3   OH210644   3.878   6.861   1.430
 3568TIP3    H110645   3.803   6.920   1.420
 3568TIP3    H210646   3.881   6.842   1.524
 3569TIP3   OH210647   8.090   5.705   4.864
 3569TIP3    H110648   8.175   5.672   4.835
 3569TIP3    H210649   8.106   5.797   4.885
 3570TIP3   OH210650   7.140   4.418   5.958
 3570TIP3    H110651   7.090   4.345   5.995
 3570TIP3    H210652   7.173   4.384   5.875
 3571TIP3   OH210653   3.852   2.515   3.528
 3571TIP3    H110654   3.796   2.440   3.506
 3571TIP3    H210655   3.829   2.581   3.462
 3572TIP3   OH210656   3.443   3.157   5.351
 3572TIP3    H110657   3.455   3.088   5.416
 3572TIP3    H210658   3.428   3.110   5.269
 3573TIP3   OH210659   4.301   3.164   3.847
 3573TIP3    H110660   4.309   3.070   3.861
 3573TIP3    H210661   4.284   3.174   3.753
 3574TIP3   OH210662   3.076   2.653   3.223
 3574TIP3    H110663   3.106   2.568   3.189
 3574TIP3    H210664   3.111   2.656   3.312
 3575TIP3   OH210665   5.146   1.313   2.189
 3575TIP3    H110666   5.083   1.313   2.117
 3575TIP3    H210667   5.164   1.405   2.205
 3576TIP3   OH210668   6.205   7.179   2.507
 3576TIP3    H110669   6.146   7.173   2.432
 3576TIP3    H210670   6.162   7.241   2.566
 3577TIP3   OH210671   0.221   7.137   1.857
 3577TIP3    H110672   0.170   7.057   1.845
 3577TIP3    H210673   0.251   7.159   1.769
 3578TIP3   OH210674   2.632   0.871   4.664
 3578TIP3    H110675   2.660   0.959   4.689
 3578TIP3    H210676   2.659   0.815   4.737
 3579TIP3   OH210677   1.403   0.164   6.602
 3579TIP3    H110678   1.485   0.174   6.652
 3579TIP3    H210679   1.367   0.080   6.632
 3580TIP3   OH210680   8.190   0.697   4.698
 3580TIP3    H110681   8.200   0.691   4.793
 3580TIP3    H210682   8.275   0.730   4.668
 3581TIP3   OH210683   7.655   5.470   2.193
 3581TIP3    H110684   7.580   5.458   2.251
 3581TIP3    H210685   7.639   5.409   2.120
 3582TIP3   OH210686   0.260   4.509   6.753
 3582TIP3    H110687   0.292   4.599   6.764
 3582TIP3    H210688   0.276   4.467   6.838
 3583TIP3   OH210689   2.410   3.992   0.216
 3583TIP3    H110690   2.353   3.919   0.192
 3583TIP3    H210691   2.492   3.950   0.245
 3584TIP3   OH210692   3.245   2.497   3.431
 3584TIP3    H110693   3.326   2.546   3.419
 3584TIP3    H210694   3.226   2.460   3.345
 3585TIP3   OH210695   6.227   5.850   4.260
 3585TIP3    H110696   6.302   5.864   4.202
 3585TIP3    H210697   6.222   5.755   4.270
 3586TIP3   OH210698   1.797   6.759   1.369
 3586TIP3    H110699   1.720   6.723   1.326
 3586TIP3    H210700   1.843   6.807   1.300
 3587TIP3   OH210701   2.112   1.605   0.746
 3587TIP3    H110702   2.121   1.695   0.778
 3587TIP3    H210703   2.141   1.610   0.654
 3588TIP3   OH210704   6.244   7.649   0.737
 3588TIP3    H110705   6.268   7.731   0.694
 3588TIP3    H210706   6.220   7.675   0.826
 3589TIP3   OH210707   2.121   2.963   3.910
 3589TIP3    H110708   2.151   2.875   3.887
 3589TIP3    H210709   2.175   2.988   3.985
 3590TIP3   OH210710   0.841   2.971   3.978
 3590TIP3    H110711   0.772   2.908   4.000
 3590TIP3    H210712   0.843   3.031   4.052
 3591TIP3   OH210713   2.392   0.797   6.684
 3591TIP3    H110714   2.449   0.872   6.700
 3591TIP3    H210715   2.390   0.788   6.589
 3592TIP3   OH210716   1.244   6.035   4.296
 3592TIP3    H110717   1.228   5.998   4.382
 3592TIP3    H210718   1.311   6.103   4.310
 3593TIP3   OH210719   5.752   2.296   5.724
 3593TIP3    H110720   5.845   2.300   5.747
 3593TIP3    H210721   5.723   2.387   5.727
 3594TIP3   OH210722   2.641   0.096   0.824
 3594TIP3    H110723   2.703   0.033   0.788
 3594TIP3    H210724   2.609   0.144   0.748
 3595TIP3   OH210725   1.477   2.778   1.784
 3595TIP3    H110726   1.413   2.779   1.855
 3595TIP3    H210727   1.511   2.868   1.781
 3596TIP3   OH210728   7.432   3.512   0.176
 3596TIP3    H110729   7.402   3.509   0.267
 3596TIP3    H210730   7.370   3.458   0.128
 3597TIP3   OH210731   3.142   5.930   0.241
 3597TIP3    H110732   3.087   6.005   0.263
 3597TIP3    H210733   3.099   5.889   0.166
 3598TIP3   OH210734   3.575   5.667   4.934
 3598TIP3    H110735   3.564   5.581   4.893
 3598TIP3    H210736   3.668   5.687   4.924
 3599TIP3   OH210737   0.379   5.452   6.334
 3599TIP3    H110738   0.437   5.435   6.408
 3599TIP3    H210739   0.438   5.478   6.263
 3600TIP3   OH210740   2.675   3.953   1.445
 3600TIP3    H110741   2.686   4.031   1.390
 3600TIP3    H210742   2.716   3.883   1.395
 3601TIP3   OH210743   1.417   3.947   6.007
 3601TIP3    H110744   1.416   3.972   5.915
 3601TIP3    H210745   1.338   3.987   6.043
 3602TIP3   OH210746   4.900   6.156   3.782
 3602TIP3    H110747   4.859   6.151   3.868
 3602TIP3    H210748   4.833   6.125   3.721
 3603TIP3   OH210749   3.357   6.196   3.428
 3603TIP3    H110750   3.382   6.129   3.364
 3603TIP3    H210751   3.436   6.248   3.440
 3604TIP3   OH210752   3.126   5.614   1.116
 3604TIP3    H110753   3.143   5.598   1.023
 3604TIP3    H210754   3.044   5.662   1.117
 3605TIP3   OH210755   1.044   4.734   5.977
 3605TIP3    H110756   0.985   4.789   5.926
 3605TIP3    H210757   0.995   4.653   5.991
 3606TIP3   OH210758   4.975   0.914   0.816
 3606TIP3    H110759   5.031   0.971   0.764
 3606TIP3    H210760   5.027   0.896   0.895
 3607TIP3   OH210761   2.001   0.764   6.020
 3607TIP3    H110762   1.929   0.747   5.959
 3607TIP3    H210763   2.080   0.756   5.967
 3608TIP3   OH210764   5.612   6.781   5.877
 3608TIP3    H110765   5.572   6.695   5.892
 3608TIP3    H210766   5.663   6.797   5.957
 3609TIP3   OH210767   6.619   3.385   3.903
 3609TIP3    H110768   6.651   3.306   3.947
 3609TIP3    H210769   6.595   3.444   3.975
 3610TIP3   OH210770   6.865   1.693   5.578
 3610TIP3    H110771   6.788   1.681   5.634
 3610TIP3    H210772   6.935   1.646   5.622
 3611TIP3   OH210773   3.522   7.657   4.386
 3611TIP3    H110774   3.470   7.646   4.307
 3611TIP3    H210775   3.599   7.600   4.372
 3612TIP3   OH210776   1.511   2.208   4.560
 3612TIP3    H110777   1.598   2.242   4.579
 3612TIP3    H210778   1.510   2.121   4.599
 3613TIP3   OH210779   7.508   4.898   4.948
 3613TIP3    H110780   7.469   4.957   5.012
 3613TIP3    H210781   7.524   4.817   4.996
 3614TIP3   OH210782   0.216   4.171   2.414
 3614TIP3    H110783   0.176   4.086   2.395
 3614TIP3    H210784   0.194   4.187   2.506
 3615TIP3   OH210785   8.199   6.424   0.953
 3615TIP3    H110786   8.148   6.408   0.873
 3615TIP3    H210787   8.261   6.352   0.956
 3616TIP3   OH210788   3.838   0.482   0.336
 3616TIP3    H110789   3.907   0.445   0.390
 3616TIP3    H210790   3.824   0.570   0.371
 3617TIP3   OH210791   2.357   0.135   4.296
 3617TIP3    H110792   2.320   0.047   4.302
 3617TIP3    H210793   2.313   0.184   4.366
 3618TIP3   OH210794   0.209   5.359   1.715
 3618TIP3    H110795   0.118   5.331   1.711
 3618TIP3    H210796   0.258   5.285   1.678
 3619TIP3   OH210797   5.387   3.396   3.027
 3619TIP3    H110798   5.474   3.357   3.018
 3619TIP3    H210799   5.334   3.325   3.063
 3620TIP3   OH210800   3.205   3.156   4.464
 3620TIP3    H110801   3.211   3.218   4.536
 3620TIP3    H210802   3.256   3.080   4.492
 3621TIP3   OH210803   6.065   1.717   0.859
 3621TIP3    H110804   6.088   1.725   0.952
 3621TIP3    H210805   5.972   1.695   0.860
 3622TIP3   OH210806   6.148   5.110   1.190
 3622TIP3    H110807   6.134   5.204   1.182
 3622TIP3    H210808   6.061   5.071   1.180
 3623TIP3   OH210809   7.584   4.078   5.960
 3623TIP3    H110810   7.491   4.057   5.961
 3623TIP3    H210811   7.620   4.031   6.035
 3624TIP3   OH210812   2.961   7.176   6.718
 3624TIP3    H110813   3.028   7.238   6.690
 3624TIP3    H210814   2.880   7.208   6.678
 3625TIP3   OH210815   2.168   1.096   4.961
 3625TIP3    H110816   2.087   1.146   4.961
 3625TIP3    H210817   2.209   1.115   5.045
 3626TIP3   OH210818   3.035   7.582   5.866
 3626TIP3    H110819   3.109   7.590   5.805
 3626TIP3    H210820   2.977   7.518   5.826
 3627TIP3   OH210821   6.637   7.679   1.450
 3627TIP3    H110822   6.662   7.588   1.467
 3627TIP3    H210823   6.556   7.691   1.499
 3628TIP3   OH210824   2.999   2.989   4.376
 3628TIP3    H110825   3.012   2.899   4.405
 3628TIP3    H210826   3.053   3.042   4.435
 3629TIP3   OH210827   1.084   0.633   4.524
 3629TIP3    H110828   1.044   0.627   4.438
 3629TIP3    H210829   1.177   0.648   4.506
 3630TIP3   OH210830   2.151   4.483   3.486
 3630TIP3    H110831   2.240   4.467   3.455
 3630TIP3    H210832   2.099   4.411   3.448
 3631TIP3   OH210833   2.609   0.301   0.343
 3631TIP3    H110834   2.637   0.236   0.408
 3631TIP3    H210835   2.529   0.264   0.306
 3632TIP3   OH210836   1.291   3.700   1.188
 3632TIP3    H110837   1.382   3.711   1.217
 3632TIP3    H210838   1.291   3.734   1.098
 3633TIP3   OH210839   0.482   2.111   4.547
 3633TIP3    H110840   0.518   2.101   4.459
 3633TIP3    H210841   0.553   2.150   4.598
 3634TIP3   OH210842   0.566   1.869   6.284
 3634TIP3    H110843   0.642   1.854   6.227
 3634TIP3    H210844   0.542   1.781   6.314
 3635TIP3   OH210845   2.550   6.025   1.629
 3635TIP3    H110846   2.561   6.061   1.717
 3635TIP3    H210847   2.632   6.047   1.584
 3636TIP3   OH210848   0.524   6.056   6.126
 3636TIP3    H110849   0.604   6.074   6.177
 3636TIP3    H210850   0.491   6.142   6.102
 3637TIP3   OH210851   7.020   1.256   2.810
 3637TIP3    H110852   7.080   1.308   2.863
 3637TIP3    H210853   6.950   1.318   2.786
 3638TIP3   OH210854   6.928   1.255   0.705
 3638TIP3    H110855   6.939   1.292   0.793
 3638TIP3    H210856   6.894   1.328   0.652
 3639TIP3   OH210857   2.288   7.525   2.933
 3639TIP3    H110858   2.238   7.595   2.892
 3639TIP3    H210859   2.233   7.494   3.004
 3640TIP3   OH210860   8.024   3.124   0.828
 3640TIP3    H110861   8.024   3.050   0.767
 3640TIP3    H210862   7.955   3.182   0.796
 3641TIP3   OH210863   7.806   0.346   3.298
 3641TIP3    H110864   7.821   0.345   3.392
 3641TIP3    H210865   7.734   0.408   3.285
 3642TIP3   OH210866   8.113   1.510   1.907
 3642TIP3    H110867   8.148   1.513   1.817
 3642TIP3    H210868   8.174   1.564   1.958
 3643TIP3   OH210869   4.353   5.433   6.794
 3643TIP3    H110870   4.410   5.372   6.747
 3643TIP3    H210871   4.368   5.517   6.752
 3644TIP3   OH210872   3.603   6.672   1.458
 3644TIP3    H110873   3.539   6.732   1.419
 3644TIP3    H210874   3.552   6.593   1.478
 3645TIP3   OH210875   5.685   1.501   4.745
 3645TIP3    H110876   5.636   1.508   4.827
 3645TIP3    H210877   5.775   1.523   4.770
 3646TIP3   OH210878   7.944   1.329   6.543
 3646TIP3    H110879   7.994   1.327   6.461
 3646TIP3    H210880   7.954   1.241   6.580
 3647TIP3   OH210881   4.204   2.163   6.125
 3647TIP3    H110882   4.229   2.239   6.178
 3647TIP3    H210883   4.188   2.094   6.188
 3648TIP3   OH210884   4.601   6.432   1.071
 3648TIP3    H110885   4.536   6.459   1.005
 3648TIP3    H210886   4.644   6.513   1.098
 3649TIP3   OH210887   5.142   2.647   6.442
 3649TIP3    H110888   5.166   2.699   6.519
 3649TIP3    H210889   5.185   2.692   6.370
 3650TIP3   OH210890   0.112   3.944   2.024
 3650TIP3    H110891   0.050   4.012   2.050
 3650TIP3    H210892   0.168   3.987   1.959
 3651TIP3   OH210893   3.606   4.009   1.768
 3651TIP3    H110894   3.665   3.972   1.703
 3651TIP3    H210895   3.531   4.041   1.718
 3652TIP3   OH210896   5.579   4.386   6.442
 3652TIP3    H110897   5.666   4.347   6.431
 3652TIP3    H210898   5.542   4.388   6.353
 3653TIP3   OH210899   6.203   6.006   5.219
 3653TIP3    H110900   6.110   6.026   5.231
 3653TIP3    H210901   6.234   5.982   5.307
 3654TIP3   OH210902   1.088   6.942   3.555
 3654TIP3    H110903   1.022   6.979   3.497
 3654TIP3    H210904   1.149   6.897   3.495
 3655TIP3   OH210905   3.829   5.735   2.704
 3655TIP3    H110906   3.758   5.787   2.667
 3655TIP3    H210907   3.785   5.659   2.742
 3656TIP3   OH210908   3.303   5.348   3.385
 3656TIP3    H110909   3.347   5.293   3.320
 3656TIP3    H210910   3.224   5.299   3.408
 3657TIP3   OH210911   3.985   5.231   1.516
 3657TIP3    H110912   3.917   5.267   1.459
 3657TIP3    H210913   4.050   5.302   1.524
 3658TIP3   OH210914   6.281   0.248   5.844
 3658TIP3    H110915   6.212   0.298   5.886
 3658TIP3    H210916   6.239   0.209   5.767
 3659TIP3   OH210917   6.623   6.964   2.347
 3659TIP3    H110918   6.542   7.006   2.375
 3659TIP3    H210919   6.595   6.896   2.286
 3660TIP3   OH210920   5.376   5.636   4.027
 3660TIP3    H110921   5.316   5.689   4.079
 3660TIP3    H210922   5.420   5.699   3.970
 3661TIP3   OH210923   7.459   2.565   2.700
 3661TIP3    H110924   7.451   2.633   2.767
 3661TIP3    H210925   7.501   2.492   2.745
 3662TIP3   OH210926   6.966   3.648   5.476
 3662TIP3    H110927   6.977   3.553   5.462
 3662TIP3    H210928   7.040   3.687   5.430
 3663TIP3   OH210929   7.327   6.119   3.343
 3663TIP3    H110930   7.324   6.024   3.351
 3663TIP3    H210931   7.250   6.141   3.290
 3664TIP3   OH210932   5.101   5.283   2.881
 3664TIP3    H110933   5.136   5.329   2.958
 3664TIP3    H210934   5.067   5.201   2.916
 3665TIP3   OH210935   5.470   1.440   1.345
 3665TIP3    H110936   5.439   1.351   1.362
 3665TIP3    H210937   5.464   1.484   1.430
 3666TIP3   OH210938   0.244   2.787   5.216
 3666TIP3    H110939   0.211   2.836   5.291
 3666TIP3    H210940   0.269   2.855   5.153
 3667TIP3   OH210941   5.625   1.150   0.299
 3667TIP3    H110942   5.571   1.087   0.250
 3667TIP3    H210943   5.670   1.096   0.364
 3668TIP3   OH210944   5.779   6.945   6.786
 3668TIP3    H110945   5.711   7.010   6.772
 3668TIP3    H210946   5.861   6.990   6.764
 3669TIP3   OH210947   0.834   2.179   0.147
 3669TIP3    H110948   0.759   2.157   0.203
 3669TIP3    H210949   0.806   2.154   0.059
 3670TIP3   OH210950   1.674   0.219   0.968
 3670TIP3    H110951   1.646   0.297   1.016
 3670TIP3    H210952   1.728   0.252   0.897
 3671TIP3   OH210953   3.007   7.541   2.106
 3671TIP3    H110954   2.937   7.476   2.101
 3671TIP3    H210955   3.037   7.537   2.196
 3672TIP3   OH210956   8.108   1.913   4.011
 3672TIP3    H110957   8.187   1.871   3.975
 3672TIP3    H210958   8.078   1.971   3.942
 3673TIP3   OH210959   4.369   6.628   0.214
 3673TIP3    H110960   4.332   6.624   0.126
 3673TIP3    H210961   4.436   6.559   0.215
 3674TIP3   OH210962   0.892   5.223   1.042
 3674TIP3    H110963   0.899   5.141   1.091
 3674TIP3    H210964   0.816   5.210   0.985
 3675TIP3   OH210965   2.550   7.424   6.694
 3675TIP3    H110966   2.593   7.385   6.770
 3675TIP3    H210967   2.580   7.515   6.693
 3676TIP3   OH210968   0.810   5.786   1.018
 3676TIP3    H110969   0.768   5.830   0.944
 3676TIP3    H210970   0.738   5.767   1.079
 3677TIP3   OH210971   5.117   4.354   5.500
 3677TIP3    H110972   5.097   4.355   5.407
 3677TIP3    H210973   5.137   4.262   5.520
 3678TIP3   OH210974   1.736   6.662   2.453
 3678TIP3    H110975   1.699   6.633   2.536
 3678TIP3    H210976   1.730   6.758   2.456
 3679TIP3   OH210977   1.994   1.393   4.352
 3679TIP3    H110978   2.019   1.435   4.269
 3679TIP3    H210979   2.059   1.323   4.363
 3680TIP3   OH210980   2.261   4.591   6.489
 3680TIP3    H110981   2.214   4.550   6.562
 3680TIP3    H210982   2.192   4.626   6.433
 3681TIP3   OH210983   7.809   4.987   0.385
 3681TIP3    H110984   7.813   4.902   0.428
 3681TIP3    H210985   7.718   5.016   0.395
 3682TIP3   OH210986   0.398   2.269   5.751
 3682TIP3    H110987   0.447   2.310   5.679
 3682TIP3    H210988   0.430   2.179   5.754
 3683TIP3   OH210989   1.423   0.739   1.259
 3683TIP3    H110990   1.508   0.783   1.267
 3683TIP3    H210991   1.374   0.768   1.337
 3684TIP3   OH210992   4.399   4.559   4.063
 3684TIP3    H110993   4.388   4.647   4.100
 3684TIP3    H210994   4.451   4.512   4.128
 3685TIP3   OH210995   5.580   6.334   5.074
 3685TIP3    H110996   5.504   6.295   5.032
 3685TIP3    H210997   5.640   6.261   5.089
 3686TIP3   OH210998   2.540   3.161   3.504
 3686TIP3    H110999   2.613   3.103   3.529
 3686TIP3    H211000   2.462   3.115   3.534
 3687TIP3   OH211001   0.360   5.345   1.308
 3687TIP3    H111002   0.373   5.410   1.239
 3687TIP3    H211003   0.337   5.397   1.385
 3688TIP3   OH211004   4.983   7.806   6.156
 3688TIP3    H111005   5.062   7.832   6.202
 3688TIP3    H211006   4.927   7.884   6.156
 3689TIP3   OH211007   6.879   1.379   0.970
 3689TIP3    H111008   6.844   1.456   1.015
 3689TIP3    H211009   6.884   1.312   1.038
 3690TIP3   OH211010   0.779   2.222   0.509
 3690TIP3    H111011   0.684   2.228   0.496
 3690TIP3    H211012   0.810   2.311   0.495
 3691TIP3   OH211013   6.368   3.251   5.075
 3691TIP3    H111014   6.364   3.345   5.058
 3691TIP3    H211015   6.455   3.237   5.112
 3692TIP3   OH211016   1.418   6.267   4.345
 3692TIP3    H111017   1.493   6.258   4.404
 3692TIP3    H211018   1.454   6.305   4.265
 3693TIP3   OH211019   6.987   3.470   2.339
 3693TIP3    H111020   7.074   3.483   2.376
 3693TIP3    H211021   6.932   3.533   2.385
 3694TIP3   OH211022   6.883   3.886   1.493
 3694TIP3    H111023   6.922   3.825   1.430
 3694TIP3    H211024   6.789   3.868   1.488
 3695TIP3   OH211025   0.124   5.671   0.226
 3695TIP3    H111026   0.040   5.718   0.235
 3695TIP3    H211027   0.155   5.661   0.316
 3696TIP3   OH211028   0.124   0.395   2.899
 3696TIP3    H111029   0.194   0.453   2.928
 3696TIP3    H211030   0.096   0.348   2.978
 3697TIP3   OH211031   0.666   0.865   4.124
 3697TIP3    H111032   0.618   0.786   4.151
 3697TIP3    H211033   0.605   0.937   4.141
 3698TIP3   OH211034   3.897   2.974   4.929
 3698TIP3    H111035   3.985   2.985   4.896
 3698TIP3    H211036   3.878   3.054   4.977
 3699TIP3   OH211037   1.739   0.909   2.002
 3699TIP3    H111038   1.794   0.885   2.076
 3699TIP3    H211039   1.672   0.840   1.998
 3700TIP3   OH211040   6.475   3.355   5.836
 3700TIP3    H111041   6.471   3.274   5.785
 3700TIP3    H211042   6.463   3.425   5.772
 3701TIP3   OH211043   2.095   4.126   3.274
 3701TIP3    H111044   2.133   4.136   3.187
 3701TIP3    H211045   2.170   4.108   3.331
 3702TIP3   OH211046   2.893   0.510   1.297
 3702TIP3    H111047   2.821   0.449   1.281
 3702TIP3    H211048   2.890   0.570   1.222
 3703TIP3   OH211049   2.745   4.965   4.843
 3703TIP3    H111050   2.772   4.940   4.931
 3703TIP3    H211051   2.826   4.965   4.792
 3704TIP3   OH211052   6.228   6.648   4.873
 3704TIP3    H111053   6.235   6.591   4.949
 3704TIP3    H211054   6.280   6.604   4.806
 3705TIP3   OH211055   2.257   3.096   3.417
 3705TIP3    H111056   2.196   3.164   3.387
 3705TIP3    H211057   2.220   3.066   3.500
 3706TIP3   OH211058   7.637   7.567   1.689
 3706TIP3    H111059   7.636   7.561   1.593
 3706TIP3    H211060   7.575   7.501   1.717
 3707TIP3   OH211061   5.066   6.377   0.401
 3707TIP3    H111062   5.028   6.424   0.327
 3707TIP3    H211063   5.081   6.444   0.467
 3708TIP3   OH211064   1.697   3.592   6.696
 3708TIP3    H111065   1.652   3.510   6.675
 3708TIP3    H211066   1.781   3.585   6.651
 3709TIP3   OH211067   2.997   2.901   2.217
 3709TIP3    H111068   3.021   2.809   2.228
 3709TIP3    H211069   2.941   2.920   2.293
 3710TIP3   OH211070   6.150   5.029   4.999
 3710TIP3    H111071   6.156   4.934   4.995
 3710TIP3    H211072   6.120   5.055   4.912
 3711TIP3   OH211073   4.847   7.596   5.696
 3711TIP3    H111074   4.923   7.541   5.717
 3711TIP3    H211075   4.878   7.654   5.627
 3712TIP3   OH211076   3.158   2.877   2.571
 3712TIP3    H111077   3.187   2.953   2.621
 3712TIP3    H211078   3.086   2.910   2.517
 3713TIP3   OH211079   6.115   0.601   0.098
 3713TIP3    H111080   6.148   0.540   0.032
 3713TIP3    H211081   6.193   0.630   0.145
 3714TIP3   OH211082   3.022   2.164   0.694
 3714TIP3    H111083   3.116   2.164   0.713
 3714TIP3    H211084   2.994   2.074   0.714
 3715TIP3   OH211085   5.565   3.530   2.183
 3715TIP3    H111086   5.525   3.512   2.268
 3715TIP3    H211087   5.494   3.516   2.120
 3716TIP3   OH211088   3.291   5.817   0.454
 3716TIP3    H111089   3.225   5.844   0.390
 3716TIP3    H211090   3.333   5.740   0.415
 3717TIP3   OH211091   6.945   1.893   3.353
 3717TIP3    H111092   7.008   1.907   3.282
 3717TIP3    H211093   6.982   1.941   3.427
 3718TIP3   OH211094   6.872   3.646   3.131
 3718TIP3    H111095   6.952   3.688   3.099
 3718TIP3    H211096   6.893   3.553   3.131
 3719TIP3   OH211097   5.081   2.462   4.997
 3719TIP3    H111098   5.026   2.395   4.956
 3719TIP3    H211099   5.028   2.496   5.070
 3720TIP3   OH211100   5.210   3.037   0.494
 3720TIP3    H111101   5.115   3.045   0.501
 3720TIP3    H211102   5.225   2.991   0.412
 3721TIP3   OH211103   5.671   1.226   6.199
 3721TIP3    H111104   5.618   1.305   6.209
 3721TIP3    H211105   5.612   1.154   6.220
 3722TIP3   OH211106   0.544   0.431   0.905
 3722TIP3    H111107   0.526   0.432   0.999
 3722TIP3    H211108   0.458   0.446   0.864
 3723TIP3   OH211109   6.666   3.630   2.876
 3723TIP3    H111110   6.659   3.596   2.787
 3723TIP3    H211111   6.578   3.620   2.913
 3724TIP3   OH211112   6.759   5.319   2.590
 3724TIP3    H111113   6.839   5.364   2.615
 3724TIP3    H211114   6.690   5.363   2.639
 3725TIP3   OH211115   5.447   0.756   5.619
 3725TIP3    H111116   5.452   0.852   5.624
 3725TIP3    H211117   5.536   0.729   5.597
 3726TIP3   OH211118   6.778   3.461   6.608
 3726TIP3    H111119   6.773   3.505   6.523
 3726TIP3    H211120   6.762   3.531   6.672
 3727TIP3   OH211121   4.560   6.759   3.782
 3727TIP3    H111122   4.558   6.787   3.874
 3727TIP3    H211123   4.644   6.715   3.772
 3728TIP3   OH211124   5.232   5.989   6.060
 3728TIP3    H111125   5.263   6.045   6.131
 3728TIP3    H211126   5.265   6.032   5.981
 3729TIP3   OH211127   1.680   6.146   3.380
 3729TIP3    H111128   1.727   6.218   3.337
 3729TIP3    H211129   1.599   6.187   3.412
 3730TIP3   OH211130   6.499   4.796   6.680
 3730TIP3    H111131   6.530   4.840   6.759
 3730TIP3    H211132   6.577   4.788   6.625
 3731TIP3   OH211133   7.539   4.515   1.358
 3731TIP3    H111134   7.611   4.578   1.368
 3731TIP3    H211135   7.461   4.570   1.350
 3732TIP3   OH211136   0.179   6.922   1.352
 3732TIP3    H111137   0.145   7.011   1.338
 3732TIP3    H211138   0.260   6.919   1.301
 3733TIP3   OH211139   8.205   0.138   5.454
 3733TIP3    H111140   8.233   0.130   5.363
 3733TIP3    H211141   8.280   0.177   5.498
 3734TIP3   OH211142   4.549   6.823   2.770
 3734TIP3    H111143   4.544   6.778   2.854
 3734TIP3    H211144   4.493   6.773   2.712
 3735TIP3   OH211145   5.744   3.536   1.233
 3735TIP3    H111146   5.777   3.569   1.317
 3735TIP3    H211147   5.673   3.595   1.210
 3736TIP3   OH211148   0.089   1.239   3.401
 3736TIP3    H111149   0.145   1.172   3.361
 3736TIP3    H211150   0.109   1.235   3.495
 3737TIP3   OH211151   7.370   1.589   2.191
 3737TIP3    H111152   7.364   1.524   2.262
 3737TIP3    H211153   7.365   1.537   2.111
 3738TIP3   OH211154   3.132   1.993   3.864
 3738TIP3    H111155   3.077   2.069   3.846
 3738TIP3    H211156   3.205   2.028   3.915
 3739TIP3   OH211157   4.611   6.937   4.070
 3739TIP3    H111158   4.668   6.989   4.127
 3739TIP3    H211159   4.670   6.878   4.024
 3740TIP3   OH211160   3.351   6.598   4.255
 3740TIP3    H111161   3.427   6.548   4.226
 3740TIP3    H211162   3.293   6.600   4.179
 3741TIP3   OH211163   4.114   0.500   0.713
 3741TIP3    H111164   4.194   0.551   0.725
 3741TIP3    H211165   4.139   0.411   0.737
 3742TIP3   OH211166   7.356   3.595   5.643
 3742TIP3    H111167   7.327   3.683   5.621
 3742TIP3    H211168   7.335   3.585   5.736
 3743TIP3   OH211169   8.113   2.167   4.954
 3743TIP3    H111170   8.182   2.114   4.995
 3743TIP3    H211171   8.071   2.108   4.891
 3744TIP3   OH211172   7.869   7.070   3.204
 3744TIP3    H111173   7.907   7.124   3.135
 3744TIP3    H211174   7.775   7.088   3.200
 3745TIP3   OH211175   8.251   5.340   5.271
 3745TIP3    H111176   8.304   5.404   5.320
 3745TIP3    H211177   8.285   5.255   5.300
 3746TIP3   OH211178   2.058   5.710   5.540
 3746TIP3    H111179   1.988   5.648   5.559
 3746TIP3    H211180   2.139   5.664   5.563
 3747TIP3   OH211181   1.830   1.999   4.712
 3747TIP3    H111182   1.906   2.018   4.656
 3747TIP3    H211183   1.855   2.031   4.798
 3748TIP3   OH211184   6.636   6.780   3.666
 3748TIP3    H111185   6.641   6.732   3.748
 3748TIP3    H211186   6.717   6.759   3.620
 3749TIP3   OH211187   6.492   4.142   2.510
 3749TIP3    H111188   6.565   4.082   2.499
 3749TIP3    H211189   6.521   4.223   2.469
 3750TIP3   OH211190   4.597   6.876   1.982
 3750TIP3    H111191   4.604   6.908   2.072
 3750TIP3    H211192   4.562   6.950   1.933
 3751TIP3   OH211193   2.308   7.595   5.343
 3751TIP3    H111194   2.240   7.631   5.286
 3751TIP3    H211195   2.272   7.603   5.431
 3752TIP3   OH211196   1.838   7.179   6.175
 3752TIP3    H111197   1.790   7.261   6.184
 3752TIP3    H211198   1.920   7.202   6.132
 3753TIP3   OH211199   3.836   7.489   5.834
 3753TIP3    H111200   3.757   7.452   5.874
 3753TIP3    H211201   3.904   7.423   5.848
 3754TIP3   OH211202   4.009   4.053   1.347
 3754TIP3    H111203   3.961   4.133   1.327
 3754TIP3    H211204   4.074   4.045   1.277
 3755TIP3   OH211205   8.398   1.893   0.254
 3755TIP3    H111206   8.402   1.813   0.307
 3755TIP3    H211207   8.306   1.918   0.255
 3756TIP3   OH211208   4.613   2.824   1.372
 3756TIP3    H111209   4.546   2.881   1.336
 3756TIP3    H211210   4.611   2.746   1.316
 3757TIP3   OH211211   5.530   0.509   0.796
 3757TIP3    H111212   5.560   0.536   0.882
 3757TIP3    H211213   5.504   0.417   0.807
 3758TIP3   OH211214   7.244   1.990   0.744
 3758TIP3    H111215   7.149   1.981   0.753
 3758TIP3    H211216   7.262   2.082   0.759
 3759TIP3   OH211217   4.791   6.485   1.544
 3759TIP3    H111218   4.777   6.428   1.469
 3759TIP3    H211219   4.864   6.541   1.518
 3760TIP3   OH211220   8.361   1.021   1.112
 3760TIP3    H111221   8.415   1.009   1.035
 3760TIP3    H211222   8.298   1.089   1.087
 3761TIP3   OH211223   4.729   1.746   1.246
 3761TIP3    H111224   4.761   1.662   1.214
 3761TIP3    H211225   4.762   1.810   1.182
 3762TIP3   OH211226   3.869   5.092   6.328
 3762TIP3    H111227   3.917   5.028   6.276
 3762TIP3    H211228   3.895   5.075   6.418
 3763TIP3   OH211229   3.328   4.927   5.316
 3763TIP3    H111230   3.254   4.915   5.374
 3763TIP3    H211231   3.394   4.866   5.348
 3764TIP3   OH211232   6.064   6.573   3.405
 3764TIP3    H111233   5.974   6.553   3.380
 3764TIP3    H211234   6.059   6.590   3.499
 3765TIP3   OH211235   1.491   0.675   0.400
 3765TIP3    H111236   1.429   0.714   0.339
 3765TIP3    H211237   1.577   0.698   0.365
 3766TIP3   OH211238   7.165   0.912   0.271
 3766TIP3    H111239   7.190   0.895   0.180
 3766TIP3    H211240   7.239   0.879   0.323
 3767TIP3   OH211241   4.971   5.686   2.482
 3767TIP3    H111242   4.914   5.643   2.546
 3767TIP3    H211243   5.039   5.621   2.463
 3768TIP3   OH211244   8.215   0.895   1.774
 3768TIP3    H111245   8.258   0.953   1.836
 3768TIP3    H211246   8.134   0.940   1.750
 3769TIP3   OH211247   5.499   6.416   0.441
 3769TIP3    H111248   5.576   6.364   0.465
 3769TIP3    H211249   5.464   6.447   0.525
 3770TIP3   OH211250   5.218   7.234   5.510
 3770TIP3    H111251   5.165   7.266   5.437
 3770TIP3    H211252   5.224   7.139   5.494
 3771TIP3   OH211253   3.787   5.965   0.813
 3771TIP3    H111254   3.725   6.023   0.858
 3771TIP3    H211255   3.779   5.881   0.859
 3772TIP3   OH211256   5.177   0.145   2.433
 3772TIP3    H111257   5.109   0.146   2.366
 3772TIP3    H211258   5.136   0.185   2.510
 3773TIP3   OH211259   7.539   6.539   4.959
 3773TIP3    H111260   7.499   6.611   4.911
 3773TIP3    H211261   7.516   6.461   4.909
 3774TIP3   OH211262   7.753   5.842   1.027
 3774TIP3    H111263   7.796   5.764   0.992
 3774TIP3    H211264   7.687   5.865   0.961
 3775TIP3   OH211265   4.052   6.123   4.328
 3775TIP3    H111266   4.126   6.100   4.384
 3775TIP3    H211267   4.021   6.207   4.363
 3776TIP3   OH211268   6.580   7.950   5.245
 3776TIP3    H111269   6.626   7.867   5.257
 3776TIP3    H211270   6.500   7.926   5.199
 3777TIP3   OH211271   0.752   1.761   0.443
 3777TIP3    H111272   0.836   1.806   0.436
 3777TIP3    H211273   0.755   1.693   0.376
 3778TIP3   OH211274   3.717   5.589   6.058
 3778TIP3    H111275   3.727   5.496   6.035
 3778TIP3    H211276   3.673   5.627   5.982
 3779TIP3   OH211277   7.602   4.072   5.010
 3779TIP3    H111278   7.580   3.982   5.035
 3779TIP3    H211279   7.667   4.063   4.941
 3780TIP3   OH211280   4.134   6.321   4.654
 3780TIP3    H111281   4.177   6.235   4.646
 3780TIP3    H211282   4.202   6.384   4.634
 3781TIP3   OH211283   6.492   1.788   4.440
 3781TIP3    H111284   6.497   1.695   4.419
 3781TIP3    H211285   6.566   1.804   4.498
 3782TIP3   OH211286   0.599   6.001   1.516
 3782TIP3    H111287   0.507   5.975   1.521
 3782TIP3    H211288   0.598   6.081   1.464
 3783TIP3   OH211289   3.631   2.224   3.741
 3783TIP3    H111290   3.633   2.203   3.647
 3783TIP3    H211291   3.599   2.143   3.782
 3784TIP3   OH211292   1.638   4.262   5.852
 3784TIP3    H111293   1.560   4.264   5.907
 3784TIP3    H211294   1.710   4.284   5.911
 3785TIP3   OH211295   5.672   7.305   5.016
 3785TIP3    H111296   5.606   7.350   4.962
 3785TIP3    H211297   5.636   7.218   5.030
 3786TIP3   OH211298   2.144   5.820   4.148
 3786TIP3    H111299   2.086   5.757   4.191
 3786TIP3    H211300   2.162   5.781   4.062
 3787TIP3   OH211301   1.769   1.862   5.754
 3787TIP3    H111302   1.843   1.858   5.813
 3787TIP3    H211303   1.696   1.827   5.804
 3788TIP3   OH211304   3.353   5.812   6.265
 3788TIP3    H111305   3.370   5.847   6.178
 3788TIP3    H211306   3.257   5.807   6.270
 3789TIP3   OH211307   5.304   3.687   2.753
 3789TIP3    H111308   5.268   3.667   2.666
 3789TIP3    H211309   5.232   3.731   2.798
 3790TIP3   OH211310   4.529   6.647   2.202
 3790TIP3    H111311   4.449   6.686   2.167
 3790TIP3    H211312   4.599   6.697   2.161
 3791TIP3   OH211313   1.190   4.885   3.864
 3791TIP3    H111314   1.107   4.845   3.839
 3791TIP3    H211315   1.256   4.832   3.818
 3792TIP3   OH211316   4.801   6.834   5.607
 3792TIP3    H111317   4.883   6.882   5.618
 3792TIP3    H211318   4.734   6.893   5.643
 3793TIP3   OH211319   7.255   6.012   2.141
 3793TIP3    H111320   7.252   5.918   2.158
 3793TIP3    H211321   7.303   6.048   2.216
 3794TIP3   OH211322   5.294   4.131   0.879
 3794TIP3    H111323   5.275   4.110   0.788
 3794TIP3    H211324   5.225   4.192   0.905
 3795TIP3   OH211325   0.948   4.970   3.778
 3795TIP3    H111326   0.952   5.011   3.865
 3795TIP3    H211327   1.035   4.984   3.741
 3796TIP3   OH211328   2.852   6.391   0.834
 3796TIP3    H111329   2.899   6.460   0.787
 3796TIP3    H211330   2.761   6.402   0.808
 3797TIP3   OH211331   4.919   5.494   5.419
 3797TIP3    H111332   4.975   5.491   5.497
 3797TIP3    H211333   4.837   5.454   5.447
 3798TIP3   OH211334   2.403   7.280   1.484
 3798TIP3    H111335   2.368   7.319   1.404
 3798TIP3    H211336   2.390   7.346   1.551
 3799TIP3   OH211337   7.770   1.524   6.013
 3799TIP3    H111338   7.711   1.473   6.069
 3799TIP3    H211339   7.715   1.596   5.981
 3800TIP3   OH211340   0.487   6.092   1.037
 3800TIP3    H111341   0.562   6.150   1.041
 3800TIP3    H211342   0.523   6.005   1.019
 3801TIP3   OH211343   5.732   2.811   3.082
 3801TIP3    H111344   5.804   2.875   3.079
 3801TIP3    H211345   5.775   2.728   3.101
 3802TIP3   OH211346   2.924   1.621   0.802
 3802TIP3    H111347   2.957   1.561   0.735
 3802TIP3    H211348   2.925   1.570   0.883
 3803TIP3   OH211349   0.763   5.026   0.489
 3803TIP3    H111350   0.818   4.984   0.556
 3803TIP3    H211351   0.732   4.954   0.434
 3804TIP3   OH211352   7.001   4.429   0.619
 3804TIP3    H111353   6.949   4.406   0.696
 3804TIP3    H211354   7.055   4.502   0.648
 3805TIP3   OH211355   6.252   0.627   6.475
 3805TIP3    H111356   6.225   0.593   6.390
 3805TIP3    H211357   6.216   0.565   6.538
 3806TIP3   OH211358   5.874   2.049   3.416
 3806TIP3    H111359   5.811   2.097   3.363
 3806TIP3    H211360   5.904   2.112   3.482
 3807TIP3   OH211361   8.133   2.040   6.141
 3807TIP3    H111362   8.066   2.107   6.127
 3807TIP3    H211363   8.137   2.030   6.236
 3808TIP3   OH211364   8.274   6.392   0.254
 3808TIP3    H111365   8.350   6.351   0.214
 3808TIP3    H211366   8.284   6.485   0.234
 3809TIP3   OH211367   7.806   4.228   4.365
 3809TIP3    H111368   7.793   4.170   4.440
 3809TIP3    H211369   7.843   4.308   4.403
 3810TIP3   OH211370   2.149   3.569   1.947
 3810TIP3    H111371   2.097   3.577   2.027
 3810TIP3    H211372   2.149   3.475   1.927
 3811TIP3   OH211373   7.572   0.368   0.494
 3811TIP3    H111374   7.655   0.354   0.540
 3811TIP3    H211375   7.511   0.396   0.562
 3812TIP3   OH211376   1.162   6.371   3.338
 3812TIP3    H111377   1.091   6.414   3.386
 3812TIP3    H211378   1.120   6.335   3.260
 3813TIP3   OH211379   5.839   5.441   4.806
 3813TIP3    H111380   5.904   5.476   4.866
 3813TIP3    H211381   5.778   5.513   4.792
 3814TIP3   OH211382   6.983   4.060   6.785
 3814TIP3    H111383   6.921   4.018   6.726
 3814TIP3    H211384   6.964   4.154   6.776
 3815TIP3   OH211385   7.932   7.908   3.839
 3815TIP3    H111386   7.939   7.934   3.747
 3815TIP3    H211387   7.871   7.835   3.840
 3816TIP3   OH211388   0.823   4.613   1.605
 3816TIP3    H111389   0.761   4.637   1.674
 3816TIP3    H211390   0.772   4.615   1.525
 3817TIP3   OH211391   4.211   6.378   2.243
 3817TIP3    H111392   4.232   6.391   2.150
 3817TIP3    H211393   4.292   6.399   2.289
 3818TIP3   OH211394   5.046   0.095   2.762
 3818TIP3    H111395   5.022   0.066   2.850
 3818TIP3    H211396   4.979   0.159   2.738
 3819TIP3   OH211397   0.549   5.657   2.631
 3819TIP3    H111398   0.600   5.578   2.610
 3819TIP3    H211399   0.599   5.700   2.701
 3820TIP3   OH211400   0.619   6.220   0.661
 3820TIP3    H111401   0.647   6.213   0.570
 3820TIP3    H211402   0.554   6.291   0.661
 3821TIP3   OH211403   4.750   4.405   6.452
 3821TIP3    H111404   4.769   4.471   6.385
 3821TIP3    H211405   4.797   4.327   6.423
 3822TIP3   OH211406   4.793   6.664   0.469
 3822TIP3    H111407   4.773   6.603   0.398
 3822TIP3    H211408   4.824   6.609   0.540
 3823TIP3   OH211409   1.973   6.849   2.946
 3823TIP3    H111410   1.938   6.761   2.937
 3823TIP3    H211411   1.931   6.883   3.026
 3824TIP3   OH211412   7.959   3.877   5.875
 3824TIP3    H111413   8.009   3.874   5.957
 3824TIP3    H211414   7.871   3.848   5.900
 3825TIP3   OH211415   2.358   0.655   2.776
 3825TIP3    H111416   2.335   0.675   2.685
 3825TIP3    H211417   2.311   0.574   2.795
 3826TIP3   OH211418   5.061   4.039   5.977
 3826TIP3    H111419   5.019   3.987   6.046
 3826TIP3    H211420   5.126   4.092   6.024
 3827TIP3   OH211421   4.472   0.550   4.733
 3827TIP3    H111422   4.547   0.609   4.736
 3827TIP3    H211423   4.399   0.605   4.703
 3828TIP3   OH211424   3.818   1.131   5.469
 3828TIP3    H111425   3.789   1.148   5.559
 3828TIP3    H211426   3.801   1.214   5.423
 3829TIP3   OH211427   2.088   3.012   3.636
 3829TIP3    H111428   2.101   2.990   3.728
 3829TIP3    H211429   2.000   3.050   3.632
 3830TIP3   OH211430   1.707   5.031   3.028
 3830TIP3    H111431   1.698   5.027   2.933
 3830TIP3    H211432   1.673   4.947   3.059
 3831TIP3   OH211433   1.046   0.584   2.263
 3831TIP3    H111434   1.027   0.639   2.187
 3831TIP3    H211435   1.142   0.580   2.266
 3832TIP3   OH211436   2.245   5.160   5.232
 3832TIP3    H111437   2.253   5.246   5.275
 3832TIP3    H211438   2.289   5.100   5.292
 3833TIP3   OH211439   7.288   0.336   5.630
 3833TIP3    H111440   7.273   0.291   5.547
 3833TIP3    H211441   7.228   0.411   5.627
 3834TIP3   OH211442   5.428   1.465   3.224
 3834TIP3    H111443   5.406   1.374   3.204
 3834TIP3    H211444   5.371   1.488   3.297
 3835TIP3   OH211445   8.316   0.206   4.346
 3835TIP3    H111446   8.379   0.159   4.292
 3835TIP3    H211447   8.303   0.290   4.302
 3836TIP3   OH211448   1.274   3.460   5.092
 3836TIP3    H111449   1.230   3.400   5.032
 3836TIP3    H211450   1.309   3.404   5.161
 3837TIP3   OH211451   3.524   5.789   5.448
 3837TIP3    H111452   3.535   5.797   5.354
 3837TIP3    H211453   3.432   5.766   5.460
 3838TIP3   OH211454   1.821   5.567   2.638
 3838TIP3    H111455   1.771   5.485   2.641
 3838TIP3    H211456   1.849   5.574   2.547
 3839TIP3   OH211457   5.385   3.685   3.662
 3839TIP3    H111458   5.473   3.676   3.698
 3839TIP3    H211459   5.330   3.627   3.716
 3840TIP3   OH211460   7.626   6.203   5.670
 3840TIP3    H111461   7.704   6.149   5.683
 3840TIP3    H211462   7.555   6.141   5.656
 3841TIP3   OH211463   7.809   0.281   1.901
 3841TIP3    H111464   7.843   0.193   1.916
 3841TIP3    H211465   7.878   0.339   1.933
 3842TIP3   OH211466   5.978   0.516   2.994
 3842TIP3    H111467   6.040   0.447   3.015
 3842TIP3    H211468   6.011   0.593   3.040
 3843TIP3   OH211469   3.611   0.207   6.408
 3843TIP3    H111470   3.568   0.209   6.322
 3843TIP3    H211471   3.572   0.280   6.456
 3844TIP3   OH211472   4.033   6.190   0.196
 3844TIP3    H111473   4.113   6.241   0.204
 3844TIP3    H211474   3.963   6.255   0.191
 3845TIP3   OH211475   1.579   4.658   6.623
 3845TIP3    H111476   1.626   4.602   6.685
 3845TIP3    H211477   1.489   4.625   6.624
 3846TIP3   OH211478   0.067   0.478   3.505
 3846TIP3    H111479   0.145   0.445   3.461
 3846TIP3    H211480  -0.006   0.429   3.466
 3847TIP3   OH211481   3.159   1.927   0.313
 3847TIP3    H111482   3.232   1.866   0.311
 3847TIP3    H211483   3.091   1.881   0.362
 3848TIP3   OH211484   8.138   6.943   0.591
 3848TIP3    H111485   8.060   6.914   0.640
 3848TIP3    H211486   8.113   7.027   0.554
 3849TIP3   OH211487   4.501   0.578   2.884
 3849TIP3    H111488   4.503   0.496   2.835
 3849TIP3    H211489   4.591   0.611   2.878
 3850TIP3   OH211490   5.656   5.570   6.029
 3850TIP3    H111491   5.621   5.645   5.980
 3850TIP3    H211492   5.697   5.609   6.106
 3851TIP3   OH211493   0.362   5.995   3.304
 3851TIP3    H111494   0.358   5.901   3.287
 3851TIP3    H211495   0.370   6.002   3.399
 3852TIP3   OH211496   2.009   2.855   4.188
 3852TIP3    H111497   2.101   2.865   4.163
 3852TIP3    H211498   1.978   2.944   4.204
 3853TIP3   OH211499   1.713   2.993   4.096
 3853TIP3    H111500   1.710   2.900   4.074
 3853TIP3    H211501   1.748   3.035   4.017
 3854TIP3   OH211502   0.447   0.568   4.466
 3854TIP3    H111503   0.523   0.532   4.513
 3854TIP3    H211504   0.429   0.651   4.511
 3855TIP3   OH211505   4.798   4.567   4.177
 3855TIP3    H111506   4.857   4.500   4.212
 3855TIP3    H211507   4.710   4.531   4.188
 3856TIP3   OH211508   6.551   6.349   4.753
 3856TIP3    H111509   6.527   6.440   4.768
 3856TIP3    H211510   6.475   6.299   4.784
 3857TIP3   OH211511   7.760   5.739   2.203
 3857TIP3    H111512   7.715   5.659   2.176
 3857TIP3    H211513   7.811   5.714   2.279
 3858TIP3   OH211514   3.007   6.501   5.507
 3858TIP3    H111515   2.924   6.512   5.555
 3858TIP3    H211516   2.982   6.458   5.425
 3859TIP3   OH211517   2.001   5.654   4.289
 3859TIP3    H111518   1.974   5.716   4.357
 3859TIP3    H211519   1.954   5.573   4.311
 3860TIP3   OH211520   6.021   1.994   2.085
 3860TIP3    H111521   6.049   2.076   2.044
 3860TIP3    H211522   5.940   2.017   2.130
 3861TIP3   OH211523   0.073   3.805   2.797
 3861TIP3    H111524   0.078   3.731   2.736
 3861TIP3    H211525   0.110   3.878   2.748
 3862TIP3   OH211526   1.112   4.148   1.964
 3862TIP3    H111527   1.192   4.116   2.005
 3862TIP3    H211528   1.102   4.095   1.885
 3863TIP3   OH211529   4.824   4.290   0.283
 3863TIP3    H111530   4.829   4.356   0.214
 3863TIP3    H211531   4.910   4.248   0.282
 3864TIP3   OH211532   2.289   7.176   5.695
 3864TIP3    H111533   2.295   7.081   5.709
 3864TIP3    H211534   2.197   7.191   5.674
 3865TIP3   OH211535   7.497   5.583   6.785
 3865TIP3    H111536   7.544   5.534   6.851
 3865TIP3    H211537   7.561   5.600   6.717
 3866TIP3   OH211538   4.084   3.599   1.244
 3866TIP3    H111539   4.054   3.634   1.328
 3866TIP3    H211540   4.074   3.671   1.182
 3867TIP3   OH211541   3.592   4.829   6.057
 3867TIP3    H111542   3.519   4.806   6.114
 3867TIP3    H211543   3.551   4.855   5.975
 3868TIP3   OH211544   0.208   7.126   0.973
 3868TIP3    H111545   0.238   7.202   1.023
 3868TIP3    H211546   0.212   7.155   0.882
 3869TIP3   OH211547   8.398   1.154   2.458
 3869TIP3    H111548   8.308   1.129   2.439
 3869TIP3    H211549   8.423   1.099   2.532
 3870TIP3   OH211550   7.061   1.407   1.945
 3870TIP3    H111551   6.967   1.396   1.937
 3870TIP3    H211552   7.073   1.501   1.957
 3871TIP3   OH211553   4.258   3.156   2.620
 3871TIP3    H111554   4.165   3.165   2.599
 3871TIP3    H211555   4.287   3.246   2.638
 3872TIP3   OH211556   1.867   0.770   2.583
 3872TIP3    H111557   1.822   0.711   2.522
 3872TIP3    H211558   1.946   0.796   2.536
 3873TIP3   OH211559   4.135   0.694   0.336
 3873TIP3    H111560   4.071   0.683   0.407
 3873TIP3    H211561   4.211   0.644   0.364
 3874TIP3   OH211562   2.981   4.586   2.712
 3874TIP3    H111563   3.067   4.560   2.747
 3874TIP3    H211564   2.971   4.676   2.741
 3875TIP3   OH211565   6.075   5.203   5.615
 3875TIP3    H111566   6.032   5.284   5.589
 3875TIP3    H211567   6.084   5.153   5.534
 3876TIP3   OH211568   5.664   4.142   4.755
 3876TIP3    H111569   5.673   4.233   4.728
 3876TIP3    H211570   5.570   4.123   4.744
 3877TIP3   OH211571   5.490   7.034   6.045
 3877TIP3    H111572   5.488   7.095   6.119
 3877TIP3    H211573   5.431   7.073   5.980
 3878TIP3   OH211574   8.191   5.423   4.999
 3878TIP3    H111575   8.138   5.502   4.992
 3878TIP3    H211576   8.190   5.401   5.092
 3879TIP3   OH211577   8.278   6.645   1.085
 3879TIP3    H111578   8.205   6.595   1.047
 3879TIP3    H211579   8.315   6.693   1.010
 3880TIP3   OH211580   1.152   6.369   5.857
 3880TIP3    H111581   1.197   6.344   5.938
 3880TIP3    H211582   1.130   6.286   5.816
 3881TIP3   OH211583   3.290   5.240   4.221
 3881TIP3    H111584   3.293   5.154   4.179
 3881TIP3    H211585   3.285   5.221   4.315
 3882TIP3   OH211586   6.477   2.499   3.145
 3882TIP3    H111587   6.463   2.516   3.238
 3882TIP3    H211588   6.481   2.586   3.105
 3883TIP3   OH211589   3.255   5.294   3.780
 3883TIP3    H111590   3.279   5.357   3.712
 3883TIP3    H211591   3.338   5.274   3.824
 3884TIP3   OH211592   8.246   0.604   4.024
 3884TIP3    H111593   8.202   0.521   4.006
 3884TIP3    H211594   8.221   0.660   3.950
 3885TIP3   OH211595   5.737   2.389   5.127
 3885TIP3    H111596   5.689   2.471   5.131
 3885TIP3    H211597   5.763   2.373   5.218
 3886TIP3   OH211598   6.774   0.434   2.503
 3886TIP3    H111599   6.724   0.427   2.421
 3886TIP3    H211600   6.830   0.356   2.504
 3887TIP3   OH211601   6.561   3.730   0.383
 3887TIP3    H111602   6.639   3.722   0.329
 3887TIP3    H211603   6.588   3.696   0.469
 3888TIP3   OH211604   0.773   2.334   6.351
 3888TIP3    H111605   0.701   2.276   6.324
 3888TIP3    H211606   0.851   2.294   6.313
 3889TIP3   OH211607   2.276   1.937   5.791
 3889TIP3    H111608   2.289   1.998   5.718
 3889TIP3    H211609   2.364   1.902   5.809
 3890TIP3   OH211610   4.436   4.887   2.622
 3890TIP3    H111611   4.493   4.812   2.639
 3890TIP3    H211612   4.359   4.850   2.581
 3891TIP3   OH211613   6.187   5.574   5.531
 3891TIP3    H111614   6.258   5.638   5.529
 3891TIP3    H211615   6.211   5.509   5.466
 3892TIP3   OH211616   5.804   3.967   1.463
 3892TIP3    H111617   5.809   3.970   1.367
 3892TIP3    H211618   5.714   3.942   1.482
 3893TIP3   OH211619   0.805   3.193   3.803
 3893TIP3    H111620   0.787   3.150   3.719
 3893TIP3    H211621   0.808   3.121   3.866
 3894TIP3   OH211622   0.028   7.785   1.353
 3894TIP3    H111623   0.102   7.832   1.390
 3894TIP3    H211624  -0.049   7.824   1.394
 3895TIP3   OH211625   3.124   2.410   3.130
 3895TIP3    H111626   3.131   2.433   3.037
 3895TIP3    H211627   3.111   2.315   3.130
 3896TIP3   OH211628   8.115   0.658   3.753
 3896TIP3    H111629   8.148   0.570   3.739
 3896TIP3    H211630   8.020   0.650   3.747
 3897TIP3   OH211631   6.615   3.453   2.057
 3897TIP3    H111632   6.710   3.462   2.060
 3897TIP3    H211633   6.597   3.423   1.967
 3898TIP3   OH211634   6.880   0.575   4.104
 3898TIP3    H111635   6.865   0.562   4.197
 3898TIP3    H211636   6.802   0.539   4.061
 3899TIP3   OH211637   6.575   3.261   1.503
 3899TIP3    H111638   6.626   3.191   1.463
 3899TIP3    H211639   6.541   3.223   1.584
 3900TIP3   OH211640   2.851   0.733   3.666
 3900TIP3    H111641   2.869   0.763   3.577
 3900TIP3    H211642   2.885   0.803   3.722
 3901TIP3   OH211643   3.101   4.794   0.426
 3901TIP3    H111644   3.023   4.795   0.482
 3901TIP3    H211645   3.149   4.873   0.450
 3902TIP3   OH211646   0.184   1.019   4.136
 3902TIP3    H111647   0.185   1.111   4.111
 3902TIP3    H211648   0.092   0.994   4.131
 3903TIP3   OH211649   2.946   7.196   4.460
 3903TIP3    H111650   2.917   7.278   4.500
 3903TIP3    H211651   2.969   7.221   4.370
 3904TIP3   OH211652   1.185   2.975   6.570
 3904TIP3    H111653   1.263   2.973   6.625
 3904TIP3    H211654   1.112   2.956   6.629
 3905TIP3   OH211655   5.878   1.449   2.668
 3905TIP3    H111656   5.903   1.363   2.634
 3905TIP3    H211657   5.789   1.437   2.702
 3906TIP3   OH211658   5.373   2.388   4.226
 3906TIP3    H111659   5.393   2.419   4.138
 3906TIP3    H211660   5.361   2.294   4.217
 3907TIP3   OH211661   3.758   2.063   6.342
 3907TIP3    H111662   3.764   1.984   6.397
 3907TIP3    H211663   3.688   2.043   6.280
 3908TIP3   OH211664   4.335   6.318   6.537
 3908TIP3    H111665   4.352   6.244   6.595
 3908TIP3    H211666   4.250   6.352   6.566
 3909TIP3   OH211667   6.283   7.206   0.176
 3909TIP3    H111668   6.220   7.278   0.180
 3909TIP3    H211669   6.341   7.222   0.251
 3910TIP3   OH211670   4.672   2.845   0.087
 3910TIP3    H111671   4.611   2.802   0.028
 3910TIP3    H211672   4.676   2.788   0.164
 3911TIP3   OH211673   0.515   0.775   5.005
 3911TIP3    H111674   0.470   0.694   4.981
 3911TIP3    H211675   0.595   0.774   4.953
 3912TIP3   OH211676   2.780   5.286   6.083
 3912TIP3    H111677   2.759   5.237   6.004
 3912TIP3    H211678   2.875   5.277   6.093
 3913TIP3   OH211679   7.826   1.240   4.504
 3913TIP3    H111680   7.854   1.327   4.475
 3913TIP3    H211681   7.756   1.257   4.566
 3914TIP3   OH211682   0.161   7.033   5.647
 3914TIP3    H111683   0.245   7.072   5.671
 3914TIP3    H211684   0.112   7.026   5.729
 3915TIP3   OH211685   6.725   3.468   2.625
 3915TIP3    H111686   6.651   3.412   2.649
 3915TIP3    H211687   6.706   3.497   2.536
 3916TIP3   OH211688   1.927   1.512   0.456
 3916TIP3    H111689   1.934   1.582   0.391
 3916TIP3    H211690   2.016   1.499   0.487
 3917TIP3   OH211691   2.128   0.627   4.097
 3917TIP3    H111692   2.115   0.602   4.189
 3917TIP3    H211693   2.221   0.612   4.081
 3918TIP3   OH211694   6.623   4.636   2.800
 3918TIP3    H111695   6.685   4.708   2.792
 3918TIP3    H211696   6.676   4.562   2.828
 3919TIP3   OH211697   4.680   5.893   2.313
 3919TIP3    H111698   4.758   5.905   2.259
 3919TIP3    H211699   4.679   5.800   2.334
 3920TIP3   OH211700   2.639   6.739   5.448
 3920TIP3    H111701   2.672   6.827   5.430
 3920TIP3    H211702   2.559   6.733   5.396
 3921TIP3   OH211703   2.058   2.553   2.889
 3921TIP3    H111704   2.068   2.479   2.948
 3921TIP3    H211705   2.067   2.515   2.801
 3922TIP3   OH211706   3.849   0.716   3.475
 3922TIP3    H111707   3.824   0.733   3.566
 3922TIP3    H211708   3.852   0.803   3.434
 3923TIP3   OH211709   6.732   7.662   6.736
 3923TIP3    H111710   6.638   7.655   6.722
 3923TIP3    H211711   6.763   7.572   6.737
 3924TIP3   OH211712   7.089   3.845   3.925
 3924TIP3    H111713   7.030   3.821   3.996
 3924TIP3    H211714   7.049   3.805   3.847
 3925TIP3   OH211715   4.354   3.300   3.212
 3925TIP3    H111716   4.337   3.210   3.238
 3925TIP3    H211717   4.276   3.348   3.240
 3926TIP3   OH211718   6.342   6.961   1.411
 3926TIP3    H111719   6.292   7.039   1.435
 3926TIP3    H211720   6.427   6.995   1.383
 3927TIP3   OH211721   2.678   3.363   0.474
 3927TIP3    H111722   2.619   3.398   0.407
 3927TIP3    H211723   2.760   3.346   0.426
 3928TIP3   OH211724   6.587   1.016   1.999
 3928TIP3    H111725   6.513   0.958   1.979
 3928TIP3    H211726   6.589   1.020   2.094
 3929TIP3   OH211727   4.763   0.054   0.361
 3929TIP3    H111728   4.745  -0.024   0.308
 3929TIP3    H211729   4.694   0.055   0.427
 3930TIP3   OH211730   5.930   0.116   2.333
 3930TIP3    H111731   5.855   0.174   2.348
 3930TIP3    H211732   5.996   0.147   2.396
 3931TIP3   OH211733   4.235   6.814   6.654
 3931TIP3    H111734   4.286   6.843   6.579
 3931TIP3    H211735   4.238   6.887   6.716
 3932TIP3   OH211736   0.566   3.569   5.447
 3932TIP3    H111737   0.559   3.588   5.540
 3932TIP3    H211738   0.497   3.505   5.430
 3933TIP3   OH211739   3.582   1.298   1.919
 3933TIP3    H111740   3.608   1.373   1.866
 3933TIP3    H211741   3.619   1.222   1.872
 3934TIP3   OH211742   3.856   3.199   5.113
 3934TIP3    H111743   3.903   3.276   5.080
 3934TIP3    H211744   3.796   3.234   5.179
 3935TIP3   OH211745   0.933   3.547   1.330
 3935TIP3    H111746   0.850   3.535   1.376
 3935TIP3    H211747   0.973   3.623   1.372
 3936TIP3   OH211748   1.982   5.367   3.729
 3936TIP3    H111749   2.049   5.357   3.661
 3936TIP3    H211750   2.024   5.334   3.809
 3937TIP3   OH211751   5.994   7.035   2.148
 3937TIP3    H111752   6.021   7.116   2.191
 3937TIP3    H211753   5.982   6.972   2.219
 3938TIP3   OH211754   8.199   4.258   4.263
 3938TIP3    H111755   8.171   4.172   4.296
 3938TIP3    H211756   8.292   4.263   4.286
 3939TIP3   OH211757   1.938   3.311   0.908
 3939TIP3    H111758   1.870   3.284   0.847
 3939TIP3    H211759   1.894   3.372   0.967
 3940TIP3   OH211760   8.108   2.288   5.910
 3940TIP3    H111761   8.030   2.333   5.877
 3940TIP3    H211762   8.180   2.349   5.894
 3941TIP3   OH211763   1.610   2.101   0.675
 3941TIP3    H111764   1.702   2.121   0.661
 3941TIP3    H211765   1.563   2.160   0.616
 3942TIP3   OH211766   5.370   0.373   5.451
 3942TIP3    H111767   5.440   0.425   5.489
 3942TIP3    H211768   5.381   0.286   5.490
 3943TIP3   OH211769   6.750   3.956   5.566
 3943TIP3    H111770   6.825   3.914   5.607
 3943TIP3    H211771   6.756   3.932   5.473
 3944TIP3   OH211772   1.648   4.520   0.199
 3944TIP3    H111773   1.645   4.434   0.240
 3944TIP3    H211774   1.590   4.574   0.253
 3945TIP3   OH211775   8.062   2.172   2.663
 3945TIP3    H111776   8.107   2.232   2.604
 3945TIP3    H211777   8.128   2.107   2.687
 3946TIP3   OH211778   1.362   4.503   6.674
 3946TIP3    H111779   1.413   4.426   6.699
 3946TIP3    H211780   1.332   4.485   6.585
 3947TIP3   OH211781   1.093   0.180   4.395
 3947TIP3    H111782   1.102   0.103   4.339
 3947TIP3    H211783   1.139   0.250   4.349
 3948TIP3   OH211784   5.524   2.623   0.944
 3948TIP3    H111785   5.542   2.713   0.917
 3948TIP3    H211786   5.503   2.630   1.037
 3949TIP3   OH211787   0.783   1.185   4.263
 3949TIP3    H111788   0.758   1.263   4.213
 3949TIP3    H211789   0.767   1.209   4.354
 3950TIP3   OH211790   5.779   1.867   1.018
 3950TIP3    H111791   5.790   1.773   1.033
 3950TIP3    H211792   5.829   1.907   1.090
 3951TIP3   OH211793   5.085   1.156   0.713
 3951TIP3    H111794   4.991   1.175   0.709
 3951TIP3    H211795   5.123   1.230   0.760
 3952TIP3   OH211796   1.191   7.416   2.722
 3952TIP3    H111797   1.259   7.482   2.739
 3952TIP3    H211798   1.118   7.443   2.779
 3953TIP3   OH211799   7.479   3.316   1.969
 3953TIP3    H111800   7.547   3.248   1.963
 3953TIP3    H211801   7.527   3.398   1.959
 3954TIP3   OH211802   5.961   0.890   3.292
 3954TIP3    H111803   5.887   0.843   3.254
 3954TIP3    H211804   5.999   0.938   3.218
 3955TIP3   OH211805   7.123   5.159   4.294
 3955TIP3    H111806   7.049   5.214   4.319
 3955TIP3    H211807   7.174   5.212   4.233
 3956TIP3   OH211808   0.447   1.924   5.444
 3956TIP3    H111809   0.363   1.947   5.486
 3956TIP3    H211810   0.438   1.956   5.354
 3957TIP3   OH211811   5.819   1.311   4.472
 3957TIP3    H111812   5.871   1.388   4.449
 3957TIP3    H211813   5.732   1.346   4.491
 3958TIP3   OH211814   5.211   3.043   5.163
 3958TIP3    H111815   5.268   3.048   5.087
 3958TIP3    H211816   5.190   2.950   5.172
 3959TIP3   OH211817   5.210   6.014   4.776
 3959TIP3    H111818   5.159   5.942   4.812
 3959TIP3    H211819   5.297   5.977   4.761
 3960TIP3   OH211820   5.755   7.901   2.296
 3960TIP3    H111821   5.684   7.837   2.287
 3960TIP3    H211822   5.778   7.923   2.206
 3961TIP3   OH211823   0.093   5.113   6.352
 3961TIP3    H111824   0.046   5.033   6.332
 3961TIP3    H211825   0.183   5.096   6.323
 3962TIP3   OH211826   1.359   4.056   2.020
 3962TIP3    H111827   1.408   4.039   1.939
 3962TIP3    H211828   1.406   4.128   2.061
 3963TIP3   OH211829   2.857   6.712   6.231
 3963TIP3    H111830   2.946   6.729   6.264
 3963TIP3    H211831   2.811   6.675   6.307
 3964TIP3   OH211832   2.032   0.061   0.504
 3964TIP3    H111833   2.040  -0.034   0.512
 3964TIP3    H211834   1.941   0.076   0.477
 3965TIP3   OH211835   7.940   5.371   0.132
 3965TIP3    H111836   7.943   5.427   0.054
 3965TIP3    H211837   8.015   5.313   0.123
 3966TIP3   OH211838   4.057   6.242   3.177
 3966TIP3    H111839   3.984   6.259   3.237
 3966TIP3    H211840   4.086   6.154   3.198
 3967TIP3   OH211841   8.136   7.677   0.990
 3967TIP3    H111842   8.120   7.725   0.909
 3967TIP3    H211843   8.063   7.702   1.047
 3968TIP3   OH211844   6.312   2.067   0.187
 3968TIP3    H111845   6.340   2.119   0.262
 3968TIP3    H211846   6.237   2.016   0.219
 3969TIP3   OH211847   2.859   5.361   3.158
 3969TIP3    H111848   2.787   5.357   3.095
 3969TIP3    H211849   2.897   5.448   3.144
 3970TIP3   OH211850   7.680   1.612   4.008
 3970TIP3    H111851   7.762   1.644   4.046
 3970TIP3    H211852   7.612   1.655   4.059
 3971TIP3   OH211853   6.514   6.129   1.150
 3971TIP3    H111854   6.589   6.175   1.186
 3971TIP3    H211855   6.490   6.065   1.217
 3972TIP3   OH211856   0.455   0.996   0.622
 3972TIP3    H111857   0.507   0.919   0.597
 3972TIP3    H211858   0.494   1.025   0.704
 3973TIP3   OH211859   4.711   5.574   6.798
 3973TIP3    H111860   4.652   5.524   6.742
 3973TIP3    H211861   4.792   5.524   6.798
 3974TIP3   OH211862   5.364   3.817   0.597
 3974TIP3    H111863   5.315   3.778   0.525
 3974TIP3    H211864   5.451   3.778   0.591
 3975TIP3   OH211865   5.346   3.925   1.257
 3975TIP3    H111866   5.288   3.856   1.222
 3975TIP3    H211867   5.286   3.986   1.300
 3976TIP3   OH211868   1.661   3.483   5.104
 3976TIP3    H111869   1.619   3.444   5.027
 3976TIP3    H211870   1.753   3.492   5.080
 3977TIP3   OH211871   7.710   2.261   3.455
 3977TIP3    H111872   7.802   2.236   3.461
 3977TIP3    H211873   7.682   2.230   3.369
 3978TIP3   OH211874   4.642   3.430   4.517
 3978TIP3    H111875   4.552   3.407   4.541
 3978TIP3    H211876   4.696   3.370   4.568
 3979TIP3   OH211877   1.321   5.185   2.878
 3979TIP3    H111878   1.411   5.217   2.868
 3979TIP3    H211879   1.328   5.111   2.938
 3980TIP3   OH211880   0.112   3.601   2.998
 3980TIP3    H111881   0.108   3.663   2.925
 3980TIP3    H211882   0.065   3.645   3.068
 3981TIP3   OH211883   7.387   2.904   4.886
 3981TIP3    H111884   7.399   2.977   4.826
 3981TIP3    H211885   7.467   2.852   4.877
 3982TIP3   OH211886   5.851   1.928   5.796
 3982TIP3    H111887   5.903   1.901   5.872
 3982TIP3    H211888   5.850   2.024   5.801
 3983TIP3   OH211889   6.207   5.927   3.568
 3983TIP3    H111890   6.127   5.894   3.610
 3983TIP3    H211891   6.266   5.852   3.567
 3984TIP3   OH211892   0.452   3.410   5.927
 3984TIP3    H111893   0.364   3.379   5.907
 3984TIP3    H211894   0.491   3.340   5.979
 3985TIP3   OH211895   0.673   1.671   3.987
 3985TIP3    H111896   0.743   1.648   3.925
 3985TIP3    H211897   0.708   1.647   4.072
 3986TIP3   OH211898   0.415   3.730   0.226
 3986TIP3    H111899   0.476   3.775   0.285
 3986TIP3    H211900   0.332   3.730   0.274
 3987TIP3   OH211901   6.135   6.351   2.817
 3987TIP3    H111902   6.195   6.407   2.768
 3987TIP3    H211903   6.147   6.379   2.908
 3988TIP3   OH211904   0.351   1.915   1.678
 3988TIP3    H111905   0.324   1.980   1.744
 3988TIP3    H211906   0.282   1.918   1.612
 3989TIP3   OH211907   4.968   0.774   6.493
 3989TIP3    H111908   5.053   0.778   6.538
 3989TIP3    H211909   4.951   0.680   6.483
 3990TIP3   OH211910   5.704   3.437   5.735
 3990TIP3    H111911   5.661   3.522   5.741
 3990TIP3    H211912   5.640   3.375   5.770
 3991TIP3   OH211913   0.461   1.411   3.342
 3991TIP3    H111914   0.411   1.439   3.266
 3991TIP3    H211915   0.466   1.316   3.333
 3992TIP3   OH211916   1.186   5.102   0.460
 3992TIP3    H111917   1.135   5.163   0.406
 3992TIP3    H211918   1.175   5.017   0.417
 3993TIP3   OH211919   5.644   3.359   4.858
 3993TIP3    H111920   5.716   3.317   4.810
 3993TIP3    H211921   5.587   3.394   4.790
 3994TIP3   OH211922   7.448   3.753   2.778
 3994TIP3    H111923   7.514   3.690   2.750
 3994TIP3    H211924   7.409   3.714   2.856
 3995TIP3   OH211925   3.730   6.102   6.712
 3995TIP3    H111926   3.749   6.123   6.620
 3995TIP3    H211927   3.773   6.018   6.726
 3996TIP3   OH211928   1.177   7.648   4.394
 3996TIP3    H111929   1.156   7.724   4.340
 3996TIP3    H211930   1.186   7.576   4.331
 3997TIP3   OH211931   1.492   4.976   1.816
 3997TIP3    H111932   1.435   5.045   1.851
 3997TIP3    H211933   1.447   4.946   1.737
 3998TIP3   OH211934   6.385   0.698   3.639
 3998TIP3    H111935   6.322   0.661   3.701
 3998TIP3    H211936   6.396   0.629   3.572
 3999TIP3   OH211937   0.574   1.835   5.107
 3999TIP3    H111938   0.610   1.778   5.175
 3999TIP3    H211939   0.480   1.822   5.111
 4000TIP3   OH211940   7.594   7.426   3.929
 4000TIP3    H111941   7.686   7.428   3.902
 4000TIP3    H211942   7.583   7.504   3.984
 4001TIP3   OH211943   5.467   4.392   5.856
 4001TIP3    H111944   5.483   4.404   5.762
 4001TIP3    H211945   5.542   4.433   5.898
 4002TIP3   OH211946   6.780   7.225   3.056
 4002TIP3    H111947   6.863   7.221   3.102
 4002TIP3    H211948   6.715   7.194   3.119
 4003TIP3   OH211949   6.061   5.810   6.570
 4003TIP3    H111950   5.982   5.779   6.614
 4003TIP3    H211951   6.088   5.886   6.621
 4004TIP3   OH211952   3.176   6.694   5.831
 4004TIP3    H111953   3.113   6.625   5.851
 4004TIP3    H211954   3.207   6.673   5.743
 4005TIP3   OH211955   5.308   6.464   5.134
 4005TIP3    H111956   5.390   6.426   5.167
 4005TIP3    H211957   5.266   6.500   5.212
 4006TIP3   OH211958   0.894   7.644   1.073
 4006TIP3    H111959   0.961   7.599   1.123
 4006TIP3    H211960   0.851   7.701   1.137
 4007TIP3   OH211961   7.284   6.758   6.516
 4007TIP3    H111962   7.261   6.833   6.461
 4007TIP3    H211963   7.359   6.719   6.471
 4008TIP3   OH211964   1.866   1.955   3.056
 4008TIP3    H111965   1.861   2.039   3.102
 4008TIP3    H211966   1.903   1.976   2.971
 4009TIP3   OH211967   5.478   4.670   1.939
 4009TIP3    H111968   5.397   4.684   1.891
 4009TIP3    H211969   5.502   4.756   1.973
 4010TIP3   OH211970   2.176   3.762   0.702
 4010TIP3    H111971   2.138   3.734   0.619
 4010TIP3    H211972   2.186   3.680   0.752
 4011TIP3   OH211973   2.615   0.874   3.781
 4011TIP3    H111974   2.582   0.796   3.826
 4011TIP3    H211975   2.603   0.945   3.844
 4012TIP3   OH211976   5.564   5.449   2.565
 4012TIP3    H111977   5.588   5.434   2.473
 4012TIP3    H211978   5.572   5.363   2.606
 4013TIP3   OH211979   1.218   3.202   1.320
 4013TIP3    H111980   1.272   3.197   1.399
 4013TIP3    H211981   1.244   3.285   1.279
 4014TIP3   OH211982   4.288   1.443   4.406
 4014TIP3    H111983   4.333   1.516   4.448
 4014TIP3    H211984   4.352   1.372   4.408
 4015TIP3   OH211985   1.666   4.423   4.543
 4015TIP3    H111986   1.664   4.449   4.451
 4015TIP3    H211987   1.725   4.487   4.584
 4016TIP3   OH211988   8.032   4.197   2.227
 4016TIP3    H111989   7.987   4.281   2.231
 4016TIP3    H211990   8.018   4.166   2.137
 4017TIP3   OH211991   0.006   6.154   5.581
 4017TIP3    H111992   0.040   6.076   5.624
 4017TIP3    H211993  -0.009   6.216   5.652
 4018TIP3   OH211994   1.021   0.828   3.565
 4018TIP3    H111995   0.985   0.906   3.522
 4018TIP3    H211996   1.016   0.759   3.499
 4019TIP3   OH211997   3.908   2.761   0.420
 4019TIP3    H111998   4.002   2.761   0.405
 4019TIP3    H211999   3.897   2.722   0.507
 4020TIP3   OH212000   7.203   7.813   5.014
 4020TIP3    H112001   7.279   7.787   4.962
 4020TIP3    H212002   7.144   7.738   5.009
 4021TIP3   OH212003   7.707   3.108   0.552
 4021TIP3    H112004   7.682   3.016   0.558
 4021TIP3    H212005   7.718   3.124   0.458
 4022TIP3   OH212006   8.268   2.678  -0.022
 4022TIP3    H112007   8.232   2.589  -0.031
 4022TIP3    H212008   8.335   2.669   0.046
 4023TIP3   OH212009   6.057   6.902   1.131
 4023TIP3    H112010   6.134   6.847   1.146
 4023TIP3    H212011   5.998   6.881   1.203
 4024TIP3   OH212012   7.724   0.826   2.155
 4024TIP3    H112013   7.665   0.861   2.088
 4024TIP3    H212014   7.782   0.899   2.176
 4025TIP3   OH212015   7.840   3.599   6.135
 4025TIP3    H112016   7.849   3.694   6.135
 4025TIP3    H212017   7.888   3.570   6.212
 4026TIP3   OH212018   6.787   3.251   1.795
 4026TIP3    H112019   6.804   3.343   1.816
 4026TIP3    H212020   6.874   3.211   1.789
 4027TIP3   OH212021   6.667   1.497   1.682
 4027TIP3    H112022   6.586   1.532   1.719
 4027TIP3    H212023   6.723   1.480   1.757
 4028TIP3   OH212024   0.156   6.649   2.487
 4028TIP3    H112025   0.101   6.585   2.441
 4028TIP3    H212026   0.129   6.641   2.579
 4029TIP3   OH212027   3.108   6.416   4.357
 4029TIP3    H112028   3.099   6.408   4.452
 4029TIP3    H212029   3.171   6.348   4.333
 4030TIP3   OH212030   4.441   2.497   0.443
 4030TIP3    H112031   4.347   2.485   0.456
 4030TIP3    H212032   4.455   2.591   0.458
 4031TIP3   OH212033   0.985   2.705   1.518
 4031TIP3    H112034   0.921   2.732   1.452
 4031TIP3    H212035   0.938   2.709   1.601
 4032TIP3   OH212036   6.449   1.265   5.178
 4032TIP3    H112037   6.461   1.170   5.183
 4032TIP3    H212038   6.371   1.282   5.230
 4033TIP3   OH212039   3.765   6.468   1.619
 4033TIP3    H112040   3.725   6.554   1.612
 4033TIP3    H212041   3.830   6.467   1.548
 4034TIP3   OH212042   8.150  -0.027   2.945
 4034TIP3    H112043   8.177   0.051   2.898
 4034TIP3    H212044   8.176  -0.100   2.889
 4035TIP3   OH212045   2.679   6.934   0.124
 4035TIP3    H112046   2.701   6.964   0.212
 4035TIP3    H212047   2.691   7.010   0.068
 4036TIP3   OH212048   5.915   5.441   5.555
 4036TIP3    H112049   5.897   5.433   5.649
 4036TIP3    H212050   5.998   5.488   5.551
 4037TIP3   OH212051   7.077   1.653   0.330
 4037TIP3    H112052   7.013   1.724   0.333
 4037TIP3    H212053   7.158   1.693   0.363
 4038TIP3   OH212054   7.982   5.727   3.257
 4038TIP3    H112055   8.013   5.638   3.275
 4038TIP3    H212056   8.013   5.778   3.332
 4039TIP3   OH212057   1.344   1.587   2.696
 4039TIP3    H112058   1.348   1.616   2.605
 4039TIP3    H212059   1.251   1.576   2.714
 4040TIP3   OH212060   4.741   1.052   6.204
 4040TIP3    H112061   4.773   0.963   6.187
 4040TIP3    H212062   4.761   1.099   6.123
 4041TIP3   OH212063   6.949   0.843   3.741
 4041TIP3    H112064   6.915   0.863   3.654
 4041TIP3    H212065   7.022   0.903   3.753
 4042TIP3   OH212066   6.552   6.599   1.099
 4042TIP3    H112067   6.620   6.557   1.047
 4042TIP3    H212068   6.560   6.692   1.079
 4043TIP3   OH212069   2.012   7.573   1.187
 4043TIP3    H112070   1.967   7.636   1.131
 4043TIP3    H212071   2.010   7.490   1.138
 4044TIP3   OH212072   2.542   1.868   5.930
 4044TIP3    H112073   2.627   1.835   5.958
 4044TIP3    H212074   2.483   1.845   6.001
 4045TIP3   OH212075   1.414   4.479   5.983
 4045TIP3    H112076   1.325   4.446   5.974
 4045TIP3    H212077   1.405   4.575   5.979
 4046TIP3   OH212078   0.256   0.132   3.556
 4046TIP3    H112079   0.164   0.123   3.580
 4046TIP3    H212080   0.303   0.090   3.628
 4047TIP3   OH212081   7.136   2.408   2.876
 4047TIP3    H112082   7.197   2.466   2.921
 4047TIP3    H212083   7.116   2.453   2.794
 4048TIP3   OH212084   5.893   0.060   0.001
 4048TIP3    H112085   5.883   0.111   0.081
 4048TIP3    H212086   5.982   0.080  -0.030
 4049TIP3   OH212087   0.963   1.479   5.906
 4049TIP3    H112088   0.881   1.432   5.915
 4049TIP3    H212089   1.031   1.416   5.929
 4050TIP3   OH212090   2.016   2.879   4.803
 4050TIP3    H112091   1.927   2.853   4.781
 4050TIP3    H212092   2.048   2.809   4.859
 4051TIP3   OH212093   0.794   1.234   0.338
 4051TIP3    H112094   0.716   1.263   0.384
 4051TIP3    H212095   0.867   1.275   0.385
 4052TIP3   OH212096   0.992   5.570   3.991
 4052TIP3    H112097   0.969   5.573   4.084
 4052TIP3    H212098   1.011   5.478   3.974
 4053TIP3   OH212099   0.174   7.163   5.036
 4053TIP3    H112100   0.101   7.201   5.085
 4053TIP3    H212101   0.132   7.103   4.973
 4054TIP3   OH212102   3.683   2.202   0.131
 4054TIP3    H112103   3.605   2.231   0.083
 4054TIP3    H212104   3.669   2.108   0.145
 4055TIP3   OH212105   5.809   2.060   4.664
 4055TIP3    H112106   5.788   1.968   4.679
 4055TIP3    H212107   5.792   2.103   4.747
 4056TIP3   OH212108   4.122   0.832   5.685
 4056TIP3    H112109   4.086   0.808   5.771
 4056TIP3    H212110   4.137   0.926   5.691
 4057TIP3   OH212111   0.692   4.411   5.473
 4057TIP3    H112112   0.614   4.356   5.485
 4057TIP3    H212113   0.690   4.471   5.547
 4058TIP3   OH212114   0.698   1.994   6.563
 4058TIP3    H112115   0.648   2.047   6.624
 4058TIP3    H212116   0.680   1.904   6.587
 4059TIP3   OH212117   3.784   5.445   2.090
 4059TIP3    H112118   3.813   5.354   2.084
 4059TIP3    H212119   3.689   5.442   2.075
 4060TIP3   OH212120   1.844   2.779   4.391
 4060TIP3    H112121   1.779   2.712   4.372
 4060TIP3    H212122   1.890   2.793   4.308
 4061TIP3   OH212123   8.423   2.664   3.509
 4061TIP3    H112124   8.350   2.715   3.543
 4061TIP3    H212125   8.398   2.572   3.524
 4062TIP3   OH212126   1.275   3.022   5.071
 4062TIP3    H112127   1.254   3.109   5.035
 4062TIP3    H212128   1.227   2.961   5.016
 4063TIP3   OH212129   7.430   1.348   1.779
 4063TIP3    H112130   7.481   1.267   1.777
 4063TIP3    H212131   7.390   1.349   1.866
 4064TIP3   OH212132   4.383   0.997   2.812
 4064TIP3    H112133   4.453   1.027   2.754
 4064TIP3    H212134   4.420   1.006   2.900
 4065TIP3   OH212135   4.711   2.551   0.584
 4065TIP3    H112136   4.622   2.527   0.561
 4065TIP3    H212137   4.701   2.608   0.661
 4066TIP3   OH212138   7.841   1.374   3.239
 4066TIP3    H112139   7.896   1.433   3.187
 4066TIP3    H212140   7.768   1.428   3.268
 4067TIP3   OH212141   0.674   7.662   3.183
 4067TIP3    H112142   0.649   7.596   3.248
 4067TIP3    H212143   0.646   7.625   3.099
 4068TIP3   OH212144   5.067   3.571   5.145
 4068TIP3    H112145   5.065   3.476   5.156
 4068TIP3    H212146   5.117   3.584   5.064
 4069TIP3   OH212147   3.422   6.436   6.002
 4069TIP3    H112148   3.434   6.507   5.938
 4069TIP3    H212149   3.409   6.481   6.085
 4070TIP3   OH212150   0.127   1.468   5.714
 4070TIP3    H112151   0.076   1.401   5.668
 4070TIP3    H212152   0.165   1.422   5.789
 4071TIP3   OH212153   7.236   1.580   5.166
 4071TIP3    H112154   7.208   1.585   5.257
 4071TIP3    H212155   7.198   1.498   5.134
 4072TIP3   OH212156   4.586   1.320   4.121
 4072TIP3    H112157   4.664   1.307   4.068
 4072TIP3    H212158   4.539   1.236   4.115
 4073TIP3   OH212159   0.426   0.161   2.160
 4073TIP3    H112160   0.339   0.128   2.139
 4073TIP3    H212161   0.410   0.242   2.208
 4074TIP3   OH212162   7.909   2.490   0.058
 4074TIP3    H112163   7.987   2.458   0.104
 4074TIP3    H212164   7.922   2.465  -0.033
 4075TIP3   OH212165   6.772   6.204   1.228
 4075TIP3    H112166   6.768   6.295   1.258
 4075TIP3    H212167   6.845   6.202   1.166
 4076TIP3   OH212168   4.005   3.774   5.042
 4076TIP3    H112169   3.943   3.845   5.026
 4076TIP3    H212170   4.019   3.776   5.137
 4077TIP3   OH212171   2.993   5.968   1.943
 4077TIP3    H112172   2.933   6.029   1.986
 4077TIP3    H212173   3.065   6.023   1.912
 4078TIP3   OH212174   1.178   7.622   4.778
 4078TIP3    H112175   1.118   7.645   4.849
 4078TIP3    H212176   1.148   7.535   4.750
 4079TIP3   OH212177   3.437   3.355   5.611
 4079TIP3    H112178   3.399   3.408   5.680
 4079TIP3    H212179   3.420   3.265   5.638
 4080TIP3   OH212180   1.962   6.222   5.619
 4080TIP3    H112181   1.875   6.194   5.649
 4080TIP3    H212182   2.016   6.144   5.625
 4081TIP3   OH212183   5.082   7.356   4.382
 4081TIP3    H112184   5.052   7.367   4.292
 4081TIP3    H212185   5.099   7.444   4.413
 4082TIP3   OH212186   2.424   3.282   5.159
 4082TIP3    H112187   2.418   3.354   5.096
 4082TIP3    H212188   2.420   3.203   5.105
 4083TIP3   OH212189   8.092   7.266   4.926
 4083TIP3    H112190   8.108   7.352   4.964
 4083TIP3    H212191   8.174   7.244   4.881
 4084TIP3   OH212192   5.276   5.667   3.537
 4084TIP3    H112193   5.296   5.752   3.575
 4084TIP3    H212194   5.346   5.610   3.567
 4085TIP3   OH212195   0.638   7.573   6.758
 4085TIP3    H112196   0.674   7.552   6.672
 4085TIP3    H212197   0.709   7.619   6.803
 4086TIP3   OH212198   3.746   1.765   4.214
 4086TIP3    H112199   3.770   1.677   4.242
 4086TIP3    H212200   3.787   1.823   4.279
 4087TIP3   OH212201   0.445   1.821   0.732
 4087TIP3    H112202   0.393   1.886   0.780
 4087TIP3    H212203   0.458   1.859   0.646
 4088TIP3   OH212204   3.180   5.498   3.586
 4088TIP3    H112205   3.144   5.586   3.598
 4088TIP3    H212206   3.104   5.441   3.579
 4089TIP3   OH212207   0.143   0.394   5.999
 4089TIP3    H112208   0.103   0.361   6.079
 4089TIP3    H212209   0.069   0.429   5.948
 4090TIP3   OH212210   8.409   3.911   5.737
 4090TIP3    H112211   8.332   3.965   5.756
 4090TIP3    H212212   8.482   3.972   5.741
 4091TIP3   OH212213   4.779   0.675   1.333
 4091TIP3    H112214   4.783   0.586   1.367
 4091TIP3    H212215   4.768   0.664   1.239
 4092TIP3   OH212216   7.594   3.046   0.251
 4092TIP3    H112217   7.649   3.123   0.264
 4092TIP3    H212218   7.589   3.037   0.155
 4093TIP3   OH212219   5.760   2.591   5.374
 4093TIP3    H112220   5.799   2.676   5.355
 4093TIP3    H212221   5.668   2.601   5.349
 4094TIP3   OH212222   4.270   4.016   5.712
 4094TIP3    H112223   4.266   3.933   5.760
 4094TIP3    H212224   4.232   3.996   5.627
 4095TIP3   OH212225   2.705   3.435   5.170
 4095TIP3    H112226   2.700   3.381   5.249
 4095TIP3    H212227   2.770   3.392   5.115
 4096TIP3   OH212228   3.271   1.768   4.264
 4096TIP3    H112229   3.211   1.769   4.189
 4096TIP3    H212230   3.224   1.813   4.334
 4097TIP3   OH212231   6.628   7.382   1.115
 4097TIP3    H112232   6.672   7.457   1.076
 4097TIP3    H212233   6.566   7.420   1.177
 4098TIP3   OH212234   6.632   2.674   0.684
 4098TIP3    H112235   6.707   2.619   0.663
 4098TIP3    H212236   6.627   2.672   0.779
 4099TIP3   OH212237   1.101   4.657   1.593
 4099TIP3    H112238   1.006   4.655   1.607
 4099TIP3    H212239   1.129   4.739   1.635
 4100TIP3   OH212240   2.560   6.117   4.265
 4100TIP3    H112241   2.597   6.030   4.274
 4100TIP3    H212242   2.623   6.165   4.212
 4101TIP3   OH212243   7.345   4.475   5.196
 4101TIP3    H112244   7.345   4.388   5.157
 4101TIP3    H212245   7.354   4.459   5.290
 4102TIP3   OH212246   6.802   2.405   2.850
 4102TIP3    H112247   6.856   2.431   2.776
 4102TIP3    H212248   6.851   2.434   2.927
 4103TIP3   OH212249   5.046   4.993   1.650
 4103TIP3    H112250   5.088   5.072   1.684
 4103TIP3    H212251   4.973   4.977   1.709
 4104TIP3   OH212252   4.040   6.975   6.334
 4104TIP3    H112253   3.984   6.946   6.406
 4104TIP3    H212254   4.071   7.061   6.362
 4105TIP3   OH212255   3.286   6.725   2.100
 4105TIP3    H112256   3.303   6.663   2.029
 4105TIP3    H212257   3.190   6.731   2.104
 4106TIP3   OH212258   6.251   4.918   6.785
 4106TIP3    H112259   6.325   4.925   6.725
 4106TIP3    H212260   6.175   4.946   6.734
 4107TIP3   OH212261   4.895   1.153   4.726
 4107TIP3    H112262   4.966   1.090   4.738
 4107TIP3    H212263   4.843   1.145   4.806
 4108TIP3   OH212264   0.820   0.990   3.360
 4108TIP3    H112265   0.739   0.940   3.374
 4108TIP3    H212266   0.813   1.064   3.420
 4109TIP3   OH212267   2.977   1.744   2.622
 4109TIP3    H112268   3.062   1.705   2.603
 4109TIP3    H212269   2.953   1.709   2.708
 4110TIP3   OH212270   7.746   7.565   6.032
 4110TIP3    H112271   7.655   7.594   6.034
 4110TIP3    H212272   7.760   7.535   5.942
 4111TIP3   OH212273   5.561   3.667   5.718
 4111TIP3    H112274   5.471   3.695   5.698
 4111TIP3    H212275   5.616   3.721   5.660
 4112TIP3   OH212276   6.989   3.724   6.646
 4112TIP3    H112277   7.075   3.743   6.683
 4112TIP3    H212278   7.004   3.651   6.586
 4113TIP3   OH212279   2.741   4.606   6.214
 4113TIP3    H112280   2.648   4.588   6.200
 4113TIP3    H212281   2.777   4.523   6.246
 4114TIP3   OH212282   6.564   2.043   4.870
 4114TIP3    H112283   6.583   2.129   4.834
 4114TIP3    H212284   6.473   2.025   4.844
 4115TIP3   OH212285   6.433   3.541   6.498
 4115TIP3    H112286   6.355   3.562   6.549
 4115TIP3    H212287   6.493   3.613   6.515
 4116TIP3   OH212288   3.566   4.514   3.156
 4116TIP3    H112289   3.569   4.419   3.154
 4116TIP3    H212290   3.651   4.541   3.190
 4117TIP3   OH212291   7.688   3.467   0.120
 4117TIP3    H112292   7.595   3.487   0.131
 4117TIP3    H212293   7.730   3.553   0.116
 4118TIP3   OH212294   0.040   7.484   5.138
 4118TIP3    H112295  -0.055   7.499   5.133
 4118TIP3    H212296   0.051   7.391   5.118
 4119TIP3   OH212297   5.034   7.791   5.558
 4119TIP3    H112298   5.107   7.827   5.609
 4119TIP3    H212299   5.055   7.813   5.467
 4120TIP3   OH212300   3.575   1.924   0.167
 4120TIP3    H112301   3.537   1.868   0.100
 4120TIP3    H212302   3.666   1.893   0.175
 4121TIP3   OH212303   6.308   5.619   1.237
 4121TIP3    H112304   6.238   5.664   1.190
 4121TIP3    H212305   6.267   5.539   1.271
 4122TIP3   OH212306   2.159   7.396   1.848
 4122TIP3    H112307   2.159   7.329   1.916
 4122TIP3    H212308   2.105   7.466   1.884
 4123TIP3   OH212309   1.123   6.925   6.062
 4123TIP3    H112310   1.123   6.977   6.143
 4123TIP3    H212311   1.204   6.874   6.067
 4124TIP3   OH212312   8.170   1.540   2.769
 4124TIP3    H112313   8.103   1.561   2.833
 4124TIP3    H212314   8.247   1.517   2.821
 4125TIP3   OH212315   2.934   7.543   0.321
 4125TIP3    H112316   2.840   7.527   0.331
 4125TIP3    H212317   2.939   7.624   0.270
 4126TIP3   OH212318   2.657   7.541   1.523
 4126TIP3    H112319   2.582   7.586   1.562
 4126TIP3    H212320   2.628   7.519   1.434
 4127TIP3   OH212321   0.695   1.616   5.628
 4127TIP3    H112322   0.601   1.599   5.632
 4127TIP3    H212323   0.733   1.531   5.607
 4128TIP3   OH212324   1.595   7.827   3.867
 4128TIP3    H112325   1.572   7.828   3.960
 4128TIP3    H212326   1.663   7.894   3.858
 4129TIP3   OH212327   3.869   3.797   0.174
 4129TIP3    H112328   3.790   3.822   0.222
 4129TIP3    H212329   3.836   3.762   0.091
 4130TIP3   OH212330   8.201   3.431   1.241
 4130TIP3    H112331   8.135   3.381   1.195
 4130TIP3    H212332   8.203   3.516   1.196
 4131TIP3   OH212333   7.529   2.670   4.818
 4131TIP3    H112334   7.624   2.679   4.812
 4131TIP3    H212335   7.503   2.636   4.732
 4132TIP3   OH212336   1.825   5.553  -0.040
 4132TIP3    H112337   1.836   5.502   0.040
 4132TIP3    H212338   1.749   5.515  -0.083
 4133TIP3   OH212339   8.058   0.300   0.636
 4133TIP3    H112340   8.062   0.285   0.730
 4133TIP3    H212341   8.058   0.395   0.627
 4134TIP3   OH212342   2.277   3.666   5.713
 4134TIP3    H112343   2.241   3.613   5.784
 4134TIP3    H212344   2.366   3.688   5.742
 4135TIP3   OH212345   3.285   0.755   0.181
 4135TIP3    H112346   3.279   0.663   0.206
 4135TIP3    H212347   3.371   0.782   0.213
 4136TIP3   OH212348   2.509   2.001   2.660
 4136TIP3    H112349   2.478   2.065   2.725
 4136TIP3    H212350   2.520   1.920   2.709
 4137TIP3   OH212351   0.594   2.980   4.819
 4137TIP3    H112352   0.572   3.052   4.760
 4137TIP3    H212353   0.569   2.901   4.771
 4138TIP3   OH212354  -0.021   3.923   0.798
 4138TIP3    H112355  -0.021   3.828   0.788
 4138TIP3    H212356  -0.046   3.956   0.711
 4139TIP3   OH212357   6.739   3.015   1.616
 4139TIP3    H112358   6.648   3.000   1.640
 4139TIP3    H212359   6.758   3.103   1.649
 4140TIP3   OH212360   4.399   4.717   1.426
 4140TIP3    H112361   4.440   4.631   1.429
 4140TIP3    H212362   4.305   4.699   1.438
 4141TIP3   OH212363   4.214   1.521   3.346
 4141TIP3    H112364   4.130   1.529   3.391
 4141TIP3    H212365   4.276   1.498   3.415
 4142TIP3   OH212366   3.352   1.961   1.165
 4142TIP3    H112367   3.443   1.960   1.135
 4142TIP3    H212368   3.306   1.903   1.105
 4143TIP3   OH212369   4.232   7.461   0.051
 4143TIP3    H112370   4.207   7.539   0.001
 4143TIP3    H212371   4.289   7.495   0.120
 4144TIP3   OH212372   5.277   0.186   5.927
 4144TIP3    H112373   5.357   0.143   5.899
 4144TIP3    H212374   5.284   0.192   6.022
 4145TIP3   OH212375   5.438   3.769   1.687
 4145TIP3    H112376   5.461   3.815   1.607
 4145TIP3    H212377   5.344   3.784   1.697
 4146TIP3   OH212378   6.519   4.467   4.804
 4146TIP3    H112379   6.603   4.429   4.830
 4146TIP3    H212380   6.475   4.395   4.758
 4147TIP3   OH212381   0.370   5.514   1.538
 4147TIP3    H112382   0.446   5.492   1.591
 4147TIP3    H212383   0.296   5.476   1.586
 4148TIP3   OH212384   7.423   3.639   3.047
 4148TIP3    H112385   7.460   3.701   3.110
 4148TIP3    H212386   7.489   3.570   3.039
 4149TIP3   OH212387   3.485   6.698   2.940
 4149TIP3    H112388   3.505   6.790   2.924
 4149TIP3    H212389   3.509   6.653   2.859
 4150TIP3   OH212390   5.368   5.803   1.230
 4150TIP3    H112391   5.456   5.788   1.264
 4150TIP3    H212392   5.371   5.773   1.139
 4151TIP3   OH212393   7.845   4.432   5.987
 4151TIP3    H112394   7.857   4.444   5.893
 4151TIP3    H212395   7.890   4.506   6.027
 4152TIP3   OH212396   8.085  -0.003   3.483
 4152TIP3    H112397   8.117  -0.080   3.531
 4152TIP3    H212398   8.002   0.019   3.525
 4153TIP3   OH212399   1.085   3.015   0.132
 4153TIP3    H112400   1.026   2.956   0.085
 4153TIP3    H212401   1.138   3.056   0.064
 4154TIP3   OH212402   4.841   5.057   4.642
 4154TIP3    H112403   4.932   5.077   4.664
 4154TIP3    H212404   4.847   4.999   4.567
 4155TIP3   OH212405   2.348   7.564   3.362
 4155TIP3    H112406   2.431   7.611   3.365
 4155TIP3    H212407   2.370   7.477   3.330
 4156TIP3   OH212408   0.464   4.035   2.555
 4156TIP3    H112409   0.387   4.090   2.537
 4156TIP3    H212410   0.481   4.048   2.648
 4157TIP3   OH212411   8.246   5.027   6.078
 4157TIP3    H112412   8.153   5.015   6.061
 4157TIP3    H212413   8.275   5.091   6.012
 4158TIP3   OH212414   4.961   1.958   5.007
 4158TIP3    H112415   5.022   2.031   5.007
 4158TIP3    H212416   4.982   1.909   4.927
 4159TIP3   OH212417   2.080   6.155   4.960
 4159TIP3    H112418   2.114   6.139   5.048
 4159TIP3    H212419   2.076   6.068   4.920
 4160TIP3   OH212420   2.714   0.757   1.641
 4160TIP3    H112421   2.633   0.768   1.592
 4160TIP3    H212422   2.783   0.772   1.577
 4161TIP3   OH212423   1.961   6.483   5.768
 4161TIP3    H112424   1.983   6.402   5.722
 4161TIP3    H212425   1.868   6.497   5.749
 4162TIP3   OH212426   4.668   2.583   2.558
 4162TIP3    H112427   4.727   2.575   2.633
 4162TIP3    H212428   4.703   2.523   2.493
 4163TIP3   OH212429   0.110   6.969   3.448
 4163TIP3    H112430   0.015   6.960   3.462
 4163TIP3    H212431   0.129   6.912   3.374
 4164TIP3   OH212432   2.455   4.890   6.252
 4164TIP3    H112433   2.465   4.968   6.308
 4164TIP3    H212434   2.481   4.817   6.308
 4165TIP3   OH212435   2.065   3.362   6.216
 4165TIP3    H112436   2.054   3.275   6.178
 4165TIP3    H212437   2.080   3.346   6.309
 4166TIP3   OH212438   4.334   6.983   2.162
 4166TIP3    H112439   4.399   7.026   2.219
 4166TIP3    H212440   4.279   6.934   2.223
 4167TIP3   OH212441   1.846   3.037   2.319
 4167TIP3    H112442   1.769   2.989   2.288
 4167TIP3    H212443   1.861   3.002   2.407
 4168TIP3   OH212444   1.115   7.463   6.688
 4168TIP3    H112445   1.039   7.515   6.713
 4168TIP3    H212446   1.123   7.476   6.594
 4169TIP3   OH212447   7.940   1.943   0.856
 4169TIP3    H112448   7.906   1.955   0.767
 4169TIP3    H212449   7.906   2.018   0.905
 4170TIP3   OH212450   2.020   3.094   6.730
 4170TIP3    H112451   2.103   3.052   6.754
 4170TIP3    H212452   1.988   3.133   6.811
 4171TIP3   OH212453   5.512   0.080   1.116
 4171TIP3    H112454   5.476   0.045   1.198
 4171TIP3    H212455   5.531   0.002   1.064
 4172TIP3   OH212456   3.096   5.114   5.280
 4172TIP3    H112457   3.163   5.122   5.213
 4172TIP3    H212458   3.138   5.146   5.360
 4173TIP3   OH212459   8.002   2.775   4.744
 4173TIP3    H112460   8.001   2.706   4.677
 4173TIP3    H212461   8.095   2.787   4.764
 4174TIP3   OH212462   7.536   6.475   6.856
 4174TIP3    H112463   7.530   6.383   6.830
 4174TIP3    H212464   7.461   6.490   6.913
 4175TIP3   OH212465   6.479   5.538   6.539
 4175TIP3    H112466   6.461   5.603   6.471
 4175TIP3    H212467   6.393   5.518   6.576
 4176TIP3   OH212468   3.412   3.279   0.504
 4176TIP3    H112469   3.429   3.348   0.569
 4176TIP3    H212470   3.394   3.201   0.556
 4177TIP3   OH212471   1.775   5.618   3.058
 4177TIP3    H112472   1.730   5.546   3.102
 4177TIP3    H212473   1.705   5.674   3.024
 4178TIP3   OH212474   0.360   5.975   0.270
 4178TIP3    H112475   0.381   6.004   0.181
 4178TIP3    H212476   0.339   5.882   0.261
 4179TIP3   OH212477   3.550   0.864   3.882
 4179TIP3    H112478   3.564   0.948   3.837
 4179TIP3    H212479   3.461   0.871   3.917
 4180TIP3   OH212480   7.572   1.799   2.321
 4180TIP3    H112481   7.586   1.710   2.291
 4180TIP3    H212482   7.490   1.826   2.279
 4181TIP3   OH212483   5.068   3.260   3.592
 4181TIP3    H112484   5.120   3.306   3.526
 4181TIP3    H212485   4.981   3.253   3.554
 4182TIP3   OH212486   6.485   1.823   0.163
 4182TIP3    H112487   6.460   1.776   0.242
 4182TIP3    H212488   6.467   1.915   0.183
 4183TIP3   OH212489   0.369   0.660   2.281
 4183TIP3    H112490   0.370   0.721   2.355
 4183TIP3    H212491   0.316   0.705   2.214
 4184TIP3   OH212492   1.153   2.687   2.326
 4184TIP3    H112493   1.234   2.648   2.360
 4184TIP3    H212494   1.139   2.764   2.381
 4185TIP3   OH212495   6.810   6.307   1.580
 4185TIP3    H112496   6.836   6.345   1.496
 4185TIP3    H212497   6.890   6.267   1.614
 4186TIP3   OH212498   1.855   3.889   0.765
 4186TIP3    H112499   1.790   3.836   0.811
 4186TIP3    H212500   1.936   3.879   0.816
 4187TIP3   OH212501   2.289   7.353   6.325
 4187TIP3    H112502   2.245   7.381   6.245
 4187TIP3    H212503   2.284   7.429   6.383
 4188TIP3   OH212504   0.255   5.656   2.633
 4188TIP3    H112505   0.219   5.717   2.569
 4188TIP3    H212506   0.350   5.666   2.625
 4189TIP3   OH212507   5.469   3.444   6.406
 4189TIP3    H112508   5.519   3.364   6.417
 4189TIP3    H212509   5.400   3.422   6.344
 4190TIP3   OH212510   7.086   6.253   4.356
 4190TIP3    H112511   7.106   6.296   4.273
 4190TIP3    H212512   7.151   6.287   4.418
 4191TIP3   OH212513   1.629   7.026   2.987
 4191TIP3    H112514   1.704   7.086   2.988
 4191TIP3    H212515   1.668   6.939   2.999
 4192TIP3   OH212516   2.040   7.806   6.587
 4192TIP3    H112517   1.986   7.845   6.656
 4192TIP3    H212518   2.112   7.764   6.634
 4193TIP3   OH212519   8.387   4.207   5.657
 4193TIP3    H112520   8.426   4.277   5.710
 4193TIP3    H212521   8.312   4.177   5.707
 4194TIP3   OH212522   7.419   4.876   1.294
 4194TIP3    H112523   7.452   4.904   1.379
 4194TIP3    H212524   7.457   4.938   1.231
 4195TIP3   OH212525   5.010   6.036   4.202
 4195TIP3    H112526   5.075   6.064   4.138
 4195TIP3    H212527   4.998   6.111   4.260
 4196TIP3   OH212528   1.695   5.224   3.607
 4196TIP3    H112529   1.713   5.317   3.596
 4196TIP3    H212530   1.727   5.203   3.695
 4197TIP3   OH212531   8.257   4.781   0.398
 4197TIP3    H112532   8.171   4.739   0.397
 4197TIP3    H212533   8.245   4.860   0.451
 4198TIP3   OH212534   4.987   5.249   2.314
 4198TIP3    H112535   4.958   5.245   2.222
 4198TIP3    H212536   5.028   5.334   2.322
 4199TIP3   OH212537   6.730   2.760   4.689
 4199TIP3    H112538   6.648   2.732   4.730
 4199TIP3    H212539   6.798   2.736   4.752
 4200TIP3   OH212540   5.325   0.741   2.454
 4200TIP3    H112541   5.390   0.737   2.383
 4200TIP3    H212542   5.284   0.654   2.453
 4201TIP3   OH212543   1.077   4.698   5.432
 4201TIP3    H112544   1.154   4.640   5.430
 4201TIP3    H212545   1.032   4.681   5.350
 4202TIP3   OH212546   1.832   1.219   1.602
 4202TIP3    H112547   1.766   1.190   1.540
 4202TIP3    H212548   1.840   1.147   1.665
 4203TIP3   OH212549   3.458   3.059   1.172
 4203TIP3    H112550   3.504   2.997   1.115
 4203TIP3    H212551   3.526   3.099   1.225
 4204TIP3   OH212552   2.386   4.933   1.481
 4204TIP3    H112553   2.347   5.015   1.512
 4204TIP3    H212554   2.422   4.893   1.560
 4205TIP3   OH212555   7.888   1.692   3.203
 4205TIP3    H112556   7.914   1.775   3.242
 4205TIP3    H212557   7.879   1.632   3.277
 4206TIP3   OH212558   1.892   7.087   4.228
 4206TIP3    H112559   1.922   7.007   4.271
 4206TIP3    H212560   1.928   7.158   4.281
 4207TIP3   OH212561   5.621   5.353   4.650
 4207TIP3    H112562   5.617   5.445   4.624
 4207TIP3    H212563   5.703   5.321   4.614
 4208TIP3   OH212564   2.194   4.086   1.878
 4208TIP3    H112565   2.220   4.163   1.928
 4208TIP3    H212566   2.161   4.025   1.944
 4209TIP3   OH212567   0.053   3.548   6.845
 4209TIP3    H112568   0.098   3.465   6.829
 4209TIP3    H212569   0.104   3.590   6.915
 4210TIP3   OH212570   7.868   5.289   6.091
 4210TIP3    H112571   7.810   5.227   6.135
 4210TIP3    H212572   7.844   5.374   6.128
 4211TIP3   OH212573   3.731   0.108   5.087
 4211TIP3    H112574   3.688   0.181   5.132
 4211TIP3    H212575   3.805   0.085   5.143
 4212TIP3   OH212576   3.726   4.856   2.177
 4212TIP3    H112577   3.771   4.784   2.133
 4212TIP3    H212578   3.747   4.845   2.269
 4213TIP3   OH212579   1.543   1.409   4.597
 4213TIP3    H112580   1.518   1.322   4.627
 4213TIP3    H212581   1.630   1.397   4.559
 4214TIP3   OH212582   0.890   1.994   4.390
 4214TIP3    H112583   0.829   1.939   4.438
 4214TIP3    H212584   0.975   1.953   4.403
 4215TIP3   OH212585   5.757   3.176   0.840
 4215TIP3    H112586   5.741   3.270   0.836
 4215TIP3    H212587   5.808   3.164   0.920
 4216TIP3   OH212588   1.262   2.403   1.682
 4216TIP3    H112589   1.313   2.344   1.737
 4216TIP3    H212590   1.230   2.471   1.741
 4217TIP3   OH212591   4.303   5.429   0.580
 4217TIP3    H112592   4.363   5.498   0.610
 4217TIP3    H212593   4.306   5.435   0.484
 4218TIP3   OH212594   3.424   6.283   4.485
 4218TIP3    H112595   3.370   6.360   4.468
 4218TIP3    H212596   3.416   6.230   4.406
 4219TIP3   OH212597   0.949   2.300   4.382
 4219TIP3    H112598   0.875   2.297   4.322
 4219TIP3    H212599   0.975   2.209   4.394
 4220TIP3   OH212600   5.700   6.472   6.337
 4220TIP3    H112601   5.758   6.433   6.402
 4220TIP3    H212602   5.663   6.548   6.382
 4221TIP3   OH212603   4.149   0.408   6.786
 4221TIP3    H112604   4.202   0.366   6.854
 4221TIP3    H212605   4.208   0.415   6.711
 4222TIP3   OH212606   2.991   1.884   5.825
 4222TIP3    H112607   3.057   1.820   5.851
 4222TIP3    H212608   2.945   1.906   5.906
 4223TIP3   OH212609   7.903   2.806   0.428
 4223TIP3    H112610   7.899   2.864   0.352
 4223TIP3    H212611   7.854   2.728   0.402
 4224TIP3   OH212612   4.876   0.409   0.792
 4224TIP3    H112613   4.891   0.369   0.706
 4224TIP3    H212614   4.941   0.479   0.797
 4225TIP3   OH212615   3.704   4.168   6.340
 4225TIP3    H112616   3.689   4.258   6.367
 4225TIP3    H212617   3.679   4.116   6.416
 4226TIP3   OH212618   6.031   6.686   1.367
 4226TIP3    H112619   6.067   6.754   1.425
 4226TIP3    H212620   6.096   6.617   1.368
 4227TIP3   OH212621   4.074   6.208   2.002
 4227TIP3    H112622   3.979   6.213   2.013
 4227TIP3    H212623   4.096   6.285   1.951
 4228TIP3   OH212624   4.932   4.237   6.636
 4228TIP3    H112625   4.935   4.302   6.566
 4228TIP3    H212626   4.921   4.154   6.590
 4229TIP3   OH212627   7.344   1.489   2.643
 4229TIP3    H112628   7.338   1.584   2.651
 4229TIP3    H212629   7.254   1.461   2.623
 4230TIP3   OH212630   0.886   6.820   2.963
 4230TIP3    H112631   0.941   6.745   2.982
 4230TIP3    H212632   0.860   6.854   3.049
 4231TIP3   OH212633   3.184   5.584   3.984
 4231TIP3    H112634   3.191   5.591   4.080
 4231TIP3    H212635   3.171   5.491   3.968
 4232TIP3   OH212636   4.196   3.815   5.879
 4232TIP3    H112637   4.138   3.860   5.940
 4232TIP3    H212638   4.185   3.722   5.901
 4233TIP3   OH212639   7.432   4.527   2.667
 4233TIP3    H112640   7.398   4.612   2.697
 4233TIP3    H212641   7.414   4.467   2.739
 4234TIP3   OH212642   0.507   2.500   2.472
 4234TIP3    H112643   0.559   2.573   2.437
 4234TIP3    H212644   0.430   2.496   2.416
 4235TIP3   OH212645   7.902   5.316   2.340
 4235TIP3    H112646   7.863   5.349   2.258
 4235TIP3    H212647   7.837   5.336   2.407
 4236TIP3   OH212648   4.045   3.992   0.259
 4236TIP3    H112649   3.991   3.922   0.221
 4236TIP3    H212650   4.135   3.963   0.245
 4237TIP3   OH212651   0.337   3.728   1.668
 4237TIP3    H112652   0.356   3.635   1.680
 4237TIP3    H212653   0.265   3.730   1.605
 4238TIP3   OH212654   1.014   2.575   4.431
 4238TIP3    H112655   0.995   2.482   4.421
 4238TIP3    H212656   0.942   2.619   4.387
 4239TIP3   OH212657   0.365   7.748   5.823
 4239TIP3    H112658   0.429   7.817   5.808
 4239TIP3    H212659   0.280   7.791   5.811
 4240TIP3   OH212660   1.362   6.756   0.421
 4240TIP3    H112661   1.381   6.842   0.459
 4240TIP3    H212662   1.272   6.764   0.389
 4241TIP3   OH212663   5.520   6.197   4.792
 4241TIP3    H112664   5.584   6.251   4.744
 4241TIP3    H212665   5.455   6.260   4.822
 4242TIP3   OH212666   8.402   1.420   2.880
 4242TIP3    H112667   8.401   1.455   2.969
 4242TIP3    H212668   8.369   1.330   2.889
 4243TIP3   OH212669   1.407   1.391   5.418
 4243TIP3    H112670   1.401   1.363   5.509
 4243TIP3    H212671   1.501   1.405   5.403
 4244TIP3   OH212672   2.170   5.093   6.038
 4244TIP3    H112673   2.132   5.039   6.107
 4244TIP3    H212674   2.104   5.162   6.024
 4245TIP3   OH212675   7.713   1.995   4.355
 4245TIP3    H112676   7.722   2.073   4.410
 4245TIP3    H212677   7.762   2.015   4.275
 4246TIP3   OH212678   5.435   6.876   0.434
 4246TIP3    H112679   5.387   6.799   0.465
 4246TIP3    H212680   5.372   6.948   0.440
 4247TIP3   OH212681   5.918   4.186   4.337
 4247TIP3    H112682   5.923   4.210   4.429
 4247TIP3    H212683   5.825   4.169   4.321
 4248TIP3   OH212684   1.431   4.815   5.263
 4248TIP3    H112685   1.473   4.810   5.349
 4248TIP3    H212686   1.495   4.860   5.208
 4249TIP3   OH212687   1.699   2.262   1.565
 4249TIP3    H112688   1.633   2.276   1.633
 4249TIP3    H212689   1.654   2.212   1.497
 4250TIP3   OH212690   6.062   6.883   6.205
 4250TIP3    H112691   6.044   6.876   6.299
 4250TIP3    H212692   6.110   6.965   6.196
 4251TIP3   OH212693   5.301   0.539   6.832
 4251TIP3    H112694   5.357   0.477   6.877
 4251TIP3    H212695   5.344   0.624   6.845
 4252TIP3   OH212696   4.880   3.891   4.561
 4252TIP3    H112697   4.808   3.829   4.551
 4252TIP3    H212698   4.954   3.848   4.517
 4253TIP3   OH212699   2.599   5.634   3.321
 4253TIP3    H112700   2.609   5.540   3.336
 4253TIP3    H212701   2.520   5.657   3.370
 4254TIP3   OH212702   6.530   1.563   1.972
 4254TIP3    H112703   6.602   1.502   1.986
 4254TIP3    H212704   6.494   1.578   2.060
 4255TIP3   OH212705   1.424   7.039   0.497
 4255TIP3    H112706   1.348   7.062   0.444
 4255TIP3    H212707   1.499   7.049   0.438
 4256TIP3   OH212708   4.562   4.494   5.401
 4256TIP3    H112709   4.656   4.483   5.386
 4256TIP3    H212710   4.549   4.467   5.492
 4257TIP3   OH212711   5.268   3.668   0.391
 4257TIP3    H112712   5.350   3.633   0.355
 4257TIP3    H212713   5.209   3.593   0.390
 4258TIP3   OH212714   2.588   1.048   1.435
 4258TIP3    H112715   2.613   1.005   1.354
 4258TIP3    H212716   2.644   1.125   1.440
 4259TIP3   OH212717   5.925   4.907   0.475
 4259TIP3    H112718   5.838   4.900   0.515
 4259TIP3    H212719   5.964   4.984   0.516
 4260TIP3   OH212720   6.641   2.853   0.476
 4260TIP3    H112721   6.662   2.825   0.565
 4260TIP3    H212722   6.643   2.773   0.425
 4261TIP3   OH212723   7.462   7.723   1.856
 4261TIP3    H112724   7.546   7.682   1.836
 4261TIP3    H212725   7.397   7.662   1.821
 4262TIP3   OH212726   4.983   1.328   5.774
 4262TIP3    H112727   4.904   1.379   5.791
 4262TIP3    H212728   5.048   1.393   5.750
 4263TIP3   OH212729   3.573   7.617   2.784
 4263TIP3    H112730   3.486   7.621   2.825
 4263TIP3    H212731   3.564   7.670   2.704
 4264TIP3   OH212732   1.242   4.295   3.810
 4264TIP3    H112733   1.220   4.329   3.724
 4264TIP3    H212734   1.337   4.292   3.812
 4265TIP3   OH212735   7.532   2.567   1.033
 4265TIP3    H112736   7.547   2.499   0.967
 4265TIP3    H212737   7.513   2.519   1.113
 4266TIP3   OH212738   8.306   0.947   0.386
 4266TIP3    H112739   8.281   0.954   0.479
 4266TIP3    H212740   8.397   0.977   0.384
 4267TIP3   OH212741   6.690   3.585   5.424
 4267TIP3    H112742   6.694   3.493   5.452
 4267TIP3    H212743   6.778   3.618   5.441
 4268TIP3   OH212744   5.852   6.490  -0.029
 4268TIP3    H112745   5.941   6.468  -0.056
 4268TIP3    H212746   5.862   6.523   0.060
 4269TIP3   OH212747   6.786   6.384   1.882
 4269TIP3    H112748   6.755   6.295   1.866
 4269TIP3    H212749   6.857   6.396   1.819
 4270TIP3   OH212750   8.046   0.511   1.129
 4270TIP3    H112751   8.101   0.589   1.138
 4270TIP3    H212752   7.974   0.539   1.073
 4271TIP3   OH212753   3.262   2.027   5.914
 4271TIP3    H112754   3.189   2.013   5.974
 4271TIP3    H212755   3.338   1.989   5.959
 4272TIP3   OH212756   0.803   4.081   3.590
 4272TIP3    H112757   0.827   4.173   3.576
 4272TIP3    H212758   0.767   4.053   3.506
 4273TIP3   OH212759   8.121   7.387   4.528
 4273TIP3    H112760   8.091   7.478   4.527
 4273TIP3    H212761   8.167   7.376   4.445
 4274TIP3   OH212762   0.138   6.552   1.980
 4274TIP3    H112763   0.082   6.557   1.903
 4274TIP3    H212764   0.227   6.558   1.945
 4275TIP3   OH212765   4.646   2.547   1.242
 4275TIP3    H112766   4.690   2.466   1.268
 4275TIP3    H212767   4.635   2.539   1.147
 4276TIP3   OH212768   3.980   5.664   0.898
 4276TIP3    H112769   3.988   5.656   0.803
 4276TIP3    H212770   4.032   5.742   0.920
 4277TIP3   OH212771   3.917   3.858   5.757
 4277TIP3    H112772   3.942   3.948   5.778
 4277TIP3    H212773   3.995   3.820   5.716
 4278TIP3   OH212774   6.100   4.234   1.487
 4278TIP3    H112775   6.073   4.225   1.396
 4278TIP3    H212776   6.020   4.219   1.537
 4279TIP3   OH212777   0.483   5.359   3.768
 4279TIP3    H112778   0.401   5.398   3.798
 4279TIP3    H212779   0.458   5.298   3.699
 4280TIP3   OH212780   8.264   6.504   3.605
 4280TIP3    H112781   8.340   6.518   3.661
 4280TIP3    H212782   8.223   6.590   3.597
 4281TIP3   OH212783   7.772   0.225   0.621
 4281TIP3    H112784   7.865   0.248   0.630
 4281TIP3    H212785   7.751   0.182   0.704
 4282TIP3   OH212786   3.458   4.764   4.594
 4282TIP3    H112787   3.476   4.690   4.652
 4282TIP3    H212788   3.544   4.799   4.572
 4283TIP3   OH212789   4.807   6.281   3.078
 4283TIP3    H112790   4.772   6.199   3.114
 4283TIP3    H212791   4.892   6.291   3.121
 4284TIP3   OH212792   2.814   0.720   6.700
 4284TIP3    H112793   2.767   0.791   6.657
 4284TIP3    H212794   2.878   0.690   6.635
 4285TIP3   OH212795   4.503   7.494   6.250
 4285TIP3    H112796   4.443   7.569   6.248
 4285TIP3    H212797   4.575   7.522   6.306
 4286TIP3   OH212798   6.766   6.994   1.604
 4286TIP3    H112799   6.769   7.074   1.656
 4286TIP3    H212800   6.835   7.004   1.539
 4287TIP3   OH212801   6.219   0.873   5.697
 4287TIP3    H112802   6.252   0.870   5.607
 4287TIP3    H212803   6.272   0.941   5.739
 4288TIP3   OH212804   7.671   3.066   4.311
 4288TIP3    H112805   7.693   2.973   4.321
 4288TIP3    H212806   7.602   3.067   4.245
 4289TIP3   OH212807   4.430   1.857   3.793
 4289TIP3    H112808   4.475   1.774   3.809
 4289TIP3    H212809   4.500   1.918   3.771
 4290TIP3   OH212810   2.670   1.225   6.328
 4290TIP3    H112811   2.599   1.167   6.353
 4290TIP3    H212812   2.730   1.170   6.277
 4291TIP3   OH212813   7.580   1.140   1.260
 4291TIP3    H112814   7.546   1.064   1.212
 4291TIP3    H212815   7.509   1.164   1.319
 4292TIP3   OH212816   1.434   6.804   4.445
 4292TIP3    H112817   1.489   6.737   4.487
 4292TIP3    H212818   1.374   6.832   4.513
 4293TIP3   OH212819   6.407   4.915   0.345
 4293TIP3    H112820   6.501   4.920   0.327
 4293TIP3    H212821   6.402   4.885   0.436
 4294TIP3   OH212822   4.922   6.811   4.944
 4294TIP3    H112823   4.877   6.869   4.883
 4294TIP3    H212824   4.920   6.725   4.903
 4295TIP3   OH212825   7.799   0.571   1.801
 4295TIP3    H112826   7.735   0.534   1.862
 4295TIP3    H212827   7.810   0.662   1.830
 4296TIP3   OH212828   7.178   5.129   6.708
 4296TIP3    H112829   7.209   5.127   6.618
 4296TIP3    H212830   7.182   5.038   6.738
 4297TIP3   OH212831   4.546   2.669   4.957
 4297TIP3    H112832   4.483   2.599   4.977
 4297TIP3    H212833   4.599   2.677   5.036
 4298TIP3   OH212834   5.778   5.675   2.059
 4298TIP3    H112835   5.794   5.584   2.035
 4298TIP3    H212836   5.738   5.714   1.981
 4299TIP3   OH212837   3.234   2.670   3.744
 4299TIP3    H112838   3.193   2.753   3.769
 4299TIP3    H212839   3.308   2.661   3.804
 4300TIP3   OH212840   4.501   3.842   3.685
 4300TIP3    H112841   4.503   3.866   3.593
 4300TIP3    H212842   4.588   3.807   3.703
 4301TIP3   OH212843   1.823   1.379   0.755
 4301TIP3    H112844   1.910   1.341   0.755
 4301TIP3    H212845   1.815   1.421   0.669
 4302TIP3   OH212846   3.374   4.179   5.668
 4302TIP3    H112847   3.389   4.163   5.575
 4302TIP3    H212848   3.318   4.257   5.670
 4303TIP3   OH212849   0.712   2.072   1.879
 4303TIP3    H112850   0.670   2.047   1.962
 4303TIP3    H212851   0.681   2.160   1.862
 4304TIP3   OH212852   6.016   3.328   4.330
 4304TIP3    H112853   5.984   3.275   4.256
 4304TIP3    H212854   6.087   3.276   4.367
 4305TIP3   OH212855   8.047   0.940   1.100
 4305TIP3    H112856   8.015   1.031   1.103
 4305TIP3    H212857   7.996   0.898   1.031
 4306TIP3   OH212858   5.815   7.378   6.668
 4306TIP3    H112859   5.760   7.446   6.629
 4306TIP3    H212860   5.760   7.339   6.735
 4307TIP3   OH212861   3.304   2.116   1.688
 4307TIP3    H112862   3.304   2.121   1.593
 4307TIP3    H212863   3.394   2.090   1.711
 4308TIP3   OH212864   0.709   0.668   1.936
 4308TIP3    H112865   0.629   0.703   1.897
 4308TIP3    H212866   0.697   0.682   2.030
 4309TIP3   OH212867   2.861   5.274   2.497
 4309TIP3    H112868   2.826   5.241   2.414
 4309TIP3    H212869   2.956   5.272   2.484
 4310TIP3   OH212870   7.725   5.871   3.330
 4310TIP3    H112871   7.726   5.884   3.425
 4310TIP3    H212872   7.787   5.800   3.315
 4311TIP3   OH212873   8.373   1.954   1.130
 4311TIP3    H112874   8.292   1.942   1.082
 4311TIP3    H212875   8.375   1.883   1.194
 4312TIP3   OH212876   7.007   5.233   6.466
 4312TIP3    H112877   6.972   5.322   6.463
 4312TIP3    H212878   7.009   5.205   6.375
 4313TIP3   OH212879   5.730   4.317   2.059
 4313TIP3    H112880   5.648   4.337   2.103
 4313TIP3    H212881   5.761   4.236   2.099
 4314TIP3   OH212882   5.298   3.200   0.090
 4314TIP3    H112883   5.241   3.128   0.062
 4314TIP3    H212884   5.242   3.255   0.145
 4315TIP3   OH212885   6.592   3.810   1.504
 4315TIP3    H112886   6.523   3.855   1.454
 4315TIP3    H212887   6.546   3.739   1.550
 4316TIP3   OH212888   2.527   2.077   0.447
 4316TIP3    H112889   2.549   2.040   0.361
 4316TIP3    H212890   2.448   2.029   0.473
 4317TIP3   OH212891   0.183   7.783   4.225
 4317TIP3    H112892   0.212   7.714   4.165
 4317TIP3    H212893   0.119   7.833   4.176
 4318TIP3   OH212894   2.294   5.162   6.792
 4318TIP3    H112895   2.378   5.208   6.787
 4318TIP3    H212896   2.313   5.075   6.755
 4319TIP3   OH212897   4.607   6.230   0.630
 4319TIP3    H112898   4.657   6.237   0.549
 4319TIP3    H212899   4.562   6.146   0.623
 4320TIP3   OH212900   0.656   2.263   2.946
 4320TIP3    H112901   0.669   2.336   2.886
 4320TIP3    H212902   0.676   2.185   2.894
 4321TIP3   OH212903   1.024   7.206   6.803
 4321TIP3    H112904   0.977   7.279   6.845
 4321TIP3    H212905   1.101   7.247   6.763
 4322TIP3   OH212906   5.796   1.140   5.963
 4322TIP3    H112907   5.820   1.048   5.978
 4322TIP3    H212908   5.743   1.164   6.039
 4323TIP3   OH212909   2.130   0.908   5.527
 4323TIP3    H112910   2.036   0.918   5.516
 4323TIP3    H212911   2.154   0.837   5.467
 4324TIP3   OH212912   3.521   4.296   3.449
 4324TIP3    H112913   3.595   4.248   3.487
 4324TIP3    H212914   3.555   4.333   3.368
 4325TIP3   OH212915   4.096   2.844   2.430
 4325TIP3    H112916   4.166   2.820   2.369
 4325TIP3    H212917   4.139   2.852   2.515
 4326TIP3   OH212918   3.393   3.610   3.127
 4326TIP3    H112919   3.359   3.563   3.203
 4326TIP3    H212920   3.393   3.545   3.057
 4327TIP3   OH212921   5.037   0.653   2.669
 4327TIP3    H112922   5.057   0.745   2.684
 4327TIP3    H212923   5.028   0.645   2.575
 4328TIP3   OH212924   8.056   7.211   0.509
 4328TIP3    H112925   8.134   7.245   0.464
 4328TIP3    H212926   8.014   7.289   0.546
 4329TIP3   OH212927   0.551   6.726   0.331
 4329TIP3    H112928   0.467   6.680   0.321
 4329TIP3    H212929   0.573   6.756   0.243
 4330TIP3   OH212930   4.059   3.902   1.571
 4330TIP3    H112931   4.058   3.945   1.485
 4330TIP3    H212932   4.008   3.822   1.558
 4331TIP3   OH212933   0.482   5.061   4.309
 4331TIP3    H112934   0.400   5.110   4.306
 4331TIP3    H212935   0.551   5.128   4.312
 4332TIP3   OH212936   7.723   2.190   6.117
 4332TIP3    H112937   7.807   2.235   6.121
 4332TIP3    H212938   7.717   2.155   6.029
 4333TIP3   OH212939   7.635   0.843   1.065
 4333TIP3    H112940   7.558   0.899   1.075
 4333TIP3    H212941   7.650   0.805   1.151
 4334TIP3   OH212942   1.801   3.452   4.755
 4334TIP3    H112943   1.784   3.365   4.791
 4334TIP3    H212944   1.872   3.487   4.810
 4335TIP3   OH212945   3.096   0.910   6.090
 4335TIP3    H112946   3.050   0.851   6.031
 4335TIP3    H212947   3.136   0.853   6.155
 4336TIP3   OH212948   8.048   1.453   4.725
 4336TIP3    H112949   8.067   1.448   4.631
 4336TIP3    H212950   7.955   1.432   4.732
 4337TIP3   OH212951   3.195   7.183   2.086
 4337TIP3    H112952   3.219   7.100   2.128
 4337TIP3    H212953   3.272   7.238   2.096
 4338TIP3   OH212954   5.969   0.289   5.223
 4338TIP3    H112955   5.903   0.263   5.159
 4338TIP3    H212956   5.940   0.248   5.304
 4339TIP3   OH212957   6.139   0.590   1.947
 4339TIP3    H112958   6.088   0.528   1.998
 4339TIP3    H212959   6.230   0.560   1.956
 4340TIP3   OH212960   1.620   0.015   5.723
 4340TIP3    H112961   1.693   0.070   5.750
 4340TIP3    H212962   1.602   0.041   5.633
 4341TIP3   OH212963   2.621   7.399   5.522
 4341TIP3    H112964   2.705   7.416   5.565
 4341TIP3    H212965   2.579   7.485   5.516
 4342TIP3   OH212966   2.020   3.117   2.762
 4342TIP3    H112967   1.958   3.106   2.689
 4342TIP3    H212968   2.059   3.031   2.774
 4343TIP3   OH212969   6.557   1.462   0.986
 4343TIP3    H112970   6.578   1.554   1.002
 4343TIP3    H212971   6.541   1.426   1.073
 4344TIP3   OH212972   3.719   6.600   2.748
 4344TIP3    H112973   3.781   6.615   2.820
 4344TIP3    H212974   3.760   6.531   2.695
 4345TIP3   OH212975   5.668   5.759   1.334
 4345TIP3    H112976   5.713   5.812   1.269
 4345TIP3    H212977   5.679   5.807   1.416
 4346TIP3   OH212978   6.422   0.697   4.108
 4346TIP3    H112979   6.425   0.791   4.128
 4346TIP3    H212980   6.372   0.659   4.180
 4347TIP3   OH212981   3.230   2.191   0.201
 4347TIP3    H112982   3.167   2.232   0.260
 4347TIP3    H212983   3.249   2.106   0.242
 4348TIP3   OH212984   6.305   6.816   0.003
 4348TIP3    H112985   6.279   6.907   0.019
 4348TIP3    H212986   6.222   6.770  -0.011
 4349TIP3   OH212987   0.233   0.498   4.104
 4349TIP3    H112988   0.286   0.576   4.117
 4349TIP3    H212989   0.231   0.485   4.009
 4350TIP3   OH212990   4.649   4.278   4.484
 4350TIP3    H112991   4.741   4.286   4.507
 4350TIP3    H212992   4.642   4.194   4.439
 4351TIP3   OH212993   2.273   5.144   1.611
 4351TIP3    H112994   2.259   5.098   1.694
 4351TIP3    H212995   2.309   5.229   1.637
 4352TIP3   OH212996   2.054   2.380   2.509
 4352TIP3    H112997   2.013   2.302   2.473
 4352TIP3    H212998   1.988   2.418   2.567
 4353TIP3   OH212999   6.940   7.354   3.824
 4353TIP3    H113000   6.980   7.285   3.878
 4353TIP3    H213001   6.870   7.309   3.777
 4354TIP3   OH213002   4.755   6.658   5.411
 4354TIP3    H113003   4.759   6.714   5.488
 4354TIP3    H213004   4.779   6.716   5.338
 4355TIP3   OH213005   1.459   0.693   2.299
 4355TIP3    H113006   1.396   0.639   2.347
 4355TIP3    H213007   1.513   0.733   2.367
 4356TIP3   OH213008   1.773   6.406   1.302
 4356TIP3    H113009   1.779   6.421   1.396
 4356TIP3    H213010   1.691   6.447   1.276
 4357TIP3   OH213011   0.000   1.056   1.908
 4357TIP3    H113012   0.071   0.999   1.880
 4357TIP3    H213013   0.040   1.113   1.974
 4358TIP3   OH213014   2.598   3.395   2.135
 4358TIP3    H113015   2.618   3.301   2.130
 4358TIP3    H213016   2.503   3.400   2.133
 4359TIP3   OH213017   4.280   7.270   3.803
 4359TIP3    H113018   4.301   7.282   3.896
 4359TIP3    H213019   4.256   7.358   3.773
 4360TIP3   OH213020   5.118   5.485   5.643
 4360TIP3    H113021   5.204   5.498   5.682
 4360TIP3    H213022   5.093   5.396   5.670
 4361TIP3   OH213023   7.478   0.132   5.952
 4361TIP3    H113024   7.413   0.157   6.018
 4361TIP3    H213025   7.547   0.198   5.960
 4362TIP3   OH213026   5.422   1.562   3.983
 4362TIP3    H113027   5.510   1.525   3.981
 4362TIP3    H213028   5.423   1.629   3.915
 4363TIP3   OH213029   1.475   2.512   3.793
 4363TIP3    H113030   1.550   2.453   3.788
 4363TIP3    H213031   1.418   2.484   3.722
 4364TIP3   OH213032   4.090   2.469   3.234
 4364TIP3    H113033   4.078   2.404   3.165
 4364TIP3    H213034   4.010   2.522   3.231
 4365TIP3   OH213035   5.921   0.600   6.679
 4365TIP3    H113036   6.009   0.601   6.717
 4365TIP3    H213037   5.863   0.591   6.755
 4366TIP3   OH213038   5.484   4.499   4.866
 4366TIP3    H113039   5.468   4.512   4.773
 4366TIP3    H213040   5.475   4.586   4.905
 4367TIP3   OH213041   1.951   6.499   2.309
 4367TIP3    H113042   1.860   6.470   2.311
 4367TIP3    H213043   1.955   6.559   2.234
 4368TIP3   OH213044   5.880   0.630   2.475
 4368TIP3    H113045   5.879   0.677   2.558
 4368TIP3    H213046   5.883   0.537   2.500
 4369TIP3   OH213047   7.479   4.211   5.629
 4369TIP3    H113048   7.539   4.269   5.676
 4369TIP3    H213049   7.536   4.151   5.582
 4370TIP3   OH213050   8.188   1.169   6.554
 4370TIP3    H113051   8.228   1.180   6.641
 4370TIP3    H213052   8.179   1.075   6.543
 4371TIP3   OH213053   5.888   1.913   1.821
 4371TIP3    H113054   5.966   1.861   1.800
 4371TIP3    H213055   5.838   1.858   1.881
 4372TIP3   OH213056   3.141   2.305   0.433
 4372TIP3    H113057   3.051   2.315   0.465
 4372TIP3    H213058   3.191   2.281   0.511
 4373TIP3   OH213059   1.430   1.750   1.214
 4373TIP3    H113060   1.388   1.830   1.244
 4373TIP3    H213061   1.440   1.761   1.120
 4374TIP3   OH213062   5.861   4.587   0.994
 4374TIP3    H113063   5.776   4.546   0.980
 4374TIP3    H213064   5.856   4.669   0.945
 4375TIP3   OH213065   8.367   2.773   6.321
 4375TIP3    H113066   8.337   2.844   6.377
 4375TIP3    H213067   8.287   2.731   6.290
 4376TIP3   OH213068   2.782   1.852   4.807
 4376TIP3    H113069   2.805   1.872   4.898
 4376TIP3    H213070   2.859   1.808   4.772
 4377TIP3   OH213071   1.304   5.175   1.504
 4377TIP3    H113072   1.220   5.141   1.474
 4377TIP3    H213073   1.283   5.258   1.546
 4378TIP3   OH213074   2.549   5.579   5.387
 4378TIP3    H113075   2.535   5.484   5.391
 4378TIP3    H213076   2.482   5.610   5.326
 4379TIP3   OH213077   2.205   3.965   6.394
 4379TIP3    H113078   2.219   3.916   6.313
 4379TIP3    H213079   2.183   3.898   6.458
 4380TIP3   OH213080   4.770   6.552   3.029
 4380TIP3    H113081   4.760   6.457   3.026
 4380TIP3    H213082   4.850   6.570   2.979
 4381TIP3   OH213083   3.818   4.086   4.706
 4381TIP3    H113084   3.789   4.009   4.755
 4381TIP3    H213085   3.881   4.129   4.765
 4382TIP3   OH213086   4.347   2.101   2.837
 4382TIP3    H113087   4.377   2.184   2.874
 4382TIP3    H213088   4.321   2.122   2.747
 4383TIP3   OH213089   2.584   2.155   2.457
 4383TIP3    H113090   2.572   2.250   2.461
 4383TIP3    H213091   2.545   2.123   2.538
 4384TIP3   OH213092   5.017   1.952   4.708
 4384TIP3    H113093   4.954   1.879   4.701
 4384TIP3    H213094   5.090   1.925   4.653
 4385TIP3   OH213095   6.998   6.107   4.842
 4385TIP3    H113096   6.922   6.143   4.795
 4385TIP3    H213097   6.976   6.120   4.934
 4386TIP3   OH213098   4.329   3.204   4.850
 4386TIP3    H113099   4.264   3.174   4.786
 4386TIP3    H213100   4.405   3.228   4.797
 4387TIP3   OH213101   1.155   2.319   0.994
 4387TIP3    H113102   1.121   2.277   1.073
 4387TIP3    H213103   1.227   2.374   1.025
 4388TIP3   OH213104   3.383   0.688   1.800
 4388TIP3    H113105   3.377   0.721   1.710
 4388TIP3    H213106   3.395   0.593   1.789
 4389TIP3   OH213107   5.469   4.779   6.696
 4389TIP3    H113108   5.458   4.684   6.703
 4389TIP3    H213109   5.429   4.802   6.613
 4390TIP3   OH213110   7.205   6.038   5.907
 4390TIP3    H113111   7.198   5.949   5.873
 4390TIP3    H213112   7.181   6.094   5.834
 4391TIP3   OH213113   1.364   2.859   6.186
 4391TIP3    H113114   1.402   2.774   6.211
 4391TIP3    H213115   1.327   2.843   6.099
 4392TIP3   OH213116   0.601   1.734   2.395
 4392TIP3    H113117   0.618   1.732   2.300
 4392TIP3    H213118   0.661   1.669   2.431
 4393TIP3   OH213119   5.109   5.746   0.387
 4393TIP3    H113120   5.014   5.731   0.386
 4393TIP3    H213121   5.147   5.659   0.388
 4394TIP3   OH213122   8.130   3.998  -0.024
 4394TIP3    H113123   8.212   3.974   0.020
 4394TIP3    H213124   8.145   4.086  -0.058
 4395TIP3   OH213125   0.273   5.117   6.833
 4395TIP3    H113126   0.185   5.121   6.796
 4395TIP3    H213127   0.276   5.189   6.896
 4396TIP3   OH213128   5.939   0.067   3.636
 4396TIP3    H113129   5.906   0.003   3.700
 4396TIP3    H213130   5.885   0.144   3.649
 4397TIP3   OH213131   6.351   4.285   6.502
 4397TIP3    H113132   6.271   4.320   6.463
 4397TIP3    H213133   6.328   4.269   6.593
 4398TIP3   OH213134   0.248   2.189   6.375
 4398TIP3    H113135   0.158   2.216   6.359
 4398TIP3    H213136   0.242   2.097   6.400
 4399TIP3   OH213137   2.756   0.895   0.856
 4399TIP3    H113138   2.686   0.955   0.829
 4399TIP3    H213139   2.817   0.950   0.905
 4400TIP3   OH213140   4.838   7.723   4.706
 4400TIP3    H113141   4.843   7.700   4.613
 4400TIP3    H213142   4.744   7.733   4.722
 4401TIP3   OH213143   3.528   4.716   1.973
 4401TIP3    H113144   3.571   4.754   2.050
 4401TIP3    H213145   3.595   4.719   1.904
 4402TIP3   OH213146   3.627   5.194   0.936
 4402TIP3    H113147   3.660   5.280   0.911
 4402TIP3    H213148   3.638   5.192   1.031
 4403TIP3   OH213149   2.619   7.795   4.632
 4403TIP3    H113150   2.683   7.841   4.688
 4403TIP3    H213151   2.540   7.849   4.637
 4404TIP3   OH213152   6.403   3.061   4.089
 4404TIP3    H113153   6.335   3.001   4.120
 4404TIP3    H213154   6.416   3.122   4.162
 4405TIP3   OH213155   5.875   3.052   2.321
 4405TIP3    H113156   5.889   3.003   2.402
 4405TIP3    H213157   5.961   3.052   2.278
 4406TIP3   OH213158   4.626   1.493   2.009
 4406TIP3    H113159   4.660   1.510   1.921
 4406TIP3    H213160   4.538   1.529   2.008
 4407TIP3   OH213161   8.180   5.639   3.627
 4407TIP3    H113162   8.096   5.604   3.656
 4407TIP3    H213163   8.160   5.727   3.594
 4408TIP3   OH213164   7.669   0.974   4.604
 4408TIP3    H113165   7.742   1.037   4.606
 4408TIP3    H213166   7.642   0.972   4.512
 4409TIP3   OH213167   0.041   3.507   1.818
 4409TIP3    H113168  -0.052   3.486   1.809
 4409TIP3    H213169   0.080   3.477   1.736
 4410TIP3   OH213170   7.729   3.960   4.310
 4410TIP3    H113171   7.642   3.955   4.271
 4410TIP3    H213172   7.765   4.043   4.280
 4411TIP3   OH213173   2.626   5.671   0.317
 4411TIP3    H113174   2.609   5.683   0.223
 4411TIP3    H213175   2.703   5.725   0.334
 4412TIP3   OH213176   1.399   5.066   3.765
 4412TIP3    H113177   1.310   5.098   3.770
 4412TIP3    H213178   1.407   5.028   3.678
 4413TIP3   OH213179   6.140   7.435   0.968
 4413TIP3    H113180   6.154   7.512   1.023
 4413TIP3    H213181   6.099   7.371   1.025
 4414TIP3   OH213182   4.651   6.343   4.913
 4414TIP3    H113183   4.704   6.353   4.834
 4414TIP3    H213184   4.713   6.351   4.985
 4415TIP3   OH213185   1.085   1.812   3.542
 4415TIP3    H113186   1.171   1.844   3.567
 4415TIP3    H213187   1.087   1.812   3.446
 4416TIP3   OH213188   7.676   5.479   3.166
 4416TIP3    H113189   7.761   5.477   3.210
 4416TIP3    H213190   7.650   5.571   3.170
 4417TIP3   OH213191   2.789   7.023   3.520
 4417TIP3    H113192   2.799   7.091   3.586
 4417TIP3    H213193   2.800   6.941   3.568
 4418TIP3   OH213194   0.288   0.093   6.179
 4418TIP3    H113195   0.213   0.097   6.238
 4418TIP3    H213196   0.344   0.166   6.207
 4419TIP3   OH213197   6.941   7.816   0.444
 4419TIP3    H113198   7.022   7.823   0.496
 4419TIP3    H213199   6.935   7.723   0.423
 4420TIP3   OH213200   8.134   7.414   1.807
 4420TIP3    H113201   8.150   7.434   1.715
 4420TIP3    H213202   8.040   7.423   1.818
 4421TIP3   OH213203   2.921   0.352   6.582
 4421TIP3    H113204   2.847   0.330   6.525
 4421TIP3    H213205   2.882   0.364   6.669
 4422TIP3   OH213206   0.347   4.850   6.688
 4422TIP3    H113207   0.298   4.818   6.764
 4422TIP3    H213208   0.296   4.820   6.612
 4423TIP3   OH213209   5.550   2.608   3.575
 4423TIP3    H113210   5.611   2.630   3.504
 4423TIP3    H213211   5.575   2.518   3.600
 4424TIP3   OH213212   5.632   3.001   2.626
 4424TIP3    H113213   5.719   3.031   2.652
 4424TIP3    H213214   5.575   3.024   2.700
 4425TIP3   OH213215   6.721   5.268   2.115
 4425TIP3    H113216   6.629   5.268   2.088
 4425TIP3    H213217   6.723   5.327   2.190
 4426TIP3   OH213218   4.411   4.427   4.856
 4426TIP3    H113219   4.424   4.487   4.930
 4426TIP3    H213220   4.366   4.351   4.894
 4427TIP3   OH213221   7.977   0.556   0.332
 4427TIP3    H113222   7.966   0.607   0.252
 4427TIP3    H213223   7.889   0.549   0.368
 4428TIP3   OH213224   2.793   4.399   4.089
 4428TIP3    H113225   2.718   4.428   4.038
 4428TIP3    H213226   2.792   4.455   4.167
 4429TIP3   OH213227   4.651   0.254   1.721
 4429TIP3    H113228   4.714   0.322   1.747
 4429TIP3    H213229   4.705   0.180   1.694
 4430TIP3   OH213230   0.017   6.788   6.660
 4430TIP3    H113231  -0.059   6.737   6.633
 4430TIP3    H213232  -0.018   6.864   6.706
 4431TIP3   OH213233   6.172   0.354   3.370
 4431TIP3    H113234   6.116   0.378   3.444
 4431TIP3    H213235   6.227   0.284   3.405
 4432TIP3   OH213236   0.514   5.170   5.905
 4432TIP3    H113237   0.573   5.232   5.862
 4432TIP3    H213238   0.542   5.085   5.873
 4433TIP3   OH213239   1.119   6.841   2.032
 4433TIP3    H113240   1.107   6.911   1.968
 4433TIP3    H213241   1.034   6.796   2.033
 4434TIP3   OH213242   1.294   6.276   2.749
 4434TIP3    H113243   1.369   6.219   2.734
 4434TIP3    H213244   1.223   6.235   2.699
 4435TIP3   OH213245   5.661   7.922   0.371
 4435TIP3    H113246   5.655   7.938   0.277
 4435TIP3    H213247   5.572   7.899   0.398
 4436TIP3   OH213248   3.061   5.771   3.549
 4436TIP3    H113249   2.974   5.775   3.509
 4436TIP3    H213250   3.092   5.861   3.548
 4437TIP3   OH213251   3.146   0.566   4.498
 4437TIP3    H113252   3.212   0.634   4.490
 4437TIP3    H213253   3.129   0.560   4.593
 4438TIP3   OH213254   7.655   6.292   3.105
 4438TIP3    H113255   7.615   6.322   3.023
 4438TIP3    H213256   7.738   6.339   3.109
 4439TIP3   OH213257   2.877   1.576   4.447
 4439TIP3    H113258   2.956   1.544   4.404
 4439TIP3    H213259   2.842   1.642   4.388
 4440TIP3   OH213260   1.107   2.752   5.695
 4440TIP3    H113261   1.056   2.767   5.615
 4440TIP3    H213262   1.112   2.657   5.702
 4441TIP3   OH213263   5.887   0.733   5.667
 4441TIP3    H113264   5.820   0.737   5.598
 4441TIP3    H213265   5.879   0.817   5.713
 4442TIP3   OH213266   1.177   2.511   4.181
 4442TIP3    H113267   1.132   2.490   4.263
 4442TIP3    H213268   1.125   2.581   4.142
 4443TIP3   OH213269   1.624   7.749   4.576
 4443TIP3    H113270   1.638   7.843   4.578
 4443TIP3    H213271   1.681   7.715   4.646
 4444TIP3   OH213272   1.418   2.287   0.541
 4444TIP3    H113273   1.437   2.380   0.529
 4444TIP3    H213274   1.343   2.284   0.600
 4445TIP3   OH213275   3.480   5.513   4.497
 4445TIP3    H113276   3.414   5.545   4.559
 4445TIP3    H213277   3.430   5.481   4.422
 4446TIP3   OH213278   5.562   1.216   5.110
 4446TIP3    H113279   5.571   1.172   5.195
 4446TIP3    H213280   5.651   1.225   5.078
 4447TIP3   OH213281   4.083   7.337   4.283
 4447TIP3    H113282   4.051   7.403   4.345
 4447TIP3    H213283   4.156   7.296   4.329
 4448TIP3   OH213284   1.380   1.443   4.888
 4448TIP3    H113285   1.336   1.380   4.831
 4448TIP3    H213286   1.315   1.464   4.955
 4449TIP3   OH213287   4.818   5.374   1.175
 4449TIP3    H113288   4.864   5.303   1.130
 4449TIP3    H213289   4.874   5.450   1.165
 4450TIP3   OH213290   4.829   5.143   3.561
 4450TIP3    H113291   4.843   5.210   3.628
 4450TIP3    H213292   4.853   5.061   3.603
 4451TIP3   OH213293   4.937   6.619   3.272
 4451TIP3    H113294   4.851   6.612   3.313
 4451TIP3    H213295   4.920   6.620   3.178
 4452TIP3   OH213296   5.369   5.427   4.295
 4452TIP3    H113297   5.327   5.503   4.335
 4452TIP3    H213298   5.306   5.395   4.231
 4453TIP3   OH213299   6.444   4.508   0.150
 4453TIP3    H113300   6.376   4.481   0.088
 4453TIP3    H213301   6.482   4.426   0.181
 4454TIP3   OH213302   3.007   4.504   1.230
 4454TIP3    H113303   2.996   4.454   1.149
 4454TIP3    H213304   2.951   4.580   1.219
 4455TIP3   OH213305   3.751   1.737   1.031
 4455TIP3    H113306   3.705   1.653   1.035
 4455TIP3    H213307   3.844   1.713   1.026
 4456TIP3   OH213308   0.964   0.073   2.774
 4456TIP3    H113309   0.960   0.142   2.841
 4456TIP3    H213310   1.040   0.020   2.798
 4457TIP3   OH213311   7.736   6.985   0.423
 4457TIP3    H113312   7.822   6.949   0.399
 4457TIP3    H213313   7.750   7.023   0.510
 4458TIP3   OH213314   2.732   3.844   0.440
 4458TIP3    H113315   2.695   3.910   0.499
 4458TIP3    H213316   2.768   3.778   0.498
 4459TIP3   OH213317   5.893   0.524   4.896
 4459TIP3    H113318   5.805   0.499   4.926
 4459TIP3    H213319   5.878   0.589   4.828
 4460TIP3   OH213320   4.503   0.252   5.412
 4460TIP3    H113321   4.517   0.277   5.503
 4460TIP3    H213322   4.441   0.317   5.378
 4461TIP3   OH213323   3.314   5.652   2.912
 4461TIP3    H113324   3.289   5.697   2.993
 4461TIP3    H213325   3.256   5.576   2.908
 4462TIP3   OH213326   1.105   4.076   3.586
 4462TIP3    H113327   1.200   4.066   3.588
 4462TIP3    H213328   1.090   4.149   3.526
 4463TIP3   OH213329   0.429   7.699   0.248
 4463TIP3    H113330   0.496   7.639   0.279
 4463TIP3    H213331   0.473   7.753   0.181
 4464TIP3   OH213332   8.080   7.038   2.600
 4464TIP3    H113333   8.154   7.061   2.544
 4464TIP3    H213334   8.105   6.954   2.638
 4465TIP3   OH213335   7.310   5.489   2.391
 4465TIP3    H113336   7.302   5.399   2.360
 4465TIP3    H213337   7.220   5.520   2.400
 4466TIP3   OH213338   4.640   7.125   1.725
 4466TIP3    H113339   4.578   7.093   1.659
 4466TIP3    H213340   4.587   7.135   1.804
 4467TIP3   OH213341   4.111   3.104   1.684
 4467TIP3    H113342   4.125   3.154   1.764
 4467TIP3    H213343   4.037   3.046   1.705
 4468TIP3   OH213344   7.136   7.671   2.355
 4468TIP3    H113345   7.056   7.721   2.368
 4468TIP3    H213346   7.147   7.622   2.436
 4469TIP3   OH213347   4.024   7.559   4.438
 4469TIP3    H113348   4.021   7.650   4.409
 4469TIP3    H213349   4.034   7.565   4.533
 4470TIP3   OH213350   3.152   0.145   0.355
 4470TIP3    H113351   3.248   0.140   0.350
 4470TIP3    H213352   3.134   0.237   0.377
 4471TIP3   OH213353   7.192   6.148   3.626
 4471TIP3    H113354   7.191   6.244   3.629
 4471TIP3    H213355   7.281   6.126   3.599
 4472TIP3   OH213356   3.187   6.716   1.141
 4472TIP3    H113357   3.161   6.769   1.065
 4472TIP3    H213358   3.155   6.628   1.121
 4473TIP3   OH213359   0.377   7.896   2.148
 4473TIP3    H113360   0.453   7.875   2.203
 4473TIP3    H213361   0.302   7.861   2.196
 4474TIP3   OH213362   0.264   2.960   2.292
 4474TIP3    H113363   0.193   3.009   2.334
 4474TIP3    H213364   0.234   2.948   2.202
 4475TIP3   OH213365   0.207   1.068   4.467
 4475TIP3    H113366   0.273   1.124   4.425
 4475TIP3    H213367   0.172   1.121   4.538
 4476TIP3   OH213368   2.175   1.841   4.116
 4476TIP3    H113369   2.196   1.932   4.094
 4476TIP3    H213370   2.204   1.830   4.206
 4477TIP3   OH213371   7.173   0.001   0.650
 4477TIP3    H113372   7.193   0.019   0.742
 4477TIP3    H213373   7.080  -0.019   0.649
 4478TIP3   OH213374   2.940   2.468   0.836
 4478TIP3    H113375   2.958   2.375   0.825
 4478TIP3    H213376   2.851   2.479   0.802
 4479TIP3   OH213377   2.788   5.458   0.414
 4479TIP3    H113378   2.757   5.375   0.449
 4479TIP3    H213379   2.710   5.501   0.379
 4480TIP3   OH213380   2.307   0.312   1.145
 4480TIP3    H113381   2.257   0.314   1.227
 4480TIP3    H213382   2.394   0.343   1.170
 4481TIP3   OH213383   2.533   4.857   4.691
 4481TIP3    H113384   2.465   4.825   4.751
 4481TIP3    H213385   2.597   4.900   4.748
 4482TIP3   OH213386   7.685   6.548   4.277
 4482TIP3    H113387   7.691   6.508   4.364
 4482TIP3    H213388   7.774   6.579   4.258
 4483TIP3   OH213389   5.356   4.633   3.635
 4483TIP3    H113390   5.378   4.622   3.543
 4483TIP3    H213391   5.289   4.702   3.636
 4484TIP3   OH213392   2.509   2.008   4.207
 4484TIP3    H113393   2.432   2.055   4.237
 4484TIP3    H213394   2.555   1.982   4.287
 4485TIP3   OH213395   8.319   7.694   4.854
 4485TIP3    H113396   8.298   7.758   4.787
 4485TIP3    H213397   8.365   7.624   4.807
 4486TIP3   OH213398   4.499   6.004   1.507
 4486TIP3    H113399   4.556   6.058   1.561
 4486TIP3    H213400   4.447   6.066   1.457
 4487TIP3   OH213401   7.937   1.704   5.601
 4487TIP3    H113402   7.999   1.660   5.660
 4487TIP3    H213403   7.863   1.645   5.597
 4488TIP3   OH213404   7.835   0.354   3.581
 4488TIP3    H113405   7.790   0.338   3.664
 4488TIP3    H213406   7.914   0.403   3.605
 4489TIP3   OH213407   5.016   0.410   3.191
 4489TIP3    H113408   5.032   0.458   3.109
 4489TIP3    H213409   4.924   0.385   3.186
 4490TIP3   OH213410   4.546   5.011   3.672
 4490TIP3    H113411   4.450   5.009   3.670
 4490TIP3    H213412   4.569   4.971   3.756
 4491TIP3   OH213413   5.683   7.330   5.889
 4491TIP3    H113414   5.649   7.284   5.813
 4491TIP3    H213415   5.709   7.261   5.950
 4492TIP3   OH213416   7.288   3.971   5.469
 4492TIP3    H113417   7.342   3.946   5.544
 4492TIP3    H213418   7.249   3.888   5.440
 4493TIP3   OH213419   5.456   1.667   3.579
 4493TIP3    H113420   5.440   1.582   3.536
 4493TIP3    H213421   5.497   1.720   3.511
 4494TIP3   OH213422   4.806   4.735   6.629
 4494TIP3    H113423   4.770   4.668   6.688
 4494TIP3    H213424   4.743   4.807   6.634
 4495TIP3   OH213425   8.293   3.461   3.488
 4495TIP3    H113426   8.198   3.466   3.475
 4495TIP3    H213427   8.308   3.505   3.571
 4496TIP3   OH213428   4.493   1.719   6.393
 4496TIP3    H113429   4.455   1.801   6.362
 4496TIP3    H213430   4.588   1.731   6.383
 4497TIP3   OH213431   1.411   4.687   3.131
 4497TIP3    H113432   1.316   4.685   3.117
 4497TIP3    H213433   1.428   4.617   3.194
 4498TIP3   OH213434   2.915   1.906   5.334
 4498TIP3    H113435   2.874   1.989   5.356
 4498TIP3    H213436   3.007   1.917   5.357
 4499TIP3   OH213437   2.970   3.330   0.900
 4499TIP3    H113438   2.887   3.376   0.892
 4499TIP3    H213439   2.987   3.296   0.812
 4500TIP3   OH213440   6.204   4.094   2.402
 4500TIP3    H113441   6.299   4.109   2.403
 4500TIP3    H213442   6.194   4.002   2.380
 4501TIP3   OH213443   8.124   6.275   1.614
 4501TIP3    H113444   8.217   6.298   1.616
 4501TIP3    H213445   8.092   6.312   1.532
 4502TIP3   OH213446   0.873   4.125   6.786
 4502TIP3    H113447   0.874   4.103   6.879
 4502TIP3    H213448   0.903   4.046   6.742
 4503TIP3   OH213449   3.768   1.511   4.324
 4503TIP3    H113450   3.751   1.500   4.417
 4503TIP3    H213451   3.855   1.473   4.310
 4504TIP3   OH213452   5.443   5.017   5.566
 4504TIP3    H113453   5.436   4.996   5.659
 4504TIP3    H213454   5.533   4.996   5.543
 4505TIP3   OH213455   7.090   7.855   3.327
 4505TIP3    H113456   7.008   7.903   3.337
 4505TIP3    H213457   7.111   7.862   3.234
 4506TIP3   OH213458   8.246   5.628   5.299
 4506TIP3    H113459   8.194   5.708   5.296
 4506TIP3    H213460   8.337   5.657   5.292
 4507TIP3   OH213461   3.177   1.185   1.327
 4507TIP3    H113462   3.148   1.198   1.417
 4507TIP3    H213463   3.170   1.271   1.287
 4508TIP3   OH213464   4.774   2.460   2.345
 4508TIP3    H113465   4.694   2.471   2.294
 4508TIP3    H213466   4.833   2.529   2.313
 4509TIP3   OH213467   3.605   7.618   6.011
 4509TIP3    H113468   3.651   7.636   6.094
 4509TIP3    H213469   3.597   7.523   6.009
 4510TIP3   OH213470   7.752   5.988   1.253
 4510TIP3    H113471   7.725   6.071   1.214
 4510TIP3    H213472   7.752   5.926   1.179
 4511TIP3   OH213473   5.030   3.374   3.838
 4511TIP3    H113474   5.046   3.331   3.754
 4511TIP3    H213475   4.937   3.363   3.854
 4512TIP3   OH213476   0.914   1.548   2.973
 4512TIP3    H113477   0.926   1.453   2.976
 4512TIP3    H213478   0.891   1.573   3.063
 4513TIP3   OH213479   2.299   5.174   3.797
 4513TIP3    H113480   2.347   5.198   3.718
 4513TIP3    H213481   2.363   5.179   3.868
 4514TIP3   OH213482   3.525   7.771   3.364
 4514TIP3    H113483   3.500   7.679   3.365
 4514TIP3    H213484   3.444   7.818   3.386
 4515TIP3   OH213485   8.080   1.573   0.771
 4515TIP3    H113486   8.115   1.630   0.703
 4515TIP3    H213487   8.127   1.600   0.851
 4516TIP3   OH213488   1.780   6.613   0.976
 4516TIP3    H113489   1.792   6.688   0.918
 4516TIP3    H213490   1.854   6.618   1.037
 4517TIP3   OH213491   1.741   7.861   3.210
 4517TIP3    H113492   1.712   7.929   3.149
 4517TIP3    H213493   1.694   7.783   3.182
 4518TIP3   OH213494   3.361   6.883   4.180
 4518TIP3    H113495   3.386   6.794   4.204
 4518TIP3    H213496   3.437   6.937   4.205
 4519TIP3   OH213497   6.408   3.731   1.926
 4519TIP3    H113498   6.450   3.646   1.912
 4519TIP3    H213499   6.404   3.741   2.021
 4520TIP3   OH213500   4.187   5.314   4.080
 4520TIP3    H113501   4.268   5.343   4.122
 4520TIP3    H213502   4.119   5.370   4.117
 4521TIP3   OH213503   4.559   0.718   6.109
 4521TIP3    H113504   4.651   0.744   6.103
 4521TIP3    H213505   4.512   0.786   6.060
 4522TIP3   OH213506   6.573   7.647   5.508
 4522TIP3    H113507   6.488   7.661   5.550
 4522TIP3    H213508   6.561   7.569   5.455
 4523TIP3   OH213509   2.858   2.128   1.771
 4523TIP3    H113510   2.829   2.049   1.726
 4523TIP3    H213511   2.800   2.134   1.847
 4524TIP3   OH213512   6.264   0.554   4.286
 4524TIP3    H113513   6.229   0.526   4.371
 4524TIP3    H213514   6.257   0.477   4.230
 4525TIP3   OH213515   0.498   3.701   3.716
 4525TIP3    H113516   0.492   3.796   3.706
 4525TIP3    H213517   0.584   3.687   3.756
 4526TIP3   OH213518   5.062   3.762   0.552
 4526TIP3    H113519   5.144   3.741   0.506
 4526TIP3    H213520   5.000   3.783   0.482
 4527TIP3   OH213521   5.381   6.832   6.385
 4527TIP3    H113522   5.325   6.897   6.428
 4527TIP3    H213523   5.344   6.823   6.297
 4528TIP3   OH213524   3.083   5.622   6.222
 4528TIP3    H113525   3.040   5.555   6.274
 4528TIP3    H213526   3.072   5.703   6.272
 4529TIP3   OH213527   2.641   1.934   1.284
 4529TIP3    H113528   2.583   2.008   1.265
 4529TIP3    H213529   2.656   1.938   1.378
 4530TIP3   OH213530   6.047   2.480   4.241
 4530TIP3    H113531   6.108   2.551   4.258
 4530TIP3    H213532   6.070   2.413   4.306
 4531TIP3   OH213533   5.825   4.541   6.171
 4531TIP3    H113534   5.825   4.457   6.216
 4531TIP3    H213535   5.909   4.544   6.125
 4532TIP3   OH213536   2.195   4.711   1.637
 4532TIP3    H113537   2.141   4.686   1.711
 4532TIP3    H213538   2.272   4.752   1.676
 4533TIP3   OH213539   5.879   2.274   2.160
 4533TIP3    H113540   5.811   2.313   2.215
 4533TIP3    H213541   5.837   2.260   2.075
 4534TIP3   OH213542   3.264   1.551   1.707
 4534TIP3    H113543   3.254   1.515   1.619
 4534TIP3    H213544   3.358   1.569   1.715
 4535TIP3   OH213545   6.647   3.901   4.692
 4535TIP3    H113546   6.703   3.953   4.634
 4535TIP3    H213547   6.690   3.905   4.777
 4536TIP3   OH213548   4.204   5.682   1.445
 4536TIP3    H113549   4.257   5.719   1.516
 4536TIP3    H213550   4.250   5.602   1.420
 4537TIP3   OH213551   6.478   7.576   4.902
 4537TIP3    H113552   6.500   7.500   4.956
 4537TIP3    H213553   6.503   7.552   4.813
 4538TIP3   OH213554   2.673   5.006   3.149
 4538TIP3    H113555   2.609   4.948   3.106
 4538TIP3    H213556   2.638   5.094   3.135
 4539TIP3   OH213557   6.367   4.859   3.176
 4539TIP3    H113558   6.313   4.786   3.149
 4539TIP3    H213559   6.425   4.876   3.101
 4540TIP3   OH213560   6.926   2.370   6.139
 4540TIP3    H113561   6.949   2.312   6.066
 4540TIP3    H213562   6.840   2.340   6.168
 4541TIP3   OH213563   5.476   5.369   3.986
 4541TIP3    H113564   5.427   5.444   4.020
 4541TIP3    H213565   5.463   5.373   3.891
 4542TIP3   OH213566   1.029   5.644   0.914
 4542TIP3    H113567   0.998   5.722   0.960
 4542TIP3    H213568   0.964   5.577   0.935
 4543TIP3   OH213569   2.163   7.868   1.403
 4543TIP3    H113570   2.225   7.817   1.350
 4543TIP3    H213571   2.106   7.802   1.443
 4544TIP3   OH213572   6.512   6.643   4.792
 4544TIP3    H113573   6.586   6.627   4.733
 4544TIP3    H213574   6.534   6.595   4.872
 4545TIP3   OH213575   6.434   1.600   5.131
 4545TIP3    H113576   6.348   1.564   5.110
 4545TIP3    H213577   6.487   1.581   5.053
 4546TIP3   OH213578   4.317   7.318   6.154
 4546TIP3    H113579   4.380   7.377   6.194
 4546TIP3    H213580   4.232   7.355   6.176
 4547TIP3   OH213581   8.093   2.642   3.560
 4547TIP3    H113582   8.029   2.630   3.490
 4547TIP3    H213583   8.046   2.616   3.639
 4548TIP3   OH213584   5.492   1.826   6.800
 4548TIP3    H113585   5.510   1.848   6.891
 4548TIP3    H213586   5.467   1.733   6.802
 4549TIP3   OH213587   3.015   4.842   2.117
 4549TIP3    H113588   3.031   4.775   2.183
 4549TIP3    H213589   3.002   4.923   2.167
 4550TIP3   OH213590   2.059   7.622   3.340
 4550TIP3    H113591   2.153   7.604   3.345
 4550TIP3    H213592   2.020   7.537   3.321
 4551TIP3   OH213593   7.730   1.509   1.400
 4551TIP3    H113594   7.776   1.460   1.332
 4551TIP3    H213595   7.796   1.525   1.467
 4552TIP3   OH213596   7.668   7.664   1.389
 4552TIP3    H113597   7.751   7.708   1.369
 4552TIP3    H213598   7.601   7.728   1.367
 4553TIP3   OH213599   0.412   2.556   2.867
 4553TIP3    H113600   0.335   2.612   2.854
 4553TIP3    H213601   0.394   2.478   2.814
 4554TIP3   OH213602   7.182   1.861   5.951
 4554TIP3    H113603   7.266   1.877   5.908
 4554TIP3    H213604   7.144   1.948   5.964
 4555TIP3   OH213605   3.437   5.429   5.854
 4555TIP3    H113606   3.443   5.344   5.897
 4555TIP3    H213607   3.400   5.487   5.921
 4556TIP3   OH213608   5.722   7.074   4.707
 4556TIP3    H113609   5.637   7.096   4.669
 4556TIP3    H213610   5.703   7.059   4.800
 4557TIP3   OH213611   7.963   5.217   3.538
 4557TIP3    H113612   7.890   5.180   3.587
 4557TIP3    H213613   8.035   5.223   3.601
 4558TIP3   OH213614   2.839   0.575   1.044
 4558TIP3    H113615   2.763   0.631   1.059
 4558TIP3    H213616   2.805   0.503   0.990
 4559TIP3   OH213617   4.249   0.705   0.047
 4559TIP3    H113618   4.193   0.650  -0.008
 4559TIP3    H213619   4.234   0.672   0.136
 4560TIP3   OH213620   4.668   7.045   5.701
 4560TIP3    H113621   4.721   7.098   5.760
 4560TIP3    H213622   4.661   7.098   5.622
 4561TIP3   OH213623   5.195   5.760   6.184
 4561TIP3    H113624   5.200   5.775   6.278
 4561TIP3    H213625   5.220   5.844   6.145
 4562TIP3   OH213626   5.981   7.207   4.355
 4562TIP3    H113627   5.899   7.250   4.378
 4562TIP3    H213628   6.037   7.219   4.431
 4563TIP3   OH213629   0.910   2.124   3.517
 4563TIP3    H113630   0.911   2.201   3.574
 4563TIP3    H213631   0.994   2.127   3.472
 4564TIP3   OH213632   2.402   4.741   3.786
 4564TIP3    H113633   2.377   4.812   3.727
 4564TIP3    H213634   2.384   4.775   3.873
 4565TIP3   OH213635   4.660   4.072   5.369
 4565TIP3    H113636   4.643   4.033   5.454
 4565TIP3    H213637   4.753   4.056   5.353
 4566TIP3   OH213638   0.459   7.566   0.706
 4566TIP3    H113639   0.514   7.630   0.750
 4566TIP3    H213640   0.371   7.602   0.711
 4567TIP3   OH213641   8.011   1.078   1.752
 4567TIP3    H113642   8.031   1.142   1.685
 4567TIP3    H213643   8.009   1.128   1.834
 4568TIP3   OH213644   7.979   7.671   1.330
 4568TIP3    H113645   8.045   7.601   1.323
 4568TIP3    H213646   7.989   7.703   1.420
 4569TIP3   OH213647   5.520   3.555   4.058
 4569TIP3    H113648   5.607   3.537   4.092
 4569TIP3    H213649   5.535   3.602   3.976
 4570TIP3   OH213650   0.032   3.589   6.555
 4570TIP3    H113651   0.083   3.670   6.549
 4570TIP3    H213652   0.010   3.581   6.648
 4571TIP3   OH213653   0.144   2.913   5.427
 4571TIP3    H113654   0.057   2.949   5.408
 4571TIP3    H213655   0.149   2.914   5.523
 4572TIP3   OH213656   7.170   7.452   2.563
 4572TIP3    H113657   7.076   7.439   2.578
 4572TIP3    H213658   7.193   7.389   2.495
 4573TIP3   OH213659   0.449   0.706   5.963
 4573TIP3    H113660   0.451   0.679   6.055
 4573TIP3    H213661   0.356   0.720   5.944
 4574TIP3   OH213662   5.146   3.347   6.328
 4574TIP3    H113663   5.061   3.346   6.283
 4574TIP3    H213664   5.206   3.385   6.264
 4575TIP3   OH213665   1.895   2.013   5.009
 4575TIP3    H113666   1.885   2.019   5.104
 4575TIP3    H213667   1.909   1.920   4.991
 4576TIP3   OH213668   4.547   1.576   3.876
 4576TIP3    H113669   4.590   1.538   3.953
 4576TIP3    H213670   4.453   1.567   3.895
 4577TIP3   OH213671   3.198   5.791   5.013
 4577TIP3    H113672   3.140   5.815   4.941
 4577TIP3    H213673   3.222   5.873   5.055
 4578TIP3   OH213674   3.693   1.567   3.240
 4578TIP3    H113675   3.741   1.623   3.179
 4578TIP3    H213676   3.643   1.508   3.183
 4579TIP3   OH213677   6.894   4.615   5.596
 4579TIP3    H113678   6.909   4.655   5.510
 4579TIP3    H213679   6.935   4.529   5.590
 4580TIP3   OH213680   8.363   7.231   5.192
 4580TIP3    H113681   8.379   7.202   5.281
 4580TIP3    H213682   8.272   7.206   5.175
 4581TIP3   OH213683   6.459   1.668   2.217
 4581TIP3    H113684   6.441   1.646   2.308
 4581TIP3    H213685   6.379   1.711   2.186
 4582TIP3   OH213686   6.404   3.150   3.500
 4582TIP3    H113687   6.372   3.196   3.422
 4582TIP3    H213688   6.453   3.217   3.548
 4583TIP3   OH213689   1.136   0.705   1.426
 4583TIP3    H113690   1.145   0.790   1.383
 4583TIP3    H213691   1.134   0.725   1.519
 4584TIP3   OH213692   0.394   1.710  -0.030
 4584TIP3    H113693   0.482   1.731  -0.060
 4584TIP3    H213694   0.394   1.732   0.063
 4585TIP3   OH213695   0.061   3.424   1.363
 4585TIP3    H113696   0.136   3.388   1.317
 4585TIP3    H213697  -0.010   3.421   1.298
 4586TIP3   OH213698   1.894   5.411   3.334
 4586TIP3    H113699   1.835   5.437   3.405
 4586TIP3    H213700   1.911   5.492   3.286
 4587TIP3   OH213701   5.427   3.452   0.587
 4587TIP3    H113702   5.504   3.491   0.628
 4587TIP3    H213703   5.456   3.364   0.562
 4588TIP3   OH213704   6.323   6.727   6.475
 4588TIP3    H113705   6.243   6.772   6.503
 4588TIP3    H213706   6.304   6.634   6.483
 4589TIP3   OH213707   2.687   5.102   6.285
 4589TIP3    H113708   2.734   5.024   6.256
 4589TIP3    H213709   2.709   5.169   6.221
 4590TIP3   OH213710   1.007   2.150   5.641
 4590TIP3    H113711   0.982   2.231   5.687
 4590TIP3    H213712   0.946   2.145   5.567
 4591TIP3   OH213713   5.390   3.215   3.578
 4591TIP3    H113714   5.370   3.251   3.665
 4591TIP3    H213715   5.328   3.257   3.519
 4592TIP3   OH213716   6.869   3.488   3.994
 4592TIP3    H113717   6.845   3.580   3.985
 4592TIP3    H213718   6.813   3.442   3.931
 4593TIP3   OH213719   2.287   2.968   1.244
 4593TIP3    H113720   2.257   3.015   1.166
 4593TIP3    H213721   2.285   2.876   1.220
 4594TIP3   OH213722   1.743   0.370   5.442
 4594TIP3    H113723   1.773   0.416   5.521
 4594TIP3    H213724   1.822   0.357   5.390
 4595TIP3   OH213725   3.661   5.630   1.681
 4595TIP3    H113726   3.699   5.543   1.695
 4595TIP3    H213727   3.584   5.614   1.626
 4596TIP3   OH213728   1.231   7.294   3.560
 4596TIP3    H113729   1.263   7.280   3.471
 4596TIP3    H213730   1.266   7.379   3.586
 4597TIP3   OH213731   7.630   6.975   5.304
 4597TIP3    H113732   7.599   6.913   5.238
 4597TIP3    H213733   7.688   7.034   5.256
 4598TIP3   OH213734   8.160   6.661   2.500
 4598TIP3    H113735   8.210   6.726   2.450
 4598TIP3    H213736   8.153   6.699   2.588
 4599TIP3   OH213737   6.004   0.688   4.300
 4599TIP3    H113738   5.972   0.756   4.360
 4599TIP3    H213739   6.087   0.660   4.339
 4600TIP3   OH213740   1.625   6.027   5.463
 4600TIP3    H113741   1.609   6.120   5.479
 4600TIP3    H213742   1.691   6.002   5.528
 4601TIP3   OH213743   4.219   4.533   5.610
 4601TIP3    H113744   4.288   4.474   5.640
 4601TIP3    H213745   4.218   4.524   5.515
 4602TIP3   OH213746   2.266   2.112   1.972
 4602TIP3    H113747   2.335   2.128   2.036
 4602TIP3    H213748   2.263   2.017   1.963
 4603TIP3   OH213749   2.755   6.238   4.098
 4603TIP3    H113750   2.756   6.321   4.050
 4603TIP3    H213751   2.810   6.254   4.174
 4604TIP3   OH213752   3.412   0.429   2.630
 4604TIP3    H113753   3.430   0.518   2.601
 4604TIP3    H213754   3.343   0.398   2.571
 4605TIP3   OH213755   6.338   1.914   5.448
 4605TIP3    H113756   6.384   1.979   5.500
 4605TIP3    H213757   6.407   1.861   5.408
 4606TIP3   OH213758   1.892   4.362   2.158
 4606TIP3    H113759   1.887   4.267   2.150
 4606TIP3    H213760   1.810   4.395   2.121
 4607TIP3   OH213761   2.582   7.031   6.204
 4607TIP3    H113762   2.501   6.980   6.197
 4607TIP3    H213763   2.640   6.977   6.258
 4608TIP3   OH213764   7.160   1.313   5.083
 4608TIP3    H113765   7.227   1.277   5.025
 4608TIP3    H213766   7.078   1.274   5.053
 4609TIP3   OH213767   3.923   2.514   4.366
 4609TIP3    H113768   3.974   2.543   4.290
 4609TIP3    H213769   3.902   2.595   4.413
 4610TIP3   OH213770   4.152   7.719   0.001
 4610TIP3    H113771   4.202   7.795  -0.027
 4610TIP3    H213772   4.106   7.748   0.080
 4611TIP3   OH213773   0.739   1.968   2.425
 4611TIP3    H113774   0.696   2.051   2.405
 4611TIP3    H213775   0.669   1.903   2.421
 4612TIP3   OH213776   2.361   5.399   1.511
 4612TIP3    H113777   2.267   5.383   1.519
 4612TIP3    H213778   2.368   5.491   1.485
 4613TIP3   OH213779   3.734   1.968   5.521
 4613TIP3    H113780   3.651   2.011   5.536
 4613TIP3    H213781   3.778   2.022   5.456
 4614TIP3   OH213782   4.233   7.263   1.329
 4614TIP3    H113783   4.263   7.335   1.384
 4614TIP3    H213784   4.166   7.219   1.380
 4615TIP3   OH213785   3.272   4.973   0.544
 4615TIP3    H113786   3.252   5.066   0.537
 4615TIP3    H213787   3.322   4.965   0.625
 4616TIP3   OH213788   5.351   2.467   3.962
 4616TIP3    H113789   5.299   2.402   3.915
 4616TIP3    H213790   5.368   2.536   3.898
 4617TIP3   OH213791   4.866   0.898   4.880
 4617TIP3    H113792   4.826   0.983   4.899
 4617TIP3    H213793   4.902   0.868   4.963
 4618TIP3   OH213794   2.591   5.262   3.085
 4618TIP3    H113795   2.502   5.251   3.119
 4618TIP3    H213796   2.585   5.239   2.992
 4619TIP3   OH213797   6.981   3.213   6.053
 4619TIP3    H113798   6.896   3.248   6.078
 4619TIP3    H213799   7.013   3.170   6.133
 4620TIP3   OH213800   7.891   2.934   2.070
 4620TIP3    H113801   7.905   2.898   2.157
 4620TIP3    H213802   7.870   2.858   2.016
 4621TIP3   OH213803   6.067   4.990   0.847
 4621TIP3    H113804   6.021   5.020   0.769
 4621TIP3    H213805   6.156   5.025   0.837
 4622TIP3   OH213806   2.820   7.440   2.446
 4622TIP3    H113807   2.773   7.393   2.514
 4622TIP3    H213808   2.751   7.487   2.397
 4623TIP3   OH213809   3.386   6.447   2.028
 4623TIP3    H113810   3.444   6.451   1.952
 4623TIP3    H213811   3.438   6.403   2.095
 4624TIP3   OH213812   5.117   0.604   5.951
 4624TIP3    H113813   5.105   0.561   6.036
 4624TIP3    H213814   5.134   0.696   5.973
 4625TIP3   OH213815   6.811   5.220   6.651
 4625TIP3    H113816   6.868   5.197   6.578
 4625TIP3    H213817   6.831   5.156   6.719
 4626TIP3   OH213818   5.210   0.093   3.807
 4626TIP3    H113819   5.174   0.006   3.787
 4626TIP3    H213820   5.168   0.150   3.743
 4627TIP3   OH213821   4.144   2.969   4.849
 4627TIP3    H113822   4.118   2.937   4.763
 4627TIP3    H213823   4.238   2.953   4.853
 4628TIP3   OH213824   1.971   2.452   3.902
 4628TIP3    H113825   1.890   2.424   3.860
 4628TIP3    H213826   2.016   2.371   3.924
 4629TIP3   OH213827   1.074   1.568   2.726
 4629TIP3    H113828   1.080   1.474   2.708
 4629TIP3    H213829   1.020   1.573   2.805
 4630TIP3   OH213830   5.575   2.916   5.101
 4630TIP3    H113831   5.609   2.941   5.015
 4630TIP3    H213832   5.508   2.982   5.120
 4631TIP3   OH213833   4.974   7.367   0.584
 4631TIP3    H113834   5.017   7.391   0.502
 4631TIP3    H213835   4.914   7.296   0.559
 4632TIP3   OH213836   2.587   5.412   1.680
 4632TIP3    H113837   2.617   5.500   1.661
 4632TIP3    H213838   2.520   5.394   1.613
 4633TIP3   OH213839   1.556   3.595   4.697
 4633TIP3    H113840   1.602   3.655   4.638
 4633TIP3    H213841   1.626   3.548   4.743
 4634TIP3   OH213842   3.553   5.475   1.912
 4634TIP3    H113843   3.566   5.542   1.979
 4634TIP3    H213844   3.633   5.478   1.859
 4635TIP3   OH213845   7.292   1.749   0.495
 4635TIP3    H113846   7.272   1.681   0.559
 4635TIP3    H213847   7.385   1.737   0.476
 4636TIP3   OH213848   6.746   6.965   6.674
 4636TIP3    H113849   6.819   6.906   6.655
 4636TIP3    H213850   6.686   6.911   6.726
 4637TIP3   OH213851   5.974   7.873   4.501
 4637TIP3    H113852   6.039   7.936   4.470
 4637TIP3    H213853   6.021   7.819   4.564
 4638TIP3   OH213854   2.157   0.610   5.187
 4638TIP3    H113855   2.126   0.701   5.181
 4638TIP3    H213856   2.186   0.601   5.278
 4639TIP3   OH213857   4.101   5.511   3.212
 4639TIP3    H113858   4.188   5.533   3.178
 4639TIP3    H213859   4.112   5.508   3.307
 4640TIP3   OH213860   1.922   5.795   4.501
 4640TIP3    H113861   1.850   5.859   4.502
 4640TIP3    H213862   1.899   5.732   4.569
 4641TIP3   OH213863   0.926   5.508   4.256
 4641TIP3    H113864   0.945   5.557   4.336
 4641TIP3    H213865   0.970   5.424   4.268
 4642TIP3   OH213866   6.146   7.794   4.003
 4642TIP3    H113867   6.241   7.796   3.993
 4642TIP3    H213868   6.128   7.859   4.071
 4643TIP3   OH213869   0.343   2.830   4.282
 4643TIP3    H113870   0.288   2.791   4.214
 4643TIP3    H213871   0.345   2.766   4.352
 4644TIP3   OH213872   6.896   3.133   6.531
 4644TIP3    H113873   6.966   3.069   6.541
 4644TIP3    H213874   6.841   3.097   6.462
 4645TIP3   OH213875   6.895   7.237   0.453
 4645TIP3    H113876   6.852   7.189   0.382
 4645TIP3    H213877   6.977   7.190   0.468
 4646TIP3   OH213878   7.275   5.771   4.363
 4646TIP3    H113879   7.279   5.865   4.380
 4646TIP3    H213880   7.366   5.742   4.369
 4647TIP3   OH213881   3.264   0.762   6.574
 4647TIP3    H113882   3.223   0.684   6.536
 4647TIP3    H213883   3.261   0.748   6.668
 4648TIP3   OH213884   3.798   1.496   4.945
 4648TIP3    H113885   3.893   1.506   4.944
 4648TIP3    H213886   3.784   1.405   4.971
 4649TIP3   OH213887   4.683   1.530   5.301
 4649TIP3    H113888   4.730   1.606   5.268
 4649TIP3    H213889   4.593   1.560   5.314
 4650TIP3   OH213890   1.246   0.738   2.150
 4650TIP3    H113891   1.177   0.781   2.200
 4650TIP3    H213892   1.317   0.724   2.212
 4651TIP3   OH213893   2.802   7.134   6.012
 4651TIP3    H113894   2.838   7.046   6.011
 4651TIP3    H213895   2.729   7.130   6.073
 4652TIP3   OH213896   6.636   5.842   4.116
 4652TIP3    H113897   6.628   5.818   4.023
 4652TIP3    H213898   6.693   5.774   4.153
 4653TIP3   OH213899   5.790   1.825   4.911
 4653TIP3    H113900   5.858   1.787   4.855
 4653TIP3    H213901   5.835   1.847   4.992
 4654TIP3   OH213902   3.906   4.907   2.393
 4654TIP3    H113903   3.978   4.869   2.342
 4654TIP3    H213904   3.876   4.835   2.450
 4655TIP3   OH213905   5.698   3.948   0.525
 4655TIP3    H113906   5.676   3.859   0.553
 4655TIP3    H213907   5.651   4.005   0.585
 4656TIP3   OH213908   0.164   6.780   5.033
 4656TIP3    H113909   0.215   6.700   5.043
 4656TIP3    H213910   0.205   6.826   4.960
 4657TIP3   OH213911   2.079   4.704   0.323
 4657TIP3    H113912   2.096   4.756   0.245
 4657TIP3    H213913   2.158   4.713   0.376
 4658TIP3   OH213914   2.582   5.359   3.938
 4658TIP3    H113915   2.512   5.303   3.971
 4658TIP3    H213916   2.609   5.319   3.856
 4659TIP3   OH213917   3.318   3.509   3.382
 4659TIP3    H113918   3.265   3.526   3.460
 4659TIP3    H213919   3.357   3.423   3.398
 4660TIP3   OH213920   2.244   1.180   5.207
 4660TIP3    H113921   2.313   1.190   5.272
 4660TIP3    H213922   2.182   1.250   5.227
 4661TIP3   OH213923   2.734   1.903   6.334
 4661TIP3    H113924   2.651   1.894   6.380
 4661TIP3    H213925   2.743   1.997   6.319
 4662TIP3   OH213926   6.555   1.418   4.968
 4662TIP3    H113927   6.599   1.348   4.921
 4662TIP3    H213928   6.502   1.373   5.034
 4663TIP3   OH213929   7.459   5.388   6.521
 4663TIP3    H113930   7.477   5.295   6.514
 4663TIP3    H213931   7.544   5.427   6.543
 4664TIP3   OH213932   2.787   7.017   0.346
 4664TIP3    H113933   2.812   7.072   0.419
 4664TIP3    H213934   2.752   6.937   0.387
 4665TIP3   OH213935   3.487   3.519   3.830
 4665TIP3    H113936   3.542   3.465   3.887
 4665TIP3    H213937   3.459   3.591   3.886
 4666TIP3   OH213938   0.868   3.465   1.782
 4666TIP3    H113939   0.910   3.443   1.699
 4666TIP3    H213940   0.924   3.532   1.820
 4667TIP3   OH213941   2.044   7.590   3.820
 4667TIP3    H113942   2.033   7.673   3.774
 4667TIP3    H213943   1.969   7.537   3.792
 4668TIP3   OH213944   2.031   4.271   5.653
 4668TIP3    H113945   2.065   4.186   5.681
 4668TIP3    H213946   2.053   4.276   5.560
 4669TIP3   OH213947   0.550   4.549   2.032
 4669TIP3    H113948   0.476   4.501   1.995
 4669TIP3    H213949   0.510   4.604   2.100
 4670TIP3   OH213950   5.902   2.605   6.249
 4670TIP3    H113951   5.934   2.610   6.339
 4670TIP3    H213952   5.979   2.588   6.196
 4671TIP3   OH213953   8.084   3.536   1.478
 4671TIP3    H113954   8.116   3.474   1.413
 4671TIP3    H213955   8.139   3.614   1.465
 4672TIP3   OH213956   7.720   0.271   4.893
 4672TIP3    H113957   7.670   0.218   4.831
 4672TIP3    H213958   7.676   0.257   4.977
 4673TIP3   OH213959   8.416   1.672   1.838
 4673TIP3    H113960   8.406   1.747   1.779
 4673TIP3    H213961   8.370   1.697   1.918
 4674TIP3   OH213962   5.064   5.768   2.849
 4674TIP3    H113963   5.115   5.759   2.768
 4674TIP3    H213964   5.122   5.734   2.917
 4675TIP3   OH213965   3.284   6.999   3.912
 4675TIP3    H113966   3.285   6.944   3.990
 4675TIP3    H213967   3.260   7.086   3.945
 4676TIP3   OH213968   4.023   5.159   4.313
 4676TIP3    H113969   4.096   5.161   4.250
 4676TIP3    H213970   4.036   5.077   4.361
 4677TIP3   OH213971   5.242   6.983   2.741
 4677TIP3    H113972   5.161   6.933   2.727
 4677TIP3    H213973   5.293   6.970   2.661
 4678TIP3   OH213974   4.273   1.305   1.747
 4678TIP3    H113975   4.265   1.221   1.700
 4678TIP3    H213976   4.342   1.352   1.700
 4679TIP3   OH213977   3.286   4.822   4.280
 4679TIP3    H113978   3.292   4.878   4.358
 4679TIP3    H213979   3.369   4.836   4.235
 4680TIP3   OH213980   4.776   3.005   2.415
 4680TIP3    H113981   4.722   3.014   2.494
 4680TIP3    H213982   4.854   2.959   2.445
 4681TIP3   OH213983   2.317   6.072   5.414
 4681TIP3    H113984   2.377   6.004   5.445
 4681TIP3    H213985   2.282   6.036   5.332
 4682TIP3   OH213986   6.292   5.984   1.605
 4682TIP3    H113987   6.268   5.897   1.574
 4682TIP3    H213988   6.214   6.016   1.652
 4683TIP3   OH213989   0.962   5.917   1.905
 4683TIP3    H113990   0.998   5.853   1.844
 4683TIP3    H213991   0.898   5.966   1.853
 4684TIP3   OH213992   0.262   0.145   0.838
 4684TIP3    H113993   0.272   0.238   0.853
 4684TIP3    H213994   0.213   0.139   0.756
 4685TIP3   OH213995   8.246   5.472   6.299
 4685TIP3    H113996   8.333   5.485   6.337
 4685TIP3    H213997   8.248   5.382   6.265
 4686TIP3   OH213998   5.945   7.019   0.913
 4686TIP3    H113999   5.998   6.976   0.846
 4686TIP3    H214000   5.978   6.985   0.996
 4687TIP3   OH214001   7.701   5.091   4.365
 4687TIP3    H114002   7.720   5.041   4.285
 4687TIP3    H214003   7.759   5.053   4.431
 4688TIP3   OH214004   0.080   7.487   6.365
 4688TIP3    H114005  -0.009   7.465   6.395
 4688TIP3    H214006   0.077   7.582   6.350
 4689TIP3   OH214007   6.384   7.920   2.563
 4689TIP3    H114008   6.439   7.929   2.641
 4689TIP3    H214009   6.430   7.856   2.508
 4690TIP3   OH214010   7.616   0.392   3.788
 4690TIP3    H114011   7.566   0.473   3.781
 4690TIP3    H214012   7.555   0.323   3.763
 4691TIP3   OH214013   0.848   3.212   5.666
 4691TIP3    H114014   0.824   3.250   5.581
 4691TIP3    H214015   0.764   3.190   5.707
 4692TIP3   OH214016   4.706   1.914   4.638
 4692TIP3    H114017   4.743   2.003   4.634
 4692TIP3    H214018   4.714   1.881   4.548
 4693TIP3   OH214019   5.898   1.003   6.744
 4693TIP3    H114020   5.967   0.944   6.714
 4693TIP3    H214021   5.834   0.946   6.786
 4694TIP3   OH214022   2.520   2.463   3.189
 4694TIP3    H114023   2.477   2.458   3.103
 4694TIP3    H214024   2.515   2.556   3.213
 4695TIP3   OH214025   2.628   2.686   5.458
 4695TIP3    H114026   2.566   2.619   5.487
 4695TIP3    H214027   2.626   2.682   5.363
 4696TIP3   OH214028   6.660   0.260   0.376
 4696TIP3    H114029   6.626   0.211   0.451
 4696TIP3    H214030   6.627   0.212   0.300
 4697TIP3   OH214031   6.327   1.375   6.466
 4697TIP3    H114032   6.408   1.332   6.493
 4697TIP3    H214033   6.348   1.468   6.467
 4698TIP3   OH214034   3.542   0.435   4.977
 4698TIP3    H114035   3.585   0.403   5.056
 4698TIP3    H214036   3.542   0.530   4.986
 4699TIP3   OH214037   2.531   4.499   1.483
 4699TIP3    H114038   2.514   4.481   1.575
 4699TIP3    H214039   2.470   4.569   1.460
 4700TIP3   OH214040   7.989   2.665   2.718
 4700TIP3    H114041   7.954   2.752   2.736
 4700TIP3    H214042   7.913   2.607   2.726
 4701TIP3   OH214043   4.635   6.692   6.118
 4701TIP3    H114044   4.653   6.619   6.177
 4701TIP3    H214045   4.615   6.650   6.034
 4702TIP3   OH214046   5.955   6.766   4.037
 4702TIP3    H114047   5.950   6.672   4.019
 4702TIP3    H214048   5.963   6.806   3.950
 4703TIP3   OH214049   7.326   4.292   2.002
 4703TIP3    H114050   7.266   4.255   1.937
 4703TIP3    H214051   7.359   4.217   2.050
 4704TIP3   OH214052   1.460   2.424   5.538
 4704TIP3    H114053   1.456   2.508   5.583
 4704TIP3    H214054   1.378   2.380   5.562
 4705TIP3   OH214055   3.482   3.351   6.156
 4705TIP3    H114056   3.478   3.285   6.225
 4705TIP3    H214057   3.465   3.434   6.201
 4706TIP3   OH214058   8.390   1.400   2.281
 4706TIP3    H114059   8.305   1.435   2.307
 4706TIP3    H214060   8.403   1.325   2.339
 4707TIP3   OH214061   8.270   3.671   6.321
 4707TIP3    H114062   8.226   3.756   6.319
 4707TIP3    H214063   8.298   3.660   6.412
 4708TIP3   OH214064   0.705   7.495   3.581
 4708TIP3    H114065   0.735   7.584   3.599
 4708TIP3    H214066   0.654   7.503   3.501
 4709TIP3   OH214067   8.342   7.273   1.605
 4709TIP3    H114068   8.251   7.280   1.634
 4709TIP3    H214069   8.383   7.217   1.671
 4710TIP3   OH214070   3.003   4.700   6.315
 4710TIP3    H114071   2.921   4.681   6.269
 4710TIP3    H214072   2.987   4.669   6.404
 4711TIP3   OH214073   7.435   7.405   0.845
 4711TIP3    H114074   7.353   7.455   0.844
 4711TIP3    H214075   7.454   7.392   0.938
 4712TIP3   OH214076   2.832   7.463   4.822
 4712TIP3    H114077   2.822   7.437   4.730
 4712TIP3    H214078   2.876   7.547   4.818
 4713TIP3   OH214079   5.802   3.557   2.006
 4713TIP3    H114080   5.767   3.581   2.091
 4713TIP3    H214081   5.726   3.556   1.947
 4714TIP3   OH214082   7.181   5.555   4.001
 4714TIP3    H114083   7.149   5.499   4.071
 4714TIP3    H214084   7.204   5.496   3.930
 4715TIP3   OH214085   4.877   2.255   3.135
 4715TIP3    H114086   4.920   2.177   3.101
 4715TIP3    H214087   4.786   2.247   3.106
 4716TIP3   OH214088   6.572   0.705   3.303
 4716TIP3    H114089   6.611   0.793   3.299
 4716TIP3    H214090   6.647   0.646   3.298
 4717TIP3   OH214091   5.885   6.380   6.816
 4717TIP3    H114092   5.866   6.402   6.907
 4717TIP3    H214093   5.974   6.412   6.801
 4718TIP3   OH214094   4.014   4.969   3.538
 4718TIP3    H114095   3.950   4.934   3.477
 4718TIP3    H214096   4.098   4.959   3.493
 4719TIP3   OH214097   3.148   1.639   6.739
 4719TIP3    H114098   3.224   1.641   6.680
 4719TIP3    H214099   3.114   1.550   6.732
 4720TIP3   OH214100   2.125   7.118   1.056
 4720TIP3    H114101   2.164   7.084   1.137
 4720TIP3    H214102   2.198   7.123   0.994
 4721TIP3   OH214103   8.284   2.797   5.798
 4721TIP3    H114104   8.236   2.854   5.739
 4721TIP3    H214105   8.257   2.709   5.774
 4722TIP3   OH214106   4.053   4.450   4.742
 4722TIP3    H114107   3.992   4.480   4.675
 4722TIP3    H214108   4.110   4.525   4.759
 4723TIP3   OH214109   2.210   6.656   0.357
 4723TIP3    H114110   2.204   6.583   0.419
 4723TIP3    H214111   2.120   6.673   0.332
 4724TIP3   OH214112   8.361   6.335   5.056
 4724TIP3    H114113   8.274   6.366   5.034
 4724TIP3    H214114   8.383   6.379   5.138
 4725TIP3   OH214115   8.321   3.941   1.066
 4725TIP3    H114116   8.337   3.848   1.079
 4725TIP3    H214117   8.341   3.956   0.973
 4726TIP3   OH214118   1.587   1.100   6.019
 4726TIP3    H114119   1.575   1.178   6.075
 4726TIP3    H214120   1.647   1.045   6.069
 4727TIP3   OH214121   2.668   3.058   0.176
 4727TIP3    H114122   2.594   3.067   0.235
 4727TIP3    H214123   2.687   2.964   0.176
 4728TIP3   OH214124   3.283   7.149   3.629
 4728TIP3    H114125   3.332   7.089   3.573
 4728TIP3    H214126   3.284   7.107   3.716
 4729TIP3   OH214127   5.430   3.862   6.045
 4729TIP3    H114128   5.517   3.883   6.013
 4729TIP3    H214129   5.446   3.805   6.121
 4730TIP3   OH214130   3.138   7.682   3.759
 4730TIP3    H114131   3.153   7.605   3.813
 4730TIP3    H214132   3.226   7.719   3.744
 4731TIP3   OH214133   8.386   7.086   4.082
 4731TIP3    H114134   8.470   7.114   4.046
 4731TIP3    H214135   8.400   7.082   4.176
 4732TIP3   OH214136   6.212   6.644   6.087
 4732TIP3    H114137   6.168   6.724   6.116
 4732TIP3    H214138   6.181   6.631   5.997
 4733TIP3   OH214139   5.237   6.953   4.554
 4733TIP3    H114140   5.218   6.914   4.639
 4733TIP3    H214141   5.158   7.003   4.532
 4734TIP3   OH214142   1.510   3.381   2.571
 4734TIP3    H114143   1.476   3.468   2.586
 4734TIP3    H214144   1.599   3.383   2.606
 4735TIP3   OH214145   0.493   3.470   0.167
 4735TIP3    H114146   0.482   3.562   0.192
 4735TIP3    H214147   0.567   3.470   0.106
 4736TIP3   OH214148   4.552   1.237   3.249
 4736TIP3    H114149   4.528   1.185   3.173
 4736TIP3    H214150   4.574   1.172   3.316
 4737TIP3   OH214151   6.668   2.938   5.626
 4737TIP3    H114152   6.585   2.970   5.590
 4737TIP3    H214153   6.683   2.992   5.703
 4738TIP3   OH214154   3.196   1.386   5.713
 4738TIP3    H114155   3.279   1.347   5.686
 4738TIP3    H214156   3.207   1.479   5.697
 4739TIP3   OH214157   0.168   6.441   2.962
 4739TIP3    H114158   0.134   6.384   2.893
 4739TIP3    H214159   0.106   6.432   3.034
 4740TIP3   OH214160   0.099   7.409   5.757
 4740TIP3    H114161   0.153   7.368   5.689
 4740TIP3    H214162   0.085   7.498   5.726
 4741TIP3   OH214163   6.370   2.220   0.800
 4741TIP3    H114164   6.452   2.179   0.827
 4741TIP3    H214165   6.326   2.243   0.882
 4742TIP3   OH214166   4.446   0.947   5.973
 4742TIP3    H114167   4.351   0.932   5.979
 4742TIP3    H214168   4.455   1.015   5.907
 4743TIP3   OH214169   4.350   0.187   6.224
 4743TIP3    H114170   4.258   0.196   6.199
 4743TIP3    H214171   4.362   0.094   6.240
 4744TIP3   OH214172   3.230   3.140   2.995
 4744TIP3    H114173   3.186   3.073   3.047
 4744TIP3    H214174   3.162   3.205   2.977
 4745TIP3   OH214175   3.445   3.888   2.542
 4745TIP3    H114176   3.480   3.907   2.455
 4745TIP3    H214177   3.509   3.924   2.603
 4746TIP3   OH214178   6.167   5.320   0.913
 4746TIP3    H114179   6.163   5.312   0.817
 4746TIP3    H214180   6.076   5.337   0.939
 4747TIP3   OH214181   7.180   1.683   2.375
 4747TIP3    H114182   7.211   1.681   2.285
 4747TIP3    H214183   7.257   1.707   2.426
 4748TIP3   OH214184   3.948   4.229   4.889
 4748TIP3    H114185   4.001   4.297   4.847
 4748TIP3    H214186   3.875   4.277   4.929
 4749TIP3   OH214187   5.598   6.772   3.214
 4749TIP3    H114188   5.682   6.776   3.170
 4749TIP3    H214189   5.553   6.697   3.174
 4750TIP3   OH214190   0.254   6.266   2.542
 4750TIP3    H114191   0.250   6.203   2.614
 4750TIP3    H214192   0.205   6.342   2.574
 4751TIP3   OH214193   6.943   0.209   0.905
 4751TIP3    H114194   7.014   0.254   0.951
 4751TIP3    H214195   6.905   0.152   0.971
 4752TIP3   OH214196   6.735   0.747   5.400
 4752TIP3    H114197   6.655   0.721   5.446
 4752TIP3    H214198   6.706   0.771   5.312
 4753TIP3   OH214199   6.296   6.139   0.508
 4753TIP3    H114200   6.348   6.207   0.550
 4753TIP3    H214201   6.210   6.178   0.494
 4754TIP3   OH214202   2.609   6.274   0.652
 4754TIP3    H114203   2.523   6.239   0.678
 4754TIP3    H214204   2.590   6.331   0.578
 4755TIP3   OH214205   3.493   5.686   6.782
 4755TIP3    H114206   3.548   5.658   6.708
 4755TIP3    H214207   3.468   5.605   6.826
 4756TIP3   OH214208   1.137   3.661   0.133
 4756TIP3    H114209   1.135   3.571   0.102
 4756TIP3    H214210   1.105   3.713   0.060
 4757TIP3   OH214211   3.646   3.409   2.451
 4757TIP3    H114212   3.671   3.489   2.405
 4757TIP3    H214213   3.560   3.387   2.415
 4758TIP3   OH214214   6.614   4.269   6.014
 4758TIP3    H114215   6.680   4.295   5.950
 4758TIP3    H214216   6.589   4.181   5.989
 4759TIP3   OH214217   5.894   4.547   2.605
 4759TIP3    H114218   5.834   4.507   2.668
 4759TIP3    H214219   5.981   4.521   2.636
 4760TIP3   OH214220   4.058   1.234   0.176
 4760TIP3    H114221   4.022   1.150   0.148
 4760TIP3    H214222   4.107   1.266   0.100
 4761TIP3   OH214223   8.150  -0.064   4.684
 4761TIP3    H114224   8.206  -0.004   4.734
 4761TIP3    H214225   8.061  -0.037   4.706
 4762TIP3   OH214226   5.155   2.497   0.708
 4762TIP3    H114227   5.092   2.469   0.642
 4762TIP3    H214228   5.198   2.416   0.736
 4763TIP3   OH214229   0.616   0.914   5.923
 4763TIP3    H114230   0.653   0.906   5.835
 4763TIP3    H214231   0.558   0.839   5.932
 4764TIP3   OH214232   8.327   1.205   4.197
 4764TIP3    H114233   8.361   1.218   4.285
 4764TIP3    H214234   8.233   1.222   4.205
 4765TIP3   OH214235   4.670   2.246   4.298
 4765TIP3    H114236   4.675   2.319   4.360
 4765TIP3    H214237   4.716   2.174   4.340
 4766TIP3   OH214238   6.424   0.796   0.691
 4766TIP3    H114239   6.470   0.732   0.637
 4766TIP3    H214240   6.391   0.745   0.765
 4767TIP3   OH214241   2.176   1.085   4.684
 4767TIP3    H114242   2.174   1.098   4.779
 4767TIP3    H214243   2.143   1.167   4.648
 4768TIP3   OH214244   2.244   6.039   5.139
 4768TIP3    H114245   2.189   5.963   5.159
 4768TIP3    H214246   2.315   6.004   5.086
 4769TIP3   OH214247   5.970   4.677   4.404
 4769TIP3    H114248   5.966   4.590   4.366
 4769TIP3    H214249   6.059   4.707   4.386
 4770TIP3   OH214250   2.592  -0.058   3.619
 4770TIP3    H114251   2.525   0.009   3.605
 4770TIP3    H214252   2.603  -0.060   3.714
 4771TIP3   OH214253   0.988   6.005   0.260
 4771TIP3    H114254   1.065   5.957   0.289
 4771TIP3    H214255   0.914   5.952   0.289
 4772TIP3   OH214256   2.483   6.658   5.069
 4772TIP3    H114257   2.484   6.594   4.998
 4772TIP3    H214258   2.575   6.682   5.080
 4773TIP3   OH214259   7.577   4.035   2.554
 4773TIP3    H114260   7.659   4.079   2.579
 4773TIP3    H214261   7.535   4.096   2.494
 4774TIP3   OH214262   0.822   6.049   3.735
 4774TIP3    H114263   0.834   5.954   3.734
 4774TIP3    H214264   0.795   6.071   3.646
 4775TIP3   OH214265   5.988   4.364   1.851
 4775TIP3    H114266   5.976   4.459   1.853
 4775TIP3    H214267   5.943   4.336   1.771
 4776TIP3   OH214268   4.444   1.788   3.193
 4776TIP3    H114269   4.408   1.799   3.281
 4776TIP3    H214270   4.532   1.754   3.207
 4777TIP3   OH214271   6.193   2.435   5.784
 4777TIP3    H114272   6.190   2.342   5.763
 4777TIP3    H214273   6.286   2.457   5.784
 4778TIP3   OH214274   6.848   0.099   5.387
 4778TIP3    H114275   6.902   0.028   5.422
 4778TIP3    H214276   6.901   0.178   5.401
 4779TIP3   OH214277   8.056   6.705   5.935
 4779TIP3    H114278   7.962   6.688   5.936
 4779TIP3    H214279   8.093   6.640   5.995
 4780TIP3   OH214280   1.417   0.310   6.205
 4780TIP3    H114281   1.432   0.239   6.142
 4780TIP3    H214282   1.347   0.277   6.261
 4781TIP3   OH214283   3.097   1.290   2.444
 4781TIP3    H114284   3.004   1.280   2.467
 4781TIP3    H214285   3.110   1.229   2.371
 4782TIP3   OH214286   5.072   6.138   6.509
 4782TIP3    H114287   5.021   6.178   6.579
 4782TIP3    H214288   5.068   6.201   6.437
 4783TIP3   OH214289   4.477   7.293   0.158
 4783TIP3    H114290   4.419   7.257   0.225
 4783TIP3    H214291   4.448   7.383   0.147
 4784TIP3   OH214292   3.879   2.992   0.290
 4784TIP3    H114293   3.883   2.915   0.347
 4784TIP3    H214294   3.956   2.985   0.234
 4785TIP3   OH214295   4.048   0.759   2.599
 4785TIP3    H114296   4.136   0.796   2.607
 4785TIP3    H214297   4.055   0.673   2.641
 4786TIP3   OH214298   4.797   1.308   2.674
 4786TIP3    H114299   4.852   1.309   2.595
 4786TIP3    H214300   4.748   1.227   2.667
 4787TIP3   OH214301   6.828   1.097   4.784
 4787TIP3    H114302   6.843   1.057   4.870
 4787TIP3    H214303   6.799   1.025   4.729
 4788TIP3   OH214304   3.894   6.362   5.625
 4788TIP3    H114305   3.879   6.271   5.653
 4788TIP3    H214306   3.807   6.392   5.597
 4789TIP3   OH214307   8.002   2.882   0.678
 4789TIP3    H114308   7.950   2.830   0.617
 4789TIP3    H214309   8.052   2.817   0.727
 4790TIP3   OH214310   0.965   0.361   6.598
 4790TIP3    H114311   1.028   0.406   6.542
 4790TIP3    H214312   1.000   0.372   6.687
 4791TIP3   OH214313   5.082   3.111   5.436
 4791TIP3    H114314   5.142   3.181   5.410
 4791TIP3    H214315   4.995   3.145   5.413
 4792TIP3   OH214316   7.677   6.163   6.329
 4792TIP3    H114317   7.685   6.251   6.365
 4792TIP3    H214318   7.759   6.149   6.281
 4793TIP3   OH214319   4.546   5.927   5.162
 4793TIP3    H114320   4.634   5.953   5.135
 4793TIP3    H214321   4.546   5.832   5.159
 4794TIP3   OH214322   6.980   6.612   6.093
 4794TIP3    H114323   7.011   6.637   6.180
 4794TIP3    H214324   6.954   6.695   6.052
 4795TIP3   OH214325   5.375   7.074   6.755
 4795TIP3    H114326   5.286   7.107   6.766
 4795TIP3    H214327   5.394   7.027   6.836
 4796TIP3   OH214328   1.484   7.083   3.542
 4796TIP3    H114329   1.407   7.136   3.522
 4796TIP3    H214330   1.538   7.140   3.598
 4797TIP3   OH214331   2.031   7.276   4.940
 4797TIP3    H114332   1.991   7.204   4.988
 4797TIP3    H214333   2.118   7.242   4.915
 4798TIP3   OH214334   2.761   7.394   3.356
 4798TIP3    H114335   2.824   7.461   3.328
 4798TIP3    H214336   2.802   7.311   3.331
 4799TIP3   OH214337   4.213   2.318   6.360
 4799TIP3    H114338   4.187   2.372   6.435
 4799TIP3    H214339   4.308   2.326   6.356
 4800TIP3   OH214340   7.431   1.262   0.063
 4800TIP3    H114341   7.511   1.302   0.028
 4800TIP3    H214342   7.459   1.174   0.089
 4801TIP3   OH214343   4.699   2.656   4.632
 4801TIP3    H114344   4.607   2.645   4.610
 4801TIP3    H214345   4.711   2.751   4.638
 4802TIP3   OH214346   0.521   5.116   3.912
 4802TIP3    H114347   0.606   5.155   3.932
 4802TIP3    H214348   0.477   5.181   3.858
 4803TIP3   OH214349   7.191   1.064   6.416
 4803TIP3    H114350   7.249   1.004   6.463
 4803TIP3    H214351   7.164   1.015   6.338
 4804TIP3   OH214352   2.892   0.554   2.050
 4804TIP3    H114353   2.836   0.535   1.974
 4804TIP3    H214354   2.861   0.639   2.081
 4805TIP3   OH214355   4.077   1.180   0.771
 4805TIP3    H114356   4.087   1.165   0.865
 4805TIP3    H214357   4.032   1.101   0.740
 4806TIP3   OH214358   8.039   1.358   3.002
 4806TIP3    H114359   7.997   1.289   2.951
 4806TIP3    H214360   8.022   1.438   2.952
 4807TIP3   OH214361   1.846   5.161   4.506
 4807TIP3    H114362   1.777   5.128   4.449
 4807TIP3    H214363   1.919   5.100   4.496
 4808TIP3   OH214364   0.079   2.576   1.838
 4808TIP3    H114365   0.018   2.503   1.831
 4808TIP3    H214366   0.030   2.652   1.810
 4809TIP3   OH214367   1.110   3.562   2.535
 4809TIP3    H114368   1.177   3.565   2.467
 4809TIP3    H214369   1.160   3.564   2.617
 4810TIP3   OH214370   6.700   1.574   3.465
 4810TIP3    H114371   6.777   1.520   3.484
 4810TIP3    H214372   6.657   1.529   3.392
 4811TIP3   OH214373   0.996   1.652   5.001
 4811TIP3    H114374   1.014   1.563   5.033
 4811TIP3    H214375   1.060   1.666   4.932
 4812TIP3   OH214376   4.386   1.235   3.008
 4812TIP3    H114377   4.400   1.291   2.932
 4812TIP3    H214378   4.346   1.292   3.073
 4813TIP3   OH214379   5.727   7.853   5.161
 4813TIP3    H114380   5.782   7.793   5.111
 4813TIP3    H214381   5.781   7.930   5.175
 4814TIP3   OH214382   1.099   1.954   5.229
 4814TIP3    H114383   1.068   1.936   5.318
 4814TIP3    H214384   1.019   1.965   5.178
 4815TIP3   OH214385   7.002   6.013   3.480
 4815TIP3    H114386   7.076   6.039   3.536
 4815TIP3    H214387   7.039   6.011   3.392
 4816TIP3   OH214388   2.167   1.526   3.135
 4816TIP3    H114389   2.133   1.443   3.168
 4816TIP3    H214390   2.089   1.576   3.111
 4817TIP3   OH214391   0.325   6.852   3.122
 4817TIP3    H114392   0.255   6.798   3.159
 4817TIP3    H214393   0.356   6.803   3.046
 4818TIP3   OH214394   2.433   6.447   3.653
 4818TIP3    H114395   2.459   6.356   3.671
 4818TIP3    H214396   2.366   6.439   3.585
 4819TIP3   OH214397   6.856   2.508   0.720
 4819TIP3    H114398   6.855   2.508   0.816
 4819TIP3    H214399   6.948   2.521   0.697
 4820TIP3   OH214400   4.661   3.701   4.916
 4820TIP3    H114401   4.644   3.707   5.010
 4820TIP3    H214402   4.681   3.791   4.889
 4821TIP3   OH214403   3.585   5.058   0.132
 4821TIP3    H114404   3.511   5.009   0.168
 4821TIP3    H214405   3.558   5.081   0.043
 4822TIP3   OH214406   7.100   2.311   6.761
 4822TIP3    H114407   7.158   2.281   6.691
 4822TIP3    H214408   7.120   2.252   6.835
 4823TIP3   OH214409   0.714   6.593   5.507
 4823TIP3    H114410   0.712   6.536   5.431
 4823TIP3    H214411   0.768   6.668   5.480
 4824TIP3   OH214412   7.944   1.454   3.763
 4824TIP3    H114413   7.909   1.375   3.803
 4824TIP3    H214414   8.003   1.422   3.694
 4825TIP3   OH214415   3.280   1.821   2.261
 4825TIP3    H114416   3.302   1.728   2.246
 4825TIP3    H214417   3.355   1.855   2.310
 4826TIP3   OH214418   0.835   4.937   2.892
 4826TIP3    H114419   0.930   4.932   2.899
 4826TIP3    H214420   0.817   5.031   2.883
 4827TIP3   OH214421   5.724   1.191   2.718
 4827TIP3    H114422   5.634   1.167   2.696
 4827TIP3    H214423   5.751   1.125   2.783
 4828TIP3   OH214424   2.558   0.410   5.004
 4828TIP3    H114425   2.488   0.404   5.069
 4828TIP3    H214426   2.580   0.503   5.003
 4829TIP3   OH214427   4.652   0.306   6.313
 4829TIP3    H114428   4.684   0.219   6.336
 4829TIP3    H214429   4.699   0.366   6.371
 4830TIP3   OH214430   6.785   5.658   2.423
 4830TIP3    H114431   6.709   5.697   2.468
 4830TIP3    H214432   6.786   5.700   2.337
 4831TIP3   OH214433   0.709   0.806   5.665
 4831TIP3    H114434   0.789   0.776   5.708
 4831TIP3    H214435   0.738   0.834   5.578
 4832TIP3   OH214436   7.754   7.177  -0.013
 4832TIP3    H114437   7.664   7.179  -0.048
 4832TIP3    H214438   7.750   7.229   0.067
 4833TIP3   OH214439   1.020   4.620   6.492
 4833TIP3    H114440   0.967   4.576   6.559
 4833TIP3    H214441   0.991   4.711   6.494
 4834TIP3   OH214442   2.931   2.722   4.036
 4834TIP3    H114443   2.979   2.683   4.109
 4834TIP3    H214444   2.992   2.788   4.001
 4835TIP3   OH214445   7.088   6.747   0.361
 4835TIP3    H114446   7.132   6.748   0.446
 4835TIP3    H214447   7.062   6.656   0.349
 4836TIP3   OH214448   5.129   5.958   0.012
 4836TIP3    H114449   5.075   5.949   0.091
 4836TIP3    H214450   5.178   6.038   0.026
 4837TIP3   OH214451   6.182   5.575   4.215
 4837TIP3    H114452   6.092   5.570   4.181
 4837TIP3    H214453   6.227   5.502   4.174
 4838TIP3   OH214454   4.520   2.173   1.591
 4838TIP3    H114455   4.436   2.211   1.615
 4838TIP3    H214456   4.563   2.240   1.538
 4839TIP3   OH214457   0.360   2.729   1.521
 4839TIP3    H114458   0.290   2.751   1.582
 4839TIP3    H214459   0.314   2.696   1.443
 4840TIP3   OH214460   0.661   2.804   1.388
 4840TIP3    H114461   0.682   2.859   1.313
 4840TIP3    H214462   0.699   2.718   1.366
 4841TIP3   OH214463   1.237   1.000   3.418
 4841TIP3    H114464   1.293   0.943   3.366
 4841TIP3    H214465   1.172   1.034   3.356
 4842TIP3   OH214466   3.038   2.556   5.372
 4842TIP3    H114467   3.058   2.467   5.343
 4842TIP3    H214468   3.032   2.606   5.291
 4843TIP3   OH214469   4.699   3.730   6.740
 4843TIP3    H114470   4.735   3.815   6.715
 4843TIP3    H214471   4.604   3.743   6.742
 4844TIP3   OH214472   0.221   6.467   3.443
 4844TIP3    H114473   0.155   6.397   3.439
 4844TIP3    H214474   0.283   6.445   3.375
 4845TIP3   OH214475   2.819   2.982   3.202
 4845TIP3    H114476   2.911   2.977   3.173
 4845TIP3    H214477   2.779   2.903   3.165
 4846TIP3   OH214478   3.578   5.207   6.495
 4846TIP3    H114479   3.613   5.124   6.464
 4846TIP3    H214480   3.504   5.183   6.551
 4847TIP3   OH214481   7.830   5.814   3.991
 4847TIP3    H114482   7.795   5.835   4.078
 4847TIP3    H214483   7.885   5.737   4.005
 4848TIP3   OH214484   5.224   2.235   3.041
 4848TIP3    H114485   5.259   2.183   3.114
 4848TIP3    H214486   5.174   2.172   2.989
 4849TIP3   OH214487   3.034   0.207   3.691
 4849TIP3    H114488   3.041   0.257   3.610
 4849TIP3    H214489   3.124   0.200   3.723
 4850TIP3   OH214490   5.885   1.726   1.378
 4850TIP3    H114491   5.833   1.778   1.439
 4850TIP3    H214492   5.836   1.644   1.369
 4851TIP3   OH214493   7.984   0.421   5.130
 4851TIP3    H114494   7.915   0.484   5.112
 4851TIP3    H214495   8.025   0.452   5.210
 4852TIP3   OH214496   3.474   4.739   2.988
 4852TIP3    H114497   3.473   4.648   3.016
 4852TIP3    H214498   3.538   4.781   3.045
 4853TIP3   OH214499   7.950   0.515   4.386
 4853TIP3    H114500   7.956   0.598   4.434
 4853TIP3    H214501   8.037   0.475   4.397
 4854TIP3   OH214502   7.838   3.611   1.645
 4854TIP3    H114503   7.831   3.516   1.650
 4854TIP3    H214504   7.906   3.627   1.580
 4855TIP3   OH214505   8.261   2.185   2.307
 4855TIP3    H114506   8.189   2.124   2.294
 4855TIP3    H214507   8.340   2.132   2.296
 4856TIP3   OH214508   0.161   7.732   1.668
 4856TIP3    H114509   0.066   7.738   1.667
 4856TIP3    H214510   0.180   7.654   1.721
 4857TIP3   OH214511   7.027   1.038   1.786
 4857TIP3    H114512   6.957   1.099   1.810
 4857TIP3    H214513   7.001   0.955   1.827
 4858TIP3   OH214514   1.632   7.903   5.394
 4858TIP3    H114515   1.644   7.885   5.301
 4858TIP3    H214516   1.659   7.995   5.404
 4859TIP3   OH214517   6.933   2.855   3.433
 4859TIP3    H114518   6.888   2.781   3.474
 4859TIP3    H214519   6.890   2.932   3.471
 4860TIP3   OH214520   2.324   0.176   4.016
 4860TIP3    H114521   2.342   0.104   3.956
 4860TIP3    H214522   2.341   0.140   4.103
 4861TIP3   OH214523   4.614   3.257   1.869
 4861TIP3    H114524   4.631   3.329   1.930
 4861TIP3    H214525   4.695   3.207   1.869
 4862TIP3   OH214526   0.651   2.704   0.481
 4862TIP3    H114527   0.590   2.714   0.408
 4862TIP3    H214528   0.709   2.780   0.474
 4863TIP3   OH214529   1.657   4.789   3.146
 4863TIP3    H114530   1.574   4.743   3.133
 4863TIP3    H214531   1.650   4.826   3.234
 4864TIP3   OH214532   3.654   0.220   6.798
 4864TIP3    H114533   3.690   0.131   6.793
 4864TIP3    H214534   3.594   0.225   6.723
 4865TIP3   OH214535   6.990   7.600   4.930
 4865TIP3    H114536   6.986   7.557   5.015
 4865TIP3    H214537   6.907   7.645   4.921
 4866TIP3   OH214538   4.793   6.779   2.171
 4866TIP3    H114539   4.886   6.760   2.184
 4866TIP3    H214540   4.780   6.769   2.076
 4867TIP3   OH214541   0.667   6.120   0.110
 4867TIP3    H114542   0.709   6.096   0.028
 4867TIP3    H214543   0.688   6.212   0.123
 4868TIP3   OH214544   1.227   7.867   4.137
 4868TIP3    H114545   1.268   7.920   4.069
 4868TIP3    H214546   1.242   7.776   4.108
 4869TIP3   OH214547   4.653   3.537   3.744
 4869TIP3    H114548   4.569   3.555   3.701
 4869TIP3    H214549   4.718   3.583   3.690
 4870TIP3   OH214550   2.294   6.236   5.651
 4870TIP3    H114551   2.255   6.208   5.734
 4870TIP3    H214552   2.258   6.175   5.586
 4871TIP3   OH214553   0.754   5.257   0.323
 4871TIP3    H114554   0.717   5.215   0.246
 4871TIP3    H214555   0.758   5.188   0.389
 4872TIP3   OH214556   2.504   1.243   4.740
 4872TIP3    H114557   2.485   1.337   4.746
 4872TIP3    H214558   2.551   1.223   4.820
 4873TIP3   OH214559   5.696   2.956   3.613
 4873TIP3    H114560   5.688   2.892   3.684
 4873TIP3    H214561   5.709   2.903   3.534
 4874TIP3   OH214562   3.915   7.484   5.439
 4874TIP3    H114563   3.943   7.561   5.489
 4874TIP3    H214564   3.918   7.412   5.503
 4875TIP3   OH214565   2.516   0.627   5.486
 4875TIP3    H114566   2.578   0.675   5.539
 4875TIP3    H214567   2.538   0.535   5.500
 4876TIP3   OH214568   5.843   0.318   3.774
 4876TIP3    H114569   5.762   0.360   3.745
 4876TIP3    H214570   5.838   0.319   3.870
 4877TIP3   OH214571   2.511   5.212   1.279
 4877TIP3    H114572   2.487   5.262   1.357
 4877TIP3    H214573   2.428   5.178   1.245
 4878TIP3   OH214574   5.330   0.476   5.207
 4878TIP3    H114575   5.235   0.470   5.205
 4878TIP3    H214576   5.353   0.455   5.298
 4879TIP3   OH214577   0.180   7.800   4.784
 4879TIP3    H114578   0.125   7.848   4.722
 4879TIP3    H214579   0.120   7.739   4.827
 4880TIP3   OH214580   1.292   1.062   6.550
 4880TIP3    H114581   1.228   1.025   6.611
 4880TIP3    H214582   1.281   1.011   6.470
 4881TIP3   OH214583   4.835   5.917   1.506
 4881TIP3    H114584   4.889   5.891   1.432
 4881TIP3    H214585   4.869   6.003   1.531
 4882TIP3   OH214586   4.944   1.388   6.651
 4882TIP3    H114587   5.040   1.381   6.650
 4882TIP3    H214588   4.914   1.304   6.685
 4883TIP3   OH214589   7.183   4.936   4.060
 4883TIP3    H114590   7.107   4.991   4.080
 4883TIP3    H214591   7.256   4.979   4.104
 4884TIP3   OH214592   5.128   4.613   0.865
 4884TIP3    H114593   5.197   4.582   0.807
 4884TIP3    H214594   5.059   4.645   0.807
 4885TIP3   OH214595   7.008   4.150   0.621
 4885TIP3    H114596   6.991   4.226   0.565
 4885TIP3    H214597   7.061   4.092   0.566
 4886TIP3   OH214598   7.715   5.654   3.743
 4886TIP3    H114599   7.719   5.737   3.696
 4886TIP3    H214600   7.733   5.677   3.834
 4887TIP3   OH214601   3.910   3.719   4.690
 4887TIP3    H114602   3.835   3.736   4.747
 4887TIP3    H214603   3.889   3.766   4.609
 4888TIP3   OH214604   3.053   0.396   2.445
 4888TIP3    H114605   3.140   0.357   2.456
 4888TIP3    H214606   2.993   0.332   2.482
 4889TIP3   OH214607   3.942   2.461   1.053
 4889TIP3    H114608   3.996   2.539   1.060
 4889TIP3    H214609   3.870   2.476   1.114
 4890TIP3   OH214610   6.366   0.136   2.343
 4890TIP3    H114611   6.311   0.059   2.358
 4890TIP3    H214612   6.305   0.207   2.324
 4891TIP3   OH214613   0.984   0.744   5.712
 4891TIP3    H114614   1.005   0.831   5.745
 4891TIP3    H214615   1.068   0.707   5.687
 4892TIP3   OH214616   0.575   1.855   5.852
 4892TIP3    H114617   0.668   1.837   5.842
 4892TIP3    H214618   0.572   1.944   5.888
 4893TIP3   OH214619   4.142   1.221   5.658
 4893TIP3    H114620   4.162   1.203   5.750
 4893TIP3    H214621   4.078   1.293   5.662
 4894TIP3   OH214622   2.265   6.201   1.409
 4894TIP3    H114623   2.358   6.198   1.388
 4894TIP3    H214624   2.250   6.290   1.441
 4895TIP3   OH214625   3.829   3.269   2.819
 4895TIP3    H114626   3.829   3.362   2.841
 4895TIP3    H214627   3.744   3.253   2.778
 4896TIP3   OH214628   5.220   5.910   6.720
 4896TIP3    H114629   5.192   5.972   6.786
 4896TIP3    H214630   5.295   5.952   6.678
 4897TIP3   OH214631   0.944   7.495   1.597
 4897TIP3    H114632   0.894   7.444   1.532
 4897TIP3    H214633   0.975   7.430   1.660
 4898TIP3   OH214634   2.291   2.674   2.574
 4898TIP3    H114635   2.373   2.711   2.542
 4898TIP3    H214636   2.310   2.582   2.591
 4899TIP3   OH214637   8.350   4.234   6.590
 4899TIP3    H114638   8.429   4.187   6.617
 4899TIP3    H214639   8.373   4.326   6.597
 4900TIP3   OH214640   6.631   2.421   3.546
 4900TIP3    H114641   6.671   2.376   3.621
 4900TIP3    H214642   6.541   2.437   3.573
 4901TIP3   OH214643   2.010   4.344   5.369
 4901TIP3    H114644   1.938   4.402   5.342
 4901TIP3    H214645   2.065   4.336   5.291
 4902TIP3   OH214646   6.316   2.709   1.142
 4902TIP3    H114647   6.354   2.692   1.055
 4902TIP3    H214648   6.279   2.797   1.135
 4903TIP3   OH214649   2.362   6.863   6.195
 4903TIP3    H114650   2.328   6.784   6.238
 4903TIP3    H214651   2.309   6.872   6.116
 4904TIP3   OH214652   7.611   5.494   0.785
 4904TIP3    H114653   7.617   5.491   0.689
 4904TIP3    H214654   7.522   5.467   0.804
 4905TIP3   OH214655   2.229   1.328   5.760
 4905TIP3    H114656   2.251   1.414   5.723
 4905TIP3    H214657   2.205   1.275   5.685
 4906TIP3   OH214658   3.413   7.736   1.122
 4906TIP3    H114659   3.373   7.800   1.181
 4906TIP3    H214660   3.457   7.790   1.056
 4907TIP3   OH214661   4.062   3.371   3.089
 4907TIP3    H114662   4.107   3.296   3.050
 4907TIP3    H214663   4.083   3.444   3.030
 4908TIP3   OH214664   8.292   3.672   5.620
 4908TIP3    H114665   8.283   3.764   5.597
 4908TIP3    H214666   8.372   3.644   5.576
 4909TIP3   OH214667   7.588   0.510   1.595
 4909TIP3    H114668   7.652   0.545   1.656
 4909TIP3    H214669   7.617   0.541   1.509
 4910TIP3   OH214670   0.931   7.253   5.080
 4910TIP3    H114671   0.936   7.348   5.083
 4910TIP3    H214672   0.837   7.234   5.073
 4911TIP3   OH214673   3.805   3.792   6.134
 4911TIP3    H114674   3.796   3.835   6.049
 4911TIP3    H214675   3.722   3.748   6.148
 4912TIP3   OH214676   6.470   1.204   2.318
 4912TIP3    H114677   6.397   1.217   2.258
 4912TIP3    H214678   6.430   1.187   2.403
 4913TIP3   OH214679   4.079   1.533   1.566
 4913TIP3    H114680   4.016   1.463   1.584
 4913TIP3    H214681   4.164   1.491   1.573
 4914TIP3   OH214682   8.058   7.729   2.176
 4914TIP3    H114683   8.103   7.813   2.168
 4914TIP3    H214684   8.124   7.669   2.210
 4915TIP3   OH214685   8.038   7.426   2.525
 4915TIP3    H114686   7.953   7.467   2.541
 4915TIP3    H214687   8.064   7.390   2.609
 4916TIP3   OH214688   7.512   1.537   4.727
 4916TIP3    H114689   7.545   1.500   4.645
 4916TIP3    H214690   7.449   1.603   4.700
 4917TIP3   OH214691   1.892   6.573   2.885
 4917TIP3    H114692   1.911   6.566   2.979
 4917TIP3    H214693   1.859   6.486   2.861
 4918TIP3   OH214694   2.394   7.164   3.076
 4918TIP3    H114695   2.351   7.183   2.993
 4918TIP3    H214696   2.400   7.068   3.079
 4919TIP3   OH214697   5.466   0.742   5.275
 4919TIP3    H114698   5.421   0.663   5.247
 4919TIP3    H214699   5.461   0.800   5.199
 4920TIP3   OH214700   2.097   7.763   0.000
 4920TIP3    H114701   2.073   7.848  -0.035
 4920TIP3    H214702   2.015   7.728   0.036
 4921TIP3   OH214703   3.630   6.047   1.874
 4921TIP3    H114704   3.671   5.961   1.877
 4921TIP3    H214705   3.692   6.102   1.826
 4922TIP3   OH214706   3.472   2.231   0.404
 4922TIP3    H114707   3.471   2.260   0.313
 4922TIP3    H214708   3.521   2.299   0.451
 4923TIP3   OH214709   7.069   0.173   1.728
 4923TIP3    H114710   7.020   0.237   1.676
 4923TIP3    H214711   7.102   0.223   1.802
 4924TIP3   OH214712   8.194   0.197   1.681
 4924TIP3    H114713   8.174   0.205   1.774
 4924TIP3    H214714   8.284   0.164   1.678
 4925TIP3   OH214715   3.533   0.273   5.892
 4925TIP3    H114716   3.568   0.334   5.828
 4925TIP3    H214717   3.604   0.211   5.908
 4926TIP3   OH214718   4.272   0.642   3.207
 4926TIP3    H114719   4.206   0.704   3.238
 4926TIP3    H214720   4.232   0.556   3.218
 4927TIP3   OH214721   5.557   7.420   1.260
 4927TIP3    H114722   5.613   7.373   1.322
 4927TIP3    H214723   5.607   7.498   1.237
 4928TIP3   OH214724   2.621   6.213   3.694
 4928TIP3    H114725   2.613   6.170   3.780
 4928TIP3    H214726   2.558   6.168   3.639
 4929TIP3   OH214727   2.011   3.742   0.990
 4929TIP3    H114728   2.087   3.745   1.048
 4929TIP3    H214729   2.018   3.657   0.946
 4930TIP3   OH214730   6.753   5.871   3.066
 4930TIP3    H114731   6.692   5.932   3.108
 4930TIP3    H214732   6.698   5.799   3.036
 4931TIP3   OH214733   4.865   2.185   4.672
 4931TIP3    H114734   4.915   2.103   4.678
 4931TIP3    H214735   4.907   2.235   4.603
 4932TIP3   OH214736   6.656   7.367   6.125
 4932TIP3    H114737   6.572   7.337   6.160
 4932TIP3    H214738   6.720   7.305   6.160
 4933TIP3   OH214739   6.589   2.192   2.882
 4933TIP3    H114740   6.659   2.176   2.818
 4933TIP3    H214741   6.622   2.264   2.935
 4934TIP3   OH214742   7.818   4.851   2.503
 4934TIP3    H114743   7.831   4.901   2.584
 4934TIP3    H214744   7.862   4.768   2.518
 4935TIP3   OH214745   3.841   3.792   6.399
 4935TIP3    H114746   3.755   3.836   6.395
 4935TIP3    H214747   3.867   3.782   6.307
 4936TIP3   OH214748   2.936   4.891   4.649
 4936TIP3    H114749   2.951   4.803   4.614
 4936TIP3    H214750   3.023   4.927   4.661
 4937TIP3   OH214751   5.210   1.311   6.623
 4937TIP3    H114752   5.223   1.341   6.533
 4937TIP3    H214753   5.295   1.325   6.666
 4938TIP3   OH214754   5.109   1.398   0.148
 4938TIP3    H114755   5.188   1.346   0.159
 4938TIP3    H214756   5.078   1.376   0.061
 4939TIP3   OH214757   3.966   7.568   4.986
 4939TIP3    H114758   3.871   7.576   4.995
 4939TIP3    H214759   3.991   7.503   5.052
 4940TIP3   OH214760   6.940   2.030   3.607
 4940TIP3    H114761   7.009   2.050   3.669
 4940TIP3    H214762   6.885   1.965   3.652
 4941TIP3   OH214763   0.558   3.473   3.583
 4941TIP3    H114764   0.549   3.564   3.613
 4941TIP3    H214765   0.469   3.439   3.584
 4942TIP3   OH214766   8.053   0.575   0.606
 4942TIP3    H114767   8.035   0.581   0.512
 4942TIP3    H214768   8.024   0.658   0.643
 4943TIP3   OH214769   1.758   4.173   5.623
 4943TIP3    H114770   1.847   4.204   5.638
 4943TIP3    H214771   1.709   4.201   5.700
 4944TIP3   OH214772   6.784   6.265   3.132
 4944TIP3    H114773   6.714   6.264   3.067
 4944TIP3    H214774   6.855   6.313   3.091
 4945TIP3   OH214775   1.957   4.290   4.239
 4945TIP3    H114776   1.997   4.218   4.190
 4945TIP3    H214777   1.948   4.256   4.328
 4946TIP3   OH214778   8.160   7.339   2.780
 4946TIP3    H114779   8.252   7.329   2.756
 4946TIP3    H214780   8.132   7.251   2.805
 4947TIP3   OH214781   1.751   1.114   2.510
 4947TIP3    H114782   1.814   1.154   2.449
 4947TIP3    H214783   1.739   1.180   2.578
 4948TIP3   OH214784   5.572   4.921   3.793
 4948TIP3    H114785   5.589   4.866   3.870
 4948TIP3    H214786   5.627   4.998   3.806
 4949TIP3   OH214787   3.700   0.047   0.653
 4949TIP3    H114788   3.764   0.081   0.715
 4949TIP3    H214789   3.637   0.119   0.642
 4950TIP3   OH214790   7.643   5.647   1.461
 4950TIP3    H114791   7.710   5.652   1.530
 4950TIP3    H214792   7.675   5.578   1.403
 4951TIP3   OH214793   2.524   2.923   6.706
 4951TIP3    H114794   2.582   2.851   6.732
 4951TIP3    H214795   2.455   2.881   6.654
 4952TIP3   OH214796   1.197   2.953   1.596
 4952TIP3    H114797   1.122   2.919   1.547
 4952TIP3    H214798   1.184   2.919   1.685
 4953TIP3   OH214799   7.236   2.829   4.468
 4953TIP3    H114800   7.186   2.905   4.498
 4953TIP3    H214801   7.222   2.827   4.373
 4954TIP3   OH214802   6.065   6.664   2.390
 4954TIP3    H114803   6.158   6.644   2.402
 4954TIP3    H214804   6.048   6.736   2.451
 4955TIP3   OH214805   1.470   1.248   6.460
 4955TIP3    H114806   1.408   1.185   6.498
 4955TIP3    H214807   1.553   1.201   6.456
 4956TIP3   OH214808   1.214   4.863   2.161
 4956TIP3    H114809   1.169   4.946   2.178
 4956TIP3    H214810   1.168   4.800   2.216
 4957TIP3   OH214811   6.465   6.312   1.439
 4957TIP3    H114812   6.433   6.247   1.502
 4957TIP3    H214813   6.510   6.378   1.492
 4958TIP3   OH214814   0.468   6.618   1.327
 4958TIP3    H114815   0.441   6.526   1.325
 4958TIP3    H214816   0.549   6.620   1.276
 4959TIP3   OH214817   2.380   3.409   6.704
 4959TIP3    H114818   2.464   3.365   6.684
 4959TIP3    H214819   2.406   3.492   6.745
 4960TIP3   OH214820   4.459   7.030   3.367
 4960TIP3    H114821   4.454   7.104   3.307
 4960TIP3    H214822   4.443   7.068   3.453
 4961TIP3   OH214823   0.227   4.177   4.949
 4961TIP3    H114824   0.315   4.174   4.986
 4961TIP3    H214825   0.236   4.227   4.869
 4962TIP3   OH214826   1.437   2.972   6.668
 4962TIP3    H114827   1.492   3.040   6.707
 4962TIP3    H214828   1.479   2.952   6.584
 4963TIP3   OH214829   6.751   3.299   4.171
 4963TIP3    H114830   6.795   3.368   4.120
 4963TIP3    H214831   6.805   3.221   4.156
 4964TIP3   OH214832   7.488   3.067   6.438
 4964TIP3    H114833   7.476   2.973   6.424
 4964TIP3    H214834   7.454   3.107   6.358
 4965TIP3   OH214835   5.768   7.054   0.657
 4965TIP3    H114836   5.835   6.993   0.689
 4965TIP3    H214837   5.806   7.141   0.670
 4966TIP3   OH214838   3.535   7.400   2.253
 4966TIP3    H114839   3.452   7.381   2.297
 4966TIP3    H214840   3.521   7.484   2.210
 4967TIP3   OH214841   2.588   2.489   0.908
 4967TIP3    H114842   2.606   2.485   0.814
 4967TIP3    H214843   2.592   2.398   0.937
 4968TIP3   OH214844   5.495   2.799   6.362
 4968TIP3    H114845   5.418   2.771   6.312
 4968TIP3    H214846   5.549   2.845   6.298
 4969TIP3   OH214847   6.316   0.740   0.241
 4969TIP3    H114848   6.327   0.830   0.212
 4969TIP3    H214849   6.405   0.704   0.243
 4970TIP3   OH214850   4.410   6.629   2.971
 4970TIP3    H114851   4.417   6.535   2.983
 4970TIP3    H214852   4.467   6.666   3.038
 4971TIP3   OH214853   6.219   2.445   4.636
 4971TIP3    H114854   6.205   2.487   4.721
 4971TIP3    H214855   6.166   2.365   4.640
 4972TIP3   OH214856   7.928   4.205   2.861
 4972TIP3    H114857   7.880   4.122   2.871
 4972TIP3    H214858   7.917   4.228   2.769
 4973TIP3   OH214859   3.482   3.822   2.266
 4973TIP3    H114860   3.544   3.750   2.277
 4973TIP3    H214861   3.477   3.834   2.172
 4974TIP3   OH214862   4.412   6.257   1.886
 4974TIP3    H114863   4.463   6.282   1.809
 4974TIP3    H214864   4.474   6.210   1.942
 4975TIP3   OH214865   4.390   2.842   5.589
 4975TIP3    H114866   4.298   2.846   5.563
 4975TIP3    H214867   4.422   2.931   5.579
 4976TIP3   OH214868   4.504   1.327   0.506
 4976TIP3    H114869   4.442   1.345   0.578
 4976TIP3    H214870   4.448   1.309   0.431
 4977TIP3   OH214871   4.400   2.041   0.734
 4977TIP3    H114872   4.452   2.005   0.661
 4977TIP3    H214873   4.338   2.100   0.692
 4978TIP3   OH214874   3.697   2.883   3.046
 4978TIP3    H114875   3.743   2.966   3.056
 4978TIP3    H214876   3.717   2.835   3.127
 4979TIP3   OH214877   2.359   4.164   6.491
 4979TIP3    H114878   2.344   4.250   6.451
 4979TIP3    H214879   2.295   4.107   6.449
 4980TIP3   OH214880   0.015   1.465   0.161
 4980TIP3    H114881  -0.033   1.473   0.243
 4980TIP3    H214882   0.083   1.400   0.179
 4981TIP3   OH214883   7.799   0.060   3.442
 4981TIP3    H114884   7.767   0.119   3.510
 4981TIP3    H214885   7.797   0.112   3.362
 4982TIP3   OH214886   3.816   0.537   0.738
 4982TIP3    H114887   3.794   0.579   0.655
 4982TIP3    H214888   3.912   0.531   0.737
 4983TIP3   OH214889   3.774   3.505   0.091
 4983TIP3    H114890   3.806   3.424   0.133
 4983TIP3    H214891   3.739   3.476   0.007
 4984TIP3   OH214892   8.077   6.676   0.405
 4984TIP3    H114893   8.038   6.763   0.400
 4984TIP3    H214894   8.126   6.667   0.324
 4985TIP3   OH214895   7.525   4.631   2.439
 4985TIP3    H114896   7.484   4.574   2.503
 4985TIP3    H214897   7.619   4.620   2.453
 4986TIP3   OH214898   5.365   5.721   2.767
 4986TIP3    H114899   5.376   5.809   2.802
 4986TIP3    H214900   5.422   5.718   2.690
 4987TIP3   OH214901   1.537   3.882   4.778
 4987TIP3    H114902   1.598   3.925   4.838
 4987TIP3    H214903   1.507   3.952   4.720
 4988TIP3   OH214904   7.434   7.076   0.741
 4988TIP3    H114905   7.437   6.980   0.733
 4988TIP3    H214906   7.361   7.102   0.684
 4989TIP3   OH214907   5.707   1.870   3.098
 4989TIP3    H114908   5.679   1.897   3.011
 4989TIP3    H214909   5.800   1.849   3.087
 4990TIP3   OH214910   1.116   4.070   1.158
 4990TIP3    H114911   1.189   4.040   1.212
 4990TIP3    H214912   1.088   4.152   1.199
 4991TIP3   OH214913   6.109   0.936   2.754
 4991TIP3    H114914   6.190   0.884   2.761
 4991TIP3    H214915   6.055   0.905   2.827
 4992TIP3   OH214916   3.463   6.612   1.769
 4992TIP3    H114917   3.542   6.618   1.822
 4992TIP3    H214918   3.486   6.551   1.698
 4993TIP3   OH214919   2.716   4.364   5.586
 4993TIP3    H114920   2.793   4.419   5.599
 4993TIP3    H214921   2.701   4.323   5.671
 4994TIP3   OH214922   5.210   7.716   1.740
 4994TIP3    H114923   5.167   7.631   1.733
 4994TIP3    H214924   5.281   7.711   1.676
 4995TIP3   OH214925   3.827   1.850   4.488
 4995TIP3    H114926   3.871   1.776   4.531
 4995TIP3    H214927   3.741   1.854   4.529
 4996TIP3   OH214928   4.645   2.126   3.111
 4996TIP3    H114929   4.641   2.038   3.149
 4996TIP3    H214930   4.592   2.180   3.170
 4997TIP3   OH214931   1.989   5.315   2.923
 4997TIP3    H114932   1.986   5.400   2.968
 4997TIP3    H214933   2.028   5.336   2.838
 4998TIP3   OH214934   1.583   0.818   3.432
 4998TIP3    H114935   1.558   0.819   3.525
 4998TIP3    H214936   1.603   0.727   3.413
 4999TIP3   OH214937   7.244   6.408   4.529
 4999TIP3    H114938   7.214   6.490   4.569
 4999TIP3    H214939   7.304   6.371   4.593
 5000TIP3   OH214940   1.647   7.436   2.778
 5000TIP3    H114941   1.558   7.431   2.813
 5000TIP3    H214942   1.703   7.432   2.855
 5001TIP3   OH214943   0.595   6.783   3.602
 5001TIP3    H114944   0.568   6.840   3.530
 5001TIP3    H214945   0.536   6.807   3.674
 5002TIP3   OH214946   6.730   3.815   3.354
 5002TIP3    H114947   6.822   3.800   3.378
 5002TIP3    H214948   6.715   3.907   3.376
 5003TIP3   OH214949   7.668   6.918   2.884
 5003TIP3    H114950   7.666   6.867   2.965
 5003TIP3    H214951   7.585   6.896   2.840
 5004TIP3   OH214952   2.428   5.132   2.776
 5004TIP3    H114953   2.430   5.122   2.681
 5004TIP3    H214954   2.350   5.183   2.793
 5005TIP3   OH214955   7.542   1.572   0.797
 5005TIP3    H114956   7.583   1.569   0.710
 5005TIP3    H214957   7.518   1.663   0.809
 5006TIP3   OH214958   8.358   3.194   1.103
 5006TIP3    H114959   8.385   3.102   1.106
 5006TIP3    H214960   8.277   3.197   1.153
 5007TIP3   OH214961   5.895   1.577   2.969
 5007TIP3    H114962   5.801   1.589   2.984
 5007TIP3    H214963   5.903   1.487   2.938
 5008TIP3   OH214964   1.736   4.222   1.952
 5008TIP3    H114965   1.756   4.134   1.919
 5008TIP3    H214966   1.648   4.240   1.919
 5009TIP3   OH214967   6.056   6.200   0.672
 5009TIP3    H114968   6.052   6.135   0.602
 5009TIP3    H214969   6.054   6.149   0.753
 5010TIP3   OH214970   7.427   4.118   1.225
 5010TIP3    H114971   7.388   4.045   1.274
 5010TIP3    H214972   7.356   4.149   1.168
 5011TIP3   OH214973   2.705   0.222   1.055
 5011TIP3    H114974   2.722   0.295   0.996
 5011TIP3    H214975   2.688   0.148   0.996
 5012TIP3   OH214976   7.031   1.913   0.086
 5012TIP3    H114977   6.965   1.869   0.032
 5012TIP3    H214978   7.094   1.949   0.023
 5013TIP3   OH214979   1.617   3.854   6.769
 5013TIP3    H114980   1.659   3.870   6.685
 5013TIP3    H214981   1.626   3.760   6.783
 5014TIP3   OH214982   1.452   4.346   1.420
 5014TIP3    H114983   1.383   4.412   1.411
 5014TIP3    H214984   1.532   4.392   1.393
 5015TIP3   OH214985   1.978   5.415   5.463
 5015TIP3    H114986   2.054   5.414   5.406
 5015TIP3    H214987   2.001   5.358   5.536
 5016TIP3   OH214988   6.700   3.884   5.040
 5016TIP3    H114989   6.747   3.812   4.997
 5016TIP3    H214990   6.617   3.890   4.993
 5017TIP3   OH214991   5.940   1.810   6.148
 5017TIP3    H114992   5.918   1.740   6.210
 5017TIP3    H214993   5.871   1.875   6.160
 5018TIP3   OH214994   7.453   2.856   6.108
 5018TIP3    H114995   7.398   2.797   6.160
 5018TIP3    H214996   7.539   2.853   6.151
 5019TIP3   OH214997   0.218   2.590   5.812
 5019TIP3    H114998   0.296   2.613   5.862
 5019TIP3    H214999   0.154   2.561   5.877
 5020TIP3   OH215000   2.373   0.675   2.117
 5020TIP3    H115001   2.407   0.586   2.120
 5020TIP3    H215002   2.439   0.728   2.163
 5021TIP3   OH215003   0.674   3.924   3.992
 5021TIP3    H115004   0.581   3.905   4.004
 5021TIP3    H215005   0.718   3.867   4.055
 5022TIP3   OH215006   2.646   2.738   4.073
 5022TIP3    H115007   2.620   2.649   4.051
 5022TIP3    H215008   2.737   2.745   4.045
 5023TIP3   OH215009   3.825   3.045   4.560
 5023TIP3    H115010   3.807   3.137   4.576
 5023TIP3    H215011   3.919   3.042   4.541
 5024TIP3   OH215012   1.936   6.132   1.833
 5024TIP3    H115013   1.925   6.175   1.749
 5024TIP3    H215014   1.891   6.048   1.823
 5025TIP3   OH215015   0.059   1.147   4.740
 5025TIP3    H115016   0.128   1.206   4.772
 5025TIP3    H215017  -0.022   1.198   4.749
 5026TIP3   OH215018   5.167   4.997   3.002
 5026TIP3    H115019   5.167   4.903   2.986
 5026TIP3    H215020   5.076   5.024   2.988
 5027TIP3   OH215021   4.132   4.716   1.433
 5027TIP3    H115022   4.148   4.803   1.397
 5027TIP3    H215023   4.051   4.727   1.484
 5028TIP3   OH215024   5.418   3.549   4.612
 5028TIP3    H115025   5.478   3.624   4.606
 5028TIP3    H215026   5.475   3.473   4.619
 5029TIP3   OH215027   6.659   5.206   5.902
 5029TIP3    H115028   6.579   5.255   5.884
 5029TIP3    H215029   6.666   5.204   5.998
 5030TIP3   OH215030   2.327   6.903   1.193
 5030TIP3    H115031   2.343   6.814   1.225
 5030TIP3    H215032   2.370   6.905   1.107
 5031TIP3   OH215033   8.085   5.150   0.076
 5031TIP3    H115034   8.159   5.113   0.124
 5031TIP3    H215035   8.093   5.113  -0.012
 5032TIP3   OH215036   0.878   6.792   6.026
 5032TIP3    H115037   0.943   6.852   5.992
 5032TIP3    H215038   0.883   6.715   5.970
 5033TIP3   OH215039   1.714   3.743   0.123
 5033TIP3    H115040   1.627   3.704   0.131
 5033TIP3    H215041   1.754   3.728   0.209
 5034TIP3   OH215042   6.429   1.914   1.261
 5034TIP3    H115043   6.490   1.936   1.191
 5034TIP3    H215044   6.465   1.834   1.300
 5035TIP3   OH215045   5.276   4.843   0.500
 5035TIP3    H115046   5.328   4.777   0.454
 5035TIP3    H215047   5.248   4.904   0.432
 5036TIP3   OH215048   2.510   7.095   2.702
 5036TIP3    H115049   2.490   7.007   2.670
 5036TIP3    H215050   2.426   7.140   2.702
 5037TIP3   OH215051   4.299   3.148   6.146
 5037TIP3    H115052   4.301   3.077   6.082
 5037TIP3    H215053   4.319   3.105   6.230
 5038TIP3   OH215054   1.971   5.847   0.308
 5038TIP3    H115055   1.944   5.903   0.381
 5038TIP3    H215056   2.002   5.908   0.241
 5039TIP3   OH215057   1.642   4.306   3.489
 5039TIP3    H115058   1.722   4.314   3.438
 5039TIP3    H215059   1.632   4.211   3.501
 5040TIP3   OH215060   6.825   1.468   4.628
 5040TIP3    H115061   6.817   1.458   4.533
 5040TIP3    H215062   6.910   1.429   4.649
 5041TIP3   OH215063   2.617   5.872   5.846
 5041TIP3    H115064   2.706   5.874   5.881
 5041TIP3    H215065   2.563   5.843   5.919
 5042TIP3   OH215066   2.044   6.367   3.716
 5042TIP3    H115067   2.054   6.397   3.625
 5042TIP3    H215068   1.993   6.436   3.758
 5043TIP3   OH215069   7.070   0.593   4.704
 5043TIP3    H115070   7.040   0.670   4.752
 5043TIP3    H215071   7.165   0.590   4.719
 5044TIP3   OH215072   0.136   4.783   0.029
 5044TIP3    H115073   0.165   4.855   0.085
 5044TIP3    H215074   0.115   4.712   0.090
 5045TIP3   OH215075   7.818   3.105   6.275
 5045TIP3    H115076   7.807   3.168   6.346
 5045TIP3    H215077   7.876   3.038   6.312
 5046TIP3   OH215078   2.767   7.548   2.977
 5046TIP3    H115079   2.690   7.499   2.949
 5046TIP3    H215080   2.748   7.571   3.069
 5047TIP3   OH215081   2.991   0.843   2.272
 5047TIP3    H115082   2.949   0.875   2.352
 5047TIP3    H215083   2.924   0.855   2.204
 5048TIP3   OH215084   2.096   1.585   6.810
 5048TIP3    H115085   2.005   1.583   6.839
 5048TIP3    H215086   2.098   1.654   6.743
 5049TIP3   OH215087   0.922   3.476   4.451
 5049TIP3    H115088   0.854   3.540   4.429
 5049TIP3    H215089   0.956   3.448   4.366
 5050TIP3   OH215090   6.245   4.794   3.448
 5050TIP3    H115091   6.247   4.750   3.532
 5050TIP3    H215092   6.263   4.886   3.468
 5051TIP3   OH215093   1.875   4.306   0.943
 5051TIP3    H115094   1.811   4.334   1.008
 5051TIP3    H215095   1.933   4.246   0.991
 5052TIP3   OH215096   2.842   7.656   3.273
 5052TIP3    H115097   2.835   7.694   3.361
 5052TIP3    H215098   2.903   7.713   3.227
 5053TIP3   OH215099   3.710   7.500   1.080
 5053TIP3    H115100   3.668   7.557   1.144
 5053TIP3    H215101   3.799   7.534   1.072
 5054TIP3   OH215102   7.976   7.808   1.566
 5054TIP3    H115103   7.992   7.848   1.652
 5054TIP3    H215104   7.881   7.802   1.560
 5055TIP3   OH215105   0.673   6.688   1.900
 5055TIP3    H115106   0.628   6.635   1.966
 5055TIP3    H215107   0.608   6.752   1.872
 5056TIP3   OH215108   5.330   5.881   2.501
 5056TIP3    H115109   5.398   5.819   2.528
 5056TIP3    H215110   5.372   5.936   2.435
 5057TIP3   OH215111   7.280   1.986   1.850
 5057TIP3    H115112   7.290   1.946   1.764
 5057TIP3    H215113   7.196   2.031   1.846
 5058TIP3   OH215114   8.232   5.010   0.572
 5058TIP3    H115115   8.187   5.086   0.536
 5058TIP3    H215116   8.280   5.044   0.648
 5059TIP3   OH215117   6.563   4.683   0.864
 5059TIP3    H115118   6.635   4.713   0.921
 5059TIP3    H215119   6.503   4.757   0.861
 5060TIP3   OH215120   1.764   0.830   0.367
 5060TIP3    H115121   1.764   0.915   0.411
 5060TIP3    H215122   1.793   0.769   0.434
 5061TIP3   OH215123   3.777   7.106   6.169
 5061TIP3    H115124   3.814   7.166   6.104
 5061TIP3    H215125   3.849   7.088   6.229
 5062TIP3   OH215126   1.935   3.685   5.286
 5062TIP3    H115127   1.989   3.675   5.208
 5062TIP3    H215128   1.993   3.659   5.358
 5063TIP3   OH215129   4.118   6.695   3.783
 5063TIP3    H115130   4.168   6.761   3.734
 5063TIP3    H215131   4.077   6.642   3.715
 5064TIP3   OH215132   2.742   0.323   4.304
 5064TIP3    H115133   2.682   0.333   4.229
 5064TIP3    H215134   2.749   0.410   4.342
 5065TIP3   OH215135   0.354   2.783   3.195
 5065TIP3    H115136   0.353   2.702   3.245
 5065TIP3    H215137   0.265   2.817   3.202
 5066TIP3   OH215138   7.104   6.220   5.722
 5066TIP3    H115139   7.049   6.268   5.783
 5066TIP3    H215140   7.043   6.184   5.657
 5067TIP3   OH215141   0.280   6.165   6.637
 5067TIP3    H115142   0.268   6.172   6.731
 5067TIP3    H215143   0.270   6.254   6.605
 5068TIP3   OH215144   7.286   2.199   5.331
 5068TIP3    H115145   7.368   2.151   5.319
 5068TIP3    H215146   7.262   2.228   5.243
 5069TIP3   OH215147   1.800   1.321   2.712
 5069TIP3    H115148   1.840   1.386   2.770
 5069TIP3    H215149   1.729   1.369   2.669
 5070TIP3   OH215150   4.439   7.295   2.162
 5070TIP3    H115151   4.498   7.370   2.163
 5070TIP3    H215152   4.395   7.297   2.247
 5071TIP3   OH215153   5.673   1.167   1.309
 5071TIP3    H115154   5.709   1.152   1.396
 5071TIP3    H215155   5.665   1.080   1.270
 5072TIP3   OH215156   1.903   2.603   1.919
 5072TIP3    H115157   1.810   2.591   1.898
 5072TIP3    H215158   1.942   2.518   1.904
 5073TIP3   OH215159   2.483   6.670   5.675
 5073TIP3    H115160   2.389   6.658   5.660
 5073TIP3    H215161   2.518   6.693   5.589
 5074TIP3   OH215162   1.082   7.485   1.204
 5074TIP3    H115163   1.045   7.400   1.180
 5074TIP3    H215164   1.176   7.469   1.213
 5075TIP3   OH215165   4.850   4.114   0.520
 5075TIP3    H115166   4.803   4.153   0.446
 5075TIP3    H215167   4.930   4.079   0.481
 5076TIP3   OH215168   2.896   3.527   0.074
 5076TIP3    H115169   2.806   3.497   0.085
 5076TIP3    H215170   2.888   3.617   0.045
 5077TIP3   OH215171   0.440   4.253   0.829
 5077TIP3    H115172   0.517   4.214   0.872
 5077TIP3    H215173   0.394   4.298   0.899
 5078TIP3   OH215174   0.694   1.225   2.900
 5078TIP3    H115175   0.691   1.276   2.981
 5078TIP3    H215176   0.759   1.157   2.916
 5079TIP3   OH215177   6.696   2.824   1.874
 5079TIP3    H115178   6.691   2.885   1.947
 5079TIP3    H215179   6.777   2.846   1.829
 5080TIP3   OH215180   1.698   0.180   2.765
 5080TIP3    H115181   1.691   0.219   2.678
 5080TIP3    H215182   1.664   0.091   2.754
 5081TIP3   OH215183   6.777   1.375   1.920
 5081TIP3    H115184   6.781   1.301   1.860
 5081TIP3    H215185   6.753   1.337   2.004
 5082TIP3   OH215186   3.148   6.069   2.928
 5082TIP3    H115187   3.166   5.999   2.864
 5082TIP3    H215188   3.192   6.146   2.892
 5083TIP3   OH215189   2.966   5.854   0.049
 5083TIP3    H115190   2.871   5.861   0.053
 5083TIP3    H215191   2.993   5.924  -0.011
 5084TIP3   OH215192   3.788   3.760   3.513
 5084TIP3    H115193   3.699   3.730   3.528
 5084TIP3    H215194   3.779   3.854   3.495
 5085TIP3   OH215195   1.814   1.242   3.980
 5085TIP3    H115196   1.812   1.311   3.914
 5085TIP3    H215197   1.907   1.227   3.997
 5086TIP3   OH215198   3.997   3.247   2.608
 5086TIP3    H115199   4.034   3.331   2.634
 5086TIP3    H215200   3.929   3.229   2.674
 5087TIP3   OH215201   6.911   6.835   0.158
 5087TIP3    H115202   6.999   6.814   0.191
 5087TIP3    H215203   6.877   6.751   0.127
 5088TIP3   OH215204   1.600   4.520   0.592
 5088TIP3    H115205   1.540   4.575   0.641
 5088TIP3    H215206   1.624   4.450   0.653
 5089TIP3   OH215207   0.573   7.279   2.975
 5089TIP3    H115208   0.580   7.326   2.892
 5089TIP3    H215209   0.499   7.219   2.963
 5090TIP3   OH215210   7.014   1.047   2.105
 5090TIP3    H115211   7.104   1.058   2.076
 5090TIP3    H215212   7.006   1.106   2.180
 5091TIP3   OH215213   4.819   3.599   5.411
 5091TIP3    H115214   4.872   3.627   5.486
 5091TIP3    H215215   4.858   3.644   5.336
 5092TIP3   OH215216   6.240   7.240   5.959
 5092TIP3    H115217   6.153   7.219   5.925
 5092TIP3    H215218   6.250   7.334   5.946
 5093TIP3   OH215219   8.315   1.373   5.334
 5093TIP3    H115220   8.403   1.345   5.358
 5093TIP3    H215221   8.279   1.412   5.415
 5094TIP3   OH215222   0.820   6.857   5.459
 5094TIP3    H115223   0.739   6.844   5.410
 5094TIP3    H215224   0.884   6.887   5.394
 5095TIP3   OH215225   2.257   0.584   6.767
 5095TIP3    H115226   2.299   0.669   6.754
 5095TIP3    H215227   2.176   0.590   6.716
 5096TIP3   OH215228   1.375   3.718   6.152
 5096TIP3    H115229   1.400   3.786   6.089
 5096TIP3    H215230   1.443   3.651   6.143
 5097TIP3   OH215231   1.144   1.297   2.633
 5097TIP3    H115232   1.105   1.242   2.564
 5097TIP3    H215233   1.216   1.342   2.589
 5098TIP3   OH215234   6.230   4.190   6.171
 5098TIP3    H115235   6.138   4.208   6.156
 5098TIP3    H215236   6.276   4.268   6.139
 5099TIP3   OH215237   6.887   4.454   4.610
 5099TIP3    H115238   6.955   4.393   4.637
 5099TIP3    H215239   6.901   4.531   4.664
 5100TIP3   OH215240   1.554   3.307   0.579
 5100TIP3    H115241   1.475   3.362   0.582
 5100TIP3    H215242   1.565   3.285   0.486
 5101TIP3   OH215243   0.997   3.487   5.192
 5101TIP3    H115244   1.090   3.473   5.174
 5101TIP3    H215245   0.996   3.536   5.275
 5102TIP3   OH215246   4.039   1.275   2.662
 5102TIP3    H115247   4.098   1.215   2.616
 5102TIP3    H215248   4.058   1.261   2.755
 5103TIP3   OH215249   7.461   6.010   5.997
 5103TIP3    H115250   7.370   6.009   5.969
 5103TIP3    H215251   7.487   6.102   5.991
 5104TIP3   OH215252   7.092   1.490   2.548
 5104TIP3    H115253   7.015   1.530   2.588
 5104TIP3    H215254   7.103   1.537   2.465
 5105TIP3   OH215255   2.958   6.176   1.235
 5105TIP3    H115256   2.893   6.177   1.165
 5105TIP3    H215257   3.032   6.128   1.199
 5106TIP3   OH215258   6.586   3.012   3.874
 5106TIP3    H115259   6.517   3.014   3.939
 5106TIP3    H215260   6.667   3.024   3.924
 5107TIP3   OH215261   8.027   3.634   0.517
 5107TIP3    H115262   7.956   3.570   0.514
 5107TIP3    H215263   7.986   3.714   0.549
 5108TIP3   OH215264   5.175   4.397   3.525
 5108TIP3    H115265   5.266   4.424   3.512
 5108TIP3    H215266   5.136   4.469   3.575
 5109TIP3   OH215267   8.008   4.710   1.038
 5109TIP3    H115268   7.927   4.740   1.079
 5109TIP3    H215269   8.076   4.728   1.103
 5110TIP3   OH215270   5.515   2.130   1.792
 5110TIP3    H115271   5.506   2.059   1.729
 5110TIP3    H215272   5.448   2.113   1.858
 5111TIP3   OH215273   1.953   0.235   1.869
 5111TIP3    H115274   2.029   0.280   1.831
 5111TIP3    H215275   1.991   0.161   1.917
 5112TIP3   OH215276   6.164   4.392   2.128
 5112TIP3    H115277   6.077   4.373   2.093
 5112TIP3    H215278   6.155   4.376   2.222
 5113TIP3   OH215279   5.021   4.522   4.990
 5113TIP3    H115280   5.101   4.551   5.033
 5113TIP3    H215281   4.965   4.599   4.989
 5114TIP3   OH215282   3.763   4.058   5.346
 5114TIP3    H115283   3.790   4.125   5.410
 5114TIP3    H215284   3.756   3.978   5.398
 5115TIP3   OH215285   1.606   3.629   1.850
 5115TIP3    H115286   1.580   3.560   1.790
 5115TIP3    H215287   1.536   3.695   1.843
 5116TIP3   OH215288   8.068   5.195   0.445
 5116TIP3    H115289   8.045   5.281   0.409
 5116TIP3    H215290   8.032   5.133   0.382
 5117TIP3   OH215291   3.185   6.438   2.319
 5117TIP3    H115292   3.273   6.403   2.315
 5117TIP3    H215293   3.175   6.469   2.409
 5118TIP3   OH215294   7.731   1.028   2.718
 5118TIP3    H115295   7.816   1.069   2.738
 5118TIP3    H215296   7.668   1.080   2.768
 5119TIP3   OH215297   1.205   7.699   2.356
 5119TIP3    H115298   1.124   7.653   2.332
 5119TIP3    H215299   1.184   7.792   2.343
 5120TIP3   OH215300   2.764   6.799   6.629
 5120TIP3    H115301   2.732   6.773   6.715
 5120TIP3    H215302   2.756   6.720   6.575
 5121TIP3   OH215303   6.913   7.770   4.501
 5121TIP3    H115304   6.968   7.848   4.517
 5121TIP3    H215305   6.855   7.796   4.430
 5122TIP3   OH215306   1.608   1.774   5.955
 5122TIP3    H115307   1.606   1.863   5.989
 5122TIP3    H215308   1.659   1.725   6.020
 5123TIP3   OH215309   7.323   0.182   6.430
 5123TIP3    H115310   7.416   0.201   6.445
 5123TIP3    H215311   7.306   0.213   6.341
 5124TIP3   OH215312   7.363   4.408   5.464
 5124TIP3    H115313   7.368   4.460   5.544
 5124TIP3    H215314   7.398   4.323   5.488
 5125TIP3   OH215315   6.139   0.931   0.715
 5125TIP3    H115316   6.222   0.893   0.688
 5125TIP3    H215317   6.162   1.015   0.754
 5126TIP3   OH215318   6.934   6.472   1.119
 5126TIP3    H115319   6.938   6.567   1.114
 5126TIP3    H215320   6.922   6.443   1.028
 5127TIP3   OH215321   8.367   2.444   1.363
 5127TIP3    H115322   8.360   2.349   1.348
 5127TIP3    H215323   8.328   2.483   1.285
 5128TIP3   OH215324   6.910   0.073   3.695
 5128TIP3    H115325   6.971   0.056   3.623
 5128TIP3    H215326   6.857   0.146   3.663
 5129TIP3   OH215327   6.190   5.265   2.767
 5129TIP3    H115328   6.109   5.231   2.806
 5129TIP3    H215329   6.170   5.355   2.744
 5130TIP3   OH215330   0.673   4.728   2.741
 5130TIP3    H115331   0.637   4.654   2.789
 5130TIP3    H215332   0.741   4.764   2.798
 5131TIP3   OH215333   2.938   2.641   6.567
 5131TIP3    H115334   3.016   2.642   6.622
 5131TIP3    H215335   2.868   2.674   6.624
 5132TIP3   OH215336   1.443   3.885   0.952
 5132TIP3    H115337   1.456   3.898   1.045
 5132TIP3    H215338   1.374   3.947   0.928
 5133TIP3   OH215339   2.183   5.787   6.214
 5133TIP3    H115340   2.237   5.716   6.249
 5133TIP3    H215341   2.140   5.749   6.137
 5134TIP3   OH215342   4.402   5.705   0.888
 5134TIP3    H115343   4.463   5.631   0.892
 5134TIP3    H215344   4.389   5.730   0.979
 5135TIP3   OH215345   1.466   3.748   1.487
 5135TIP3    H115346   1.402   3.680   1.507
 5135TIP3    H215347   1.514   3.714   1.411
 5136TIP3   OH215348   1.167   2.244   2.051
 5136TIP3    H115349   1.203   2.235   1.963
 5136TIP3    H215350   1.184   2.159   2.092
 5137TIP3   OH215351   0.063   5.217   2.790
 5137TIP3    H115352   0.131   5.273   2.751
 5137TIP3    H215353   0.053   5.145   2.727
 5138TIP3   OH215354   3.356   7.104   1.476
 5138TIP3    H115355   3.387   7.141   1.393
 5138TIP3    H215356   3.418   7.033   1.495
 5139TIP3   OH215357   0.563   5.324   0.689
 5139TIP3    H115358   0.622   5.266   0.643
 5139TIP3    H215359   0.484   5.272   0.705
 5140TIP3   OH215360   2.485   5.423   0.111
 5140TIP3    H115361   2.427   5.492   0.079
 5140TIP3    H215362   2.465   5.418   0.205
 5141TIP3   OH215363   3.546   4.363   5.124
 5141TIP3    H115364   3.618   4.365   5.188
 5141TIP3    H215365   3.584   4.322   5.046
 5142TIP3   OH215366   3.558   7.597   0.433
 5142TIP3    H115367   3.496   7.641   0.375
 5142TIP3    H215368   3.639   7.594   0.382
 5143TIP3   OH215369   8.079   7.726   2.471
 5143TIP3    H115370   8.010   7.708   2.535
 5143TIP3    H215371   8.034   7.723   2.386
 5144TIP3   OH215372   1.353   3.398   4.680
 5144TIP3    H115373   1.434   3.440   4.652
 5144TIP3    H215374   1.328   3.342   4.607
 5145TIP3   OH215375   4.770   7.853   2.928
 5145TIP3    H115376   4.795   7.891   3.012
 5145TIP3    H215377   4.848   7.860   2.874
 5146TIP3   OH215378   3.727   0.983   5.260
 5146TIP3    H115379   3.765   0.896   5.247
 5146TIP3    H215380   3.783   1.023   5.326
 5147TIP3   OH215381   0.927   3.926   4.754
 5147TIP3    H115382   0.891   3.946   4.841
 5147TIP3    H215383   1.010   3.973   4.751
 5148TIP3   OH215384   4.496   4.816   0.839
 5148TIP3    H115385   4.454   4.885   0.891
 5148TIP3    H215386   4.478   4.840   0.748
 5149TIP3   OH215387   6.642   7.865   2.125
 5149TIP3    H115388   6.551   7.847   2.103
 5149TIP3    H215389   6.662   7.947   2.080
 5150TIP3   OH215390   6.441   5.947   1.867
 5150TIP3    H115391   6.392   5.955   1.785
 5150TIP3    H215392   6.485   5.863   1.861
 5151TIP3   OH215393   6.753   4.038   4.490
 5151TIP3    H115394   6.792   4.011   4.407
 5151TIP3    H215395   6.695   4.111   4.467
 5152TIP3   OH215396   0.466   5.896   5.370
 5152TIP3    H115397   0.463   5.981   5.414
 5152TIP3    H215398   0.558   5.870   5.372
 5153TIP3   OH215399   5.033   4.531   1.722
 5153TIP3    H115400   4.993   4.514   1.808
 5153TIP3    H215401   5.112   4.476   1.721
 5154TIP3   OH215402   2.016   4.959   3.717
 5154TIP3    H115403   2.093   4.949   3.660
 5154TIP3    H215404   2.035   4.901   3.791
 5155TIP3   OH215405   8.037   6.303   5.528
 5155TIP3    H115406   8.061   6.389   5.493
 5155TIP3    H215407   7.971   6.322   5.595
 5156TIP3   OH215408   2.359   7.749   1.823
 5156TIP3    H115409   2.313   7.742   1.907
 5156TIP3    H215410   2.330   7.833   1.787
 5157TIP3   OH215411   6.040   7.244   2.301
 5157TIP3    H115412   6.103   7.310   2.272
 5157TIP3    H215413   5.962   7.293   2.325
 5158TIP3   OH215414   6.643   0.323   6.095
 5158TIP3    H115415   6.676   0.372   6.170
 5158TIP3    H215416   6.601   0.389   6.040
 5159TIP3   OH215417   4.536   1.441   6.659
 5159TIP3    H115418   4.493   1.369   6.612
 5159TIP3    H215419   4.582   1.398   6.732
 5160TIP3   OH215420   3.313   2.523   1.103
 5160TIP3    H115421   3.234   2.575   1.118
 5160TIP3    H215422   3.288   2.434   1.127
 5161TIP3   OH215423   0.630   4.136   0.566
 5161TIP3    H115424   0.664   4.050   0.592
 5161TIP3    H215425   0.557   4.116   0.508
 5162TIP3   OH215426   2.388   1.711   3.162
 5162TIP3    H115427   2.306   1.661   3.167
 5162TIP3    H215428   2.375   1.771   3.088
 5163TIP3   OH215429   2.711   7.019   2.056
 5163TIP3    H115430   2.734   7.112   2.046
 5163TIP3    H215431   2.763   6.989   2.131
 5164TIP3   OH215432   3.115   2.436   6.183
 5164TIP3    H115433   3.030   2.478   6.164
 5164TIP3    H215434   3.180   2.499   6.152
 5165TIP3   OH215435   7.485   0.506   5.567
 5165TIP3    H115436   7.427   0.558   5.512
 5165TIP3    H215437   7.429   0.434   5.598
 5166TIP3   OH215438   0.493   1.135   3.317
 5166TIP3    H115439   0.541   1.078   3.257
 5166TIP3    H215440   0.451   1.075   3.379
 5167TIP3   OH215441   4.577   1.940   0.037
 5167TIP3    H115442   4.669   1.924   0.014
 5167TIP3    H215443   4.562   1.887   0.115
 5168TIP3   OH215444   7.394   2.202   4.627
 5168TIP3    H115445   7.323   2.245   4.675
 5168TIP3    H215446   7.351   2.152   4.558
 5169TIP3   OH215447   2.768   1.279   1.423
 5169TIP3    H115448   2.819   1.246   1.496
 5169TIP3    H215449   2.810   1.362   1.399
 5170TIP3   OH215450   8.330   3.650   5.905
 5170TIP3    H115451   8.271   3.725   5.917
 5170TIP3    H215452   8.319   3.626   5.813
 5171TIP3   OH215453   6.236   7.740   4.930
 5171TIP3    H115454   6.191   7.661   4.959
 5171TIP3    H215455   6.324   7.711   4.908
 5172TIP3   OH215456   3.407   5.651   3.827
 5172TIP3    H115457   3.414   5.746   3.819
 5172TIP3    H215458   3.342   5.637   3.895
 5173TIP3   OH215459   3.683   7.382   2.621
 5173TIP3    H115460   3.623   7.454   2.639
 5173TIP3    H215461   3.739   7.378   2.699
 5174TIP3   OH215462   3.327   7.549   1.738
 5174TIP3    H115463   3.286   7.465   1.716
 5174TIP3    H215464   3.311   7.604   1.662
 5175TIP3   OH215465   1.526   4.009   4.360
 5175TIP3    H115466   1.475   4.032   4.282
 5175TIP3    H215467   1.616   4.003   4.328
 5176TIP3   OH215468   0.709   3.453   4.646
 5176TIP3    H115469   0.759   3.511   4.589
 5176TIP3    H215470   0.618   3.482   4.635
 5177TIP3   OH215471   7.094   6.476   2.513
 5177TIP3    H115472   7.145   6.532   2.572
 5177TIP3    H215473   7.158   6.416   2.476
 5178TIP3   OH215474   4.067   3.932   6.089
 5178TIP3    H115475   4.014   3.867   6.134
 5178TIP3    H215476   4.083   4.000   6.154
 5179TIP3   OH215477   6.886   3.346   3.138
 5179TIP3    H115478   6.854   3.290   3.208
 5179TIP3    H215479   6.854   3.305   3.058
 5180TIP3   OH215480   7.964   3.496   6.359
 5180TIP3    H115481   8.037   3.552   6.385
 5180TIP3    H215482   7.912   3.486   6.439
 5181TIP3   OH215483   8.305   0.634   0.333
 5181TIP3    H115484   8.303   0.722   0.372
 5181TIP3    H215485   8.213   0.611   0.321
 5182TIP3   OH215486   6.943   4.030   3.644
 5182TIP3    H115487   7.013   3.987   3.594
 5182TIP3    H215488   6.946   4.121   3.614
 5183TIP3   OH215489   3.041   1.240   3.449
 5183TIP3    H115490   2.954   1.201   3.450
 5183TIP3    H215491   3.035   1.308   3.381
 5184TIP3   OH215492   3.959   2.177   3.473
 5184TIP3    H115493   4.035   2.182   3.531
 5184TIP3    H215494   3.935   2.085   3.471
 5185TIP3   OH215495   5.652   3.631   1.778
 5185TIP3    H115496   5.692   3.628   1.691
 5185TIP3    H215497   5.564   3.666   1.763
 5186TIP3   OH215498   8.080   1.023   3.740
 5186TIP3    H115499   8.128   1.064   3.668
 5186TIP3    H215500   8.149   0.988   3.797
 5187TIP3   OH215501   6.531   0.654   2.145
 5187TIP3    H115502   6.495   0.705   2.072
 5187TIP3    H215503   6.626   0.661   2.135
 5188TIP3   OH215504   4.907   0.796   5.122
 5188TIP3    H115505   4.902   0.876   5.174
 5188TIP3    H215506   4.880   0.727   5.181
 5189TIP3   OH215507   3.968   5.566   1.539
 5189TIP3    H115508   3.964   5.540   1.632
 5189TIP3    H215509   4.054   5.605   1.529
 5190TIP3   OH215510  -0.018   4.468   2.803
 5190TIP3    H115511   0.008   4.423   2.883
 5190TIP3    H215512  -0.060   4.401   2.749
 5191TIP3   OH215513   5.738   7.404   4.414
 5191TIP3    H115514   5.768   7.366   4.497
 5191TIP3    H215515   5.809   7.462   4.387
 5192TIP3   OH215516   6.607   4.086   6.696
 5192TIP3    H115517   6.582   4.121   6.610
 5192TIP3    H215518   6.693   4.047   6.682
 5193TIP3   OH215519   0.702   6.036   4.772
 5193TIP3    H115520   0.754   6.011   4.696
 5193TIP3    H215521   0.763   6.030   4.846
 5194TIP3   OH215522   4.460   3.779   5.499
 5194TIP3    H115523   4.510   3.829   5.564
 5194TIP3    H215524   4.424   3.705   5.548
 5195TIP3   OH215525   3.851   2.090   6.844
 5195TIP3    H115526   3.895   2.021   6.795
 5195TIP3    H215527   3.907   2.105   6.920
 5196TIP3   OH215528   7.429   0.719   1.768
 5196TIP3    H115529   7.389   0.781   1.707
 5196TIP3    H215530   7.467   0.651   1.712
 5197TIP3   OH215531   2.848   2.946   0.779
 5197TIP3    H115532   2.941   2.956   0.799
 5197TIP3    H215533   2.809   3.030   0.803
 5198TIP3   OH215534   6.729   5.324   4.245
 5198TIP3    H115535   6.651   5.378   4.256
 5198TIP3    H215536   6.772   5.326   4.331
 5199TIP3   OH215537   6.238   7.817   0.168
 5199TIP3    H115538   6.193   7.804   0.252
 5199TIP3    H215539   6.331   7.815   0.190
 5200TIP3   OH215540   3.492   3.670   0.985
 5200TIP3    H115541   3.432   3.722   1.038
 5200TIP3    H215542   3.455   3.582   0.987
 5201TIP3   OH215543   4.284   6.890   0.531
 5201TIP3    H115544   4.356   6.863   0.589
 5201TIP3    H215545   4.206   6.852   0.571
 5202TIP3   OH215546   3.460   6.685   5.336
 5202TIP3    H115547   3.441   6.745   5.263
 5202TIP3    H215548   3.407   6.719   5.408
 5203TIP3   OH215549   0.694   3.486   0.850
 5203TIP3    H115550   0.712   3.505   0.942
 5203TIP3    H215551   0.635   3.411   0.852
 5204TIP3   OH215552   2.640   6.331   2.161
 5204TIP3    H115553   2.647   6.239   2.134
 5204TIP3    H215554   2.726   6.368   2.142
 5205TIP3   OH215555   2.305   5.881   5.807
 5205TIP3    H115556   2.294   5.796   5.850
 5205TIP3    H215557   2.400   5.890   5.797
 5206TIP3   OH215558   5.748   0.544   0.628
 5206TIP3    H115559   5.769   0.451   0.639
 5206TIP3    H215560   5.667   0.555   0.678
 5207TIP3   OH215561   7.506   1.459   3.110
 5207TIP3    H115562   7.423   1.507   3.103
 5207TIP3    H215563   7.486   1.384   3.166
 5208TIP3   OH215564   7.425   2.782   6.468
 5208TIP3    H115565   7.484   2.725   6.518
 5208TIP3    H215566   7.369   2.722   6.419
 5209TIP3   OH215567   5.314   3.330   6.750
 5209TIP3    H115568   5.275   3.244   6.732
 5209TIP3    H215569   5.401   3.325   6.711
 5210TIP3   OH215570   1.790   0.178   0.483
 5210TIP3    H115571   1.754   0.150   0.567
 5210TIP3    H215572   1.773   0.272   0.479
 5211TIP3   OH215573   7.377   6.449   3.138
 5211TIP3    H115574   7.409   6.389   3.070
 5211TIP3    H215575   7.419   6.532   3.119
 5212TIP3   OH215576   5.198   0.012   5.044
 5212TIP3    H115577   5.221   0.098   5.011
 5212TIP3    H215578   5.193   0.023   5.139
 5213TIP3   OH215579   6.159   4.735   4.686
 5213TIP3    H115580   6.173   4.826   4.660
 5213TIP3    H215581   6.064   4.723   4.681
 5214TIP3   OH215582   3.850   2.751   4.487
 5214TIP3    H115583   3.756   2.761   4.467
 5214TIP3    H215584   3.890   2.830   4.451
 5215TIP3   OH215585   1.368   7.850   1.642
 5215TIP3    H115586   1.351   7.816   1.554
 5215TIP3    H215587   1.289   7.897   1.665
 5216TIP3   OH215588   3.837   7.468   2.817
 5216TIP3    H115589   3.764   7.527   2.836
 5216TIP3    H215590   3.845   7.413   2.895
 5217TIP3   OH215591   4.821   5.540   5.144
 5217TIP3    H115592   4.855   5.488   5.217
 5217TIP3    H215593   4.863   5.626   5.154
 5218TIP3   OH215594   5.205   5.043   2.333
 5218TIP3    H115595   5.164   5.128   2.345
 5218TIP3    H215596   5.133   4.985   2.306
 5219TIP3   OH215597   2.906   4.508   6.522
 5219TIP3    H115598   2.974   4.469   6.466
 5219TIP3    H215599   2.934   4.489   6.611
 5220TIP3   OH215600   2.226   0.706   5.846
 5220TIP3    H115601   2.261   0.669   5.927
 5220TIP3    H215602   2.286   0.778   5.826
 5221TIP3   OH215603   6.321   7.416   0.589
 5221TIP3    H115604   6.293   7.485   0.649
 5221TIP3    H215605   6.239   7.374   0.562
 5222TIP3   OH215606   3.298   5.684   1.311
 5222TIP3    H115607   3.244   5.650   1.239
 5222TIP3    H215608   3.357   5.746   1.269
 5223TIP3   OH215609   7.507   3.082   1.043
 5223TIP3    H115610   7.449   3.157   1.051
 5223TIP3    H215611   7.530   3.058   1.133
 5224TIP3   OH215612   1.774   0.756   5.687
 5224TIP3    H115613   1.680   0.768   5.676
 5224TIP3    H215614   1.814   0.829   5.640
 5225TIP3   OH215615   5.065   5.690   4.495
 5225TIP3    H115616   5.068   5.637   4.575
 5225TIP3    H215617   5.149   5.672   4.452
 5226TIP3   OH215618   5.251   4.053   3.130
 5226TIP3    H115619   5.219   3.978   3.079
 5226TIP3    H215620   5.206   4.045   3.214
 5227TIP3   OH215621   3.815   4.439   3.388
 5227TIP3    H115622   3.863   4.515   3.356
 5227TIP3    H215623   3.750   4.475   3.448
 5228TIP3   OH215624   7.282   1.530   6.245
 5228TIP3    H115625   7.315   1.440   6.248
 5228TIP3    H215626   7.360   1.585   6.257
 5229TIP3   OH215627   6.130   1.508   5.009
 5229TIP3    H115628   6.097   1.577   5.066
 5229TIP3    H215629   6.138   1.432   5.066
 5230TIP3   OH215630   5.968   1.301   3.224
 5230TIP3    H115631   6.028   1.323   3.296
 5230TIP3    H215632   5.978   1.373   3.162
 5231TIP3   OH215633   7.923   7.213   2.403
 5231TIP3    H115634   7.979   7.285   2.433
 5231TIP3    H215635   7.864   7.197   2.477
 5232TIP3   OH215636   1.488   2.770   5.593
 5232TIP3    H115637   1.419   2.790   5.531
 5232TIP3    H215638   1.559   2.734   5.539
 5233TIP3   OH215639   7.063   5.527   6.247
 5233TIP3    H115640   7.136   5.539   6.308
 5233TIP3    H215641   6.985   5.526   6.303
 5234TIP3   OH215642   5.366   3.008   0.739
 5234TIP3    H115643   5.324   3.017   0.653
 5234TIP3    H215644   5.293   3.011   0.801
 5235TIP3   OH215645   6.252   2.622   6.350
 5235TIP3    H115646   6.275   2.542   6.301
 5235TIP3    H215647   6.185   2.593   6.412
 5236TIP3   OH215648   3.850   2.133   1.964
 5236TIP3    H115649   3.860   2.072   2.038
 5236TIP3    H215650   3.833   2.077   1.889
 5237TIP3   OH215651   5.077   7.199   2.777
 5237TIP3    H115652   5.143   7.139   2.743
 5237TIP3    H215653   5.064   7.263   2.707
 5238TIP3   OH215654   4.216   4.741   5.901
 5238TIP3    H115655   4.143   4.701   5.852
 5238TIP3    H215656   4.214   4.698   5.986
 5239TIP3   OH215657   3.376   5.130   6.639
 5239TIP3    H115658   3.377   5.075   6.718
 5239TIP3    H215659   3.286   5.161   6.633
 5240TIP3   OH215660   2.421   3.576   5.225
 5240TIP3    H115661   2.369   3.496   5.237
 5240TIP3    H215662   2.356   3.644   5.208
 5241TIP3   OH215663   2.883   6.160   2.637
 5241TIP3    H115664   2.818   6.107   2.591
 5241TIP3    H215665   2.961   6.156   2.582
 5242TIP3   OH215666   3.109   0.667   3.998
 5242TIP3    H115667   3.122   0.602   3.929
 5242TIP3    H215668   3.014   0.680   4.002
 5243TIP3   OH215669   2.650   2.376   6.705
 5243TIP3    H115670   2.733   2.332   6.724
 5243TIP3    H215671   2.655   2.398   6.612
 5244TIP3   OH215672   0.326   1.231   5.523
 5244TIP3    H115673   0.273   1.204   5.597
 5244TIP3    H215674   0.401   1.171   5.523
 5245TIP3   OH215675   6.792   5.257   0.690
 5245TIP3    H115676   6.841   5.283   0.612
 5245TIP3    H215677   6.838   5.180   0.723
 5246TIP3   OH215678   3.505   0.291   2.299
 5246TIP3    H115679   3.507   0.365   2.239
 5246TIP3    H215680   3.540   0.218   2.248
 5247TIP3   OH215681  -0.015   0.524   5.403
 5247TIP3    H115682   0.011   0.433   5.395
 5247TIP3    H215683   0.067   0.572   5.413
 5248TIP3   OH215684   4.085   4.064   4.526
 5248TIP3    H115685   4.086   4.033   4.436
 5248TIP3    H215686   3.997   4.042   4.558
 5249TIP3   OH215687   6.310   3.945   3.702
 5249TIP3    H115688   6.359   3.988   3.772
 5249TIP3    H215689   6.369   3.948   3.627
 5250TIP3   OH215690   4.579   4.977   3.969
 5250TIP3    H115691   4.656   4.937   4.009
 5250TIP3    H215692   4.505   4.938   4.014
 5251TIP3   OH215693   7.235   1.260   3.579
 5251TIP3    H115694   7.157   1.250   3.525
 5251TIP3    H215695   7.307   1.267   3.516
 5252TIP3   OH215696   0.966   1.416   1.869
 5252TIP3    H115697   0.978   1.438   1.777
 5252TIP3    H215698   0.871   1.411   1.881
 5253TIP3   OH215699   4.114   4.017   5.450
 5253TIP3    H115700   4.177   4.068   5.397
 5253TIP3    H215701   4.111   3.931   5.408
 5254TIP3   OH215702   3.855   3.598   5.850
 5254TIP3    H115703   3.935   3.556   5.819
 5254TIP3    H215704   3.868   3.691   5.832
 5255TIP3   OH215705   5.171   4.103   5.245
 5255TIP3    H115706   5.158   4.038   5.314
 5255TIP3    H215707   5.264   4.124   5.249
 5256TIP3   OH215708   1.754   0.850   6.152
 5256TIP3    H115709   1.841   0.838   6.115
 5256TIP3    H215710   1.694   0.812   6.087
 5257TIP3   OH215711   0.596   0.768   1.300
 5257TIP3    H115712   0.579   0.827   1.374
 5257TIP3    H215713   0.669   0.714   1.329
 5258TIP3   OH215714   0.034   6.344   5.353
 5258TIP3    H115715   0.025   6.285   5.428
 5258TIP3    H215716   0.079   6.421   5.388
 5259TIP3   OH215717   3.239   0.068   5.184
 5259TIP3    H115718   3.232   0.001   5.116
 5259TIP3    H215719   3.229   0.151   5.137
 5260TIP3   OH215720   3.582   4.009   4.052
 5260TIP3    H115721   3.644   4.065   4.004
 5260TIP3    H215722   3.630   3.979   4.129
 5261TIP3   OH215723   5.980   5.511   4.557
 5261TIP3    H115724   5.984   5.537   4.649
 5261TIP3    H215725   6.023   5.582   4.509
 5262TIP3   OH215726   3.701   5.179   5.757
 5262TIP3    H115727   3.697   5.086   5.736
 5262TIP3    H215728   3.624   5.217   5.713
 5263TIP3   OH215729   7.221   3.732   5.345
 5263TIP3    H115730   7.200   3.641   5.321
 5263TIP3    H215731   7.277   3.763   5.274
 5264TIP3   OH215732   8.203   0.848   3.396
 5264TIP3    H115733   8.262   0.779   3.365
 5264TIP3    H215734   8.203   0.914   3.326
 5265TIP3   OH215735   7.704   4.140   6.760
 5265TIP3    H115736   7.618   4.183   6.756
 5265TIP3    H215737   7.741   4.170   6.843
 5266TIP3   OH215738   5.227   1.214   1.114
 5266TIP3    H115739   5.206   1.307   1.108
 5266TIP3    H215740   5.320   1.209   1.095
 5267TIP3   OH215741   5.714   5.692   0.525
 5267TIP3    H115742   5.755   5.728   0.604
 5267TIP3    H215743   5.776   5.626   0.493
 5268TIP3   OH215744   0.737   2.565   1.076
 5268TIP3    H115745   0.804   2.632   1.067
 5268TIP3    H215746   0.748   2.531   1.164
 5269TIP3   OH215747   0.617   1.597   0.642
 5269TIP3    H115748   0.550   1.664   0.654
 5269TIP3    H215749   0.675   1.632   0.575
 5270TIP3   OH215750   1.077   5.830   4.567
 5270TIP3    H115751   1.113   5.795   4.648
 5270TIP3    H215752   1.104   5.922   4.566
 5271TIP3   OH215753   5.042   3.006   6.358
 5271TIP3    H115754   4.992   3.007   6.440
 5271TIP3    H215755   4.976   3.004   6.289
 5272TIP3   OH215756   3.232   4.790   1.257
 5272TIP3    H115757   3.226   4.884   1.241
 5272TIP3    H215758   3.255   4.782   1.350
 5273TIP3   OH215759   6.764   2.673   6.281
 5273TIP3    H115760   6.762   2.591   6.232
 5273TIP3    H215761   6.684   2.718   6.256
 5274TIP3   OH215762   3.059   0.140   3.381
 5274TIP3    H115763   3.145   0.110   3.411
 5274TIP3    H215764   2.997   0.098   3.442
 5275TIP3   OH215765   5.231   6.170   2.134
 5275TIP3    H115766   5.298   6.215   2.083
 5275TIP3    H215767   5.173   6.240   2.165
 5276TIP3   OH215768   2.058   5.225   3.966
 5276TIP3    H115769   2.134   5.182   3.927
 5276TIP3    H215770   2.083   5.239   4.057
 5277TIP3   OH215771   4.046   2.620   3.671
 5277TIP3    H115772   4.027   2.711   3.650
 5277TIP3    H215773   3.990   2.569   3.613
 5278TIP3   OH215774   4.787   2.636   2.950
 5278TIP3    H115775   4.764   2.563   2.893
 5278TIP3    H215776   4.748   2.614   3.035
 5279TIP3   OH215777   5.055   3.822   1.829
 5279TIP3    H115778   5.090   3.754   1.887
 5279TIP3    H215779   4.965   3.835   1.859
 5280TIP3   OH215780   3.721   1.536   6.112
 5280TIP3    H115781   3.682   1.585   6.040
 5280TIP3    H215782   3.693   1.581   6.191
 5281TIP3   OH215783   8.165   4.731   5.785
 5281TIP3    H115784   8.163   4.652   5.730
 5281TIP3    H215785   8.128   4.800   5.729
 5282TIP3   OH215786   4.897   4.855   4.380
 5282TIP3    H115787   4.971   4.910   4.355
 5282TIP3    H215788   4.933   4.795   4.446
 5283TIP3   OH215789   7.316   2.977   2.437
 5283TIP3    H115790   7.382   2.997   2.503
 5283TIP3    H215791   7.367   2.953   2.359
 5284TIP3   OH215792   3.000   0.679   2.788
 5284TIP3    H115793   2.909   0.700   2.768
 5284TIP3    H215794   3.035   0.644   2.706
 5285TIP3   OH215795   6.767   0.014   2.154
 5285TIP3    H115796   6.857  -0.016   2.145
 5285TIP3    H215797   6.774   0.099   2.199
 5286TIP3   OH215798   1.296   1.010   0.832
 5286TIP3    H115799   1.308   1.098   0.868
 5286TIP3    H215800   1.203   0.991   0.845
 5287TIP3   OH215801   7.196   5.410   2.788
 5287TIP3    H115802   7.216   5.391   2.880
 5287TIP3    H215803   7.238   5.494   2.771
 5288TIP3   OH215804   5.898   2.778   2.021
 5288TIP3    H115805   5.863   2.723   2.092
 5288TIP3    H215806   5.820   2.809   1.975
 5289TIP3   OH215807   1.706   6.831   0.133
 5289TIP3    H115808   1.627   6.777   0.126
 5289TIP3    H215809   1.708   6.881   0.052
 5290TIP3   OH215810   6.528   2.017   3.086
 5290TIP3    H115811   6.576   2.063   3.017
 5290TIP3    H215812   6.475   2.085   3.127
 5291TIP3   OH215813   1.158   2.385   3.898
 5291TIP3    H115814   1.112   2.465   3.871
 5291TIP3    H215815   1.211   2.413   3.974
 5292TIP3   OH215816   0.504   6.884   1.843
 5292TIP3    H115817   0.472   6.953   1.784
 5292TIP3    H215818   0.424   6.851   1.884
 5293TIP3   OH215819   6.918   3.517   2.852
 5293TIP3    H115820   6.911   3.521   2.757
 5293TIP3    H215821   6.849   3.575   2.884
 5294TIP3   OH215822   7.548   7.776   4.476
 5294TIP3    H115823   7.592   7.860   4.458
 5294TIP3    H215824   7.552   7.730   4.392
 5295TIP3   OH215825   3.480   0.846   4.788
 5295TIP3    H115826   3.488   0.805   4.874
 5295TIP3    H215827   3.397   0.895   4.793
 5296TIP3   OH215828   4.449   6.472   6.338
 5296TIP3    H115829   4.428   6.419   6.415
 5296TIP3    H215830   4.381   6.450   6.274
 5297TIP3   OH215831   8.236   7.141   0.888
 5297TIP3    H115832   8.233   7.120   0.981
 5297TIP3    H215833   8.312   7.093   0.854
 5298TIP3   OH215834   4.276   0.056   6.583
 5298TIP3    H115835   4.187   0.078   6.554
 5298TIP3    H215836   4.310   0.137   6.621
 5299TIP3   OH215837   4.039   2.874   5.248
 5299TIP3    H115838   4.066   2.834   5.165
 5299TIP3    H215839   4.075   2.963   5.244
 5300TIP3   OH215840   3.190   7.714   0.922
 5300TIP3    H115841   3.275   7.713   0.966
 5300TIP3    H215842   3.128   7.745   0.989
 5301TIP3   OH215843   4.841   7.113   2.507
 5301TIP3    H115844   4.910   7.047   2.494
 5301TIP3    H215845   4.888   7.190   2.539
 5302TIP3   OH215846   2.411   1.991   3.295
 5302TIP3    H115847   2.431   2.020   3.384
 5302TIP3    H215848   2.434   1.898   3.295
 5303TIP3   OH215849   7.243   5.942   2.670
 5303TIP3    H115850   7.278   5.971   2.754
 5303TIP3    H215851   7.151   5.968   2.672
 5304TIP3   OH215852   4.141   6.580   5.294
 5304TIP3    H115853   4.222   6.531   5.278
 5304TIP3    H215854   4.116   6.557   5.383
 5305TIP3   OH215855   8.280   7.108   2.402
 5305TIP3    H115856   8.216   7.157   2.350
 5305TIP3    H215857   8.363   7.122   2.357
 5306TIP3   OH215858   5.173   0.912   2.594
 5306TIP3    H115859   5.214   0.946   2.673
 5306TIP3    H215860   5.243   0.862   2.550
 5307TIP3   OH215861   3.841   7.763   1.583
 5307TIP3    H115862   3.866   7.706   1.656
 5307TIP3    H215863   3.855   7.709   1.505
 5308TIP3   OH215864   1.340   1.671   1.694
 5308TIP3    H115865   1.246   1.676   1.678
 5308TIP3    H215866   1.380   1.699   1.612
 5309TIP3   OH215867   3.112   2.907   3.832
 5309TIP3    H115868   3.150   2.992   3.856
 5309TIP3    H215869   3.018   2.920   3.838
 5310TIP3   OH215870   5.402   2.092   1.441
 5310TIP3    H115871   5.486   2.117   1.403
 5310TIP3    H215872   5.346   2.168   1.427
 5311TIP3   OH215873   2.902   0.680   0.729
 5311TIP3    H115874   2.838   0.734   0.775
 5311TIP3    H215875   2.986   0.702   0.769
 5312TIP3   OH215876   3.758   3.988   1.538
 5312TIP3    H115877   3.748   3.903   1.496
 5312TIP3    H215878   3.850   4.011   1.526
 5313TIP3   OH215879   5.109   7.303   1.804
 5313TIP3    H115880   5.060   7.371   1.758
 5313TIP3    H215881   5.086   7.314   1.896
 5314TIP3   OH215882   3.212   5.527   5.517
 5314TIP3    H115883   3.232   5.578   5.439
 5314TIP3    H215884   3.247   5.580   5.589
 5315TIP3   OH215885   0.073   0.580   4.471
 5315TIP3    H115886   0.044   0.546   4.387
 5315TIP3    H215887   0.058   0.675   4.466
 5316TIP3   OH215888   0.923   0.094   5.500
 5316TIP3    H115889   0.854   0.037   5.532
 5316TIP3    H215890   0.939   0.064   5.410
 5317TIP3   OH215891   8.384   3.760   3.192
 5317TIP3    H115892   8.440   3.821   3.239
 5317TIP3    H215893   8.296   3.798   3.199
 5318TIP3   OH215894   6.103   2.829   0.248
 5318TIP3    H115895   6.193   2.834   0.280
 5318TIP3    H215896   6.062   2.910   0.280
 5319TIP3   OH215897   3.701   1.799   6.677
 5319TIP3    H115898   3.687   1.713   6.717
 5319TIP3    H215899   3.616   1.821   6.638
 5320TIP3   OH215900   7.299   3.290   2.613
 5320TIP3    H115901   7.355   3.305   2.537
 5320TIP3    H215902   7.218   3.336   2.593
 5321TIP3   OH215903   5.292   0.924   2.029
 5321TIP3    H115904   5.266   0.988   1.963
 5321TIP3    H215905   5.329   0.976   2.100
 5322TIP3   OH215906   0.407   1.784   2.155
 5322TIP3    H115907   0.391   1.795   2.249
 5322TIP3    H215908   0.408   1.689   2.143
 5323TIP3   OH215909   3.547   7.118   1.725
 5323TIP3    H115910   3.509   7.187   1.780
 5323TIP3    H215911   3.516   7.036   1.763
 5324TIP3   OH215912   5.507   3.177   5.825
 5324TIP3    H115913   5.431   3.120   5.822
 5324TIP3    H215914   5.474   3.260   5.861
 5325TIP3   OH215915   3.144   1.973   5.026
 5325TIP3    H115916   3.152   1.937   5.115
 5325TIP3    H215917   3.209   1.926   4.975
 5326TIP3   OH215918   2.909   7.764   6.529
 5326TIP3    H115919   2.877   7.782   6.441
 5326TIP3    H215920   2.991   7.716   6.516
 5327TIP3   OH215921   4.046   6.185   6.703
 5327TIP3    H115922   4.050   6.269   6.749
 5327TIP3    H215923   3.996   6.128   6.762
 5328TIP3   OH215924   5.090   4.969   0.300
 5328TIP3    H115925   5.089   4.880   0.264
 5328TIP3    H215926   5.035   5.019   0.240
 5329TIP3   OH215927   2.195   1.526   0.474
 5329TIP3    H115928   2.276   1.573   0.456
 5329TIP3    H215929   2.223   1.437   0.496
 5330TIP3   OH215930   7.062   1.295   5.337
 5330TIP3    H115931   6.968   1.277   5.334
 5330TIP3    H215932   7.087   1.302   5.244
 5331TIP3   OH215933   8.283   7.713   1.615
 5331TIP3    H115934   8.266   7.777   1.683
 5331TIP3    H215935   8.198   7.698   1.574
 5332TIP3   OH215936   5.220   5.617   5.084
 5332TIP3    H115937   5.226   5.525   5.056
 5332TIP3    H215938   5.310   5.648   5.085
 5333TIP3   OH215939   4.482   5.717   1.872
 5333TIP3    H115940   4.542   5.723   1.946
 5333TIP3    H215941   4.538   5.701   1.796
 5334TIP3   OH215942   1.182   2.765   0.593
 5334TIP3    H115943   1.113   2.729   0.537
 5334TIP3    H215944   1.252   2.789   0.533
 5335TIP3   OH215945   7.716   1.557   3.650
 5335TIP3    H115946   7.734   1.628   3.711
 5335TIP3    H215947   7.763   1.482   3.686
 5336TIP3   OH215948   5.981   2.045   1.161
 5336TIP3    H115949   5.971   2.122   1.105
 5336TIP3    H215950   5.993   2.081   1.249
 5337TIP3   OH215951   7.101   1.930   4.197
 5337TIP3    H115952   7.173   1.970   4.148
 5337TIP3    H215953   7.043   1.894   4.130
 5338TIP3   OH215954   0.676   4.803   3.096
 5338TIP3    H115955   0.711   4.841   3.016
 5338TIP3    H215956   0.581   4.798   3.081
 5339TIP3   OH215957   6.007   7.343   4.076
 5339TIP3    H115958   5.990   7.252   4.102
 5339TIP3    H215959   6.092   7.364   4.115
 5340TIP3   OH215960   1.601   5.401   6.122
 5340TIP3    H115961   1.621   5.495   6.123
 5340TIP3    H215962   1.558   5.386   6.038
 5341TIP3   OH215963   8.349   7.745   2.462
 5341TIP3    H115964   8.318   7.661   2.427
 5341TIP3    H215965   8.269   7.793   2.482
 5342TIP3   OH215966   5.498   4.981   3.245
 5342TIP3    H115967   5.474   4.914   3.181
 5342TIP3    H215968   5.478   4.941   3.330
 5343TIP3   OH215969   3.684   6.975   2.223
 5343TIP3    H115970   3.659   7.047   2.164
 5343TIP3    H215971   3.608   6.963   2.280
 5344TIP3   OH215972   3.057   5.963   3.170
 5344TIP3    H115973   3.045   6.042   3.118
 5344TIP3    H215974   2.968   5.936   3.193
 5345TIP3   OH215975   2.579   1.750   2.765
 5345TIP3    H115976   2.573   1.655   2.754
 5345TIP3    H215977   2.588   1.764   2.859
 5346TIP3   OH215978   3.733   4.713   4.128
 5346TIP3    H115979   3.776   4.668   4.200
 5346TIP3    H215980   3.685   4.645   4.082
 5347TIP3   OH215981   2.258   7.004   0.199
 5347TIP3    H115982   2.167   6.975   0.201
 5347TIP3    H215983   2.286   6.991   0.108
 5348TIP3   OH215984   8.217   6.994   6.346
 5348TIP3    H115985   8.231   7.084   6.318
 5348TIP3    H215986   8.278   6.942   6.293
 5349TIP3   OH215987   0.252   3.729   0.660
 5349TIP3    H115988   0.286   3.802   0.712
 5349TIP3    H215989   0.177   3.697   0.710
 5350TIP3   OH215990   8.194   6.752   3.734
 5350TIP3    H115991   8.099   6.753   3.747
 5350TIP3    H215992   8.230   6.785   3.817
 5351TIP3   OH215993   3.532   3.738   3.370
 5351TIP3    H115994   3.519   3.669   3.435
 5351TIP3    H215995   3.475   3.714   3.297
 5352TIP3   OH215996   5.425   7.027   3.667
 5352TIP3    H115997   5.473   6.950   3.634
 5352TIP3    H215998   5.423   7.014   3.762
 5353TIP3   OH215999   1.597   2.033   6.069
 5353TIP3    H116000   1.509   2.066   6.089
 5353TIP3    H216001   1.645   2.111   6.041
 5354TIP3   OH216002   6.619   0.458   4.053
 5354TIP3    H116003   6.607   0.429   4.144
 5354TIP3    H216004   6.566   0.537   4.046
 5355TIP3   OH216005   5.367   2.968   5.663
 5355TIP3    H116006   5.277   2.997   5.648
 5355TIP3    H216007   5.407   2.966   5.576
 5356TIP3   OH216008   0.250   1.664   6.821
 5356TIP3    H116009   0.224   1.754   6.842
 5356TIP3    H216010   0.206   1.611   6.888
 5357TIP3   OH216011   7.300   6.776   5.918
 5357TIP3    H116012   7.268   6.867   5.917
 5357TIP3    H216013   7.347   6.767   5.836
 5358TIP3   OH216014   5.008   5.128   1.146
 5358TIP3    H116015   5.098   5.104   1.169
 5358TIP3    H216016   5.007   5.129   1.050
 5359TIP3   OH216017   6.007   7.051   5.207
 5359TIP3    H116018   6.038   6.999   5.280
 5359TIP3    H216019   5.967   6.988   5.147
 5360TIP3   OH216020   3.973   2.540   2.193
 5360TIP3    H116021   3.972   2.514   2.285
 5360TIP3    H216022   3.911   2.612   2.187
 5361TIP3   OH216023   1.158   7.707   3.291
 5361TIP3    H116024   1.123   7.675   3.207
 5361TIP3    H216025   1.102   7.666   3.357
 5362TIP3   OH216026   3.731   6.978   3.045
 5362TIP3    H116027   3.821   6.972   3.076
 5362TIP3    H216028   3.735   6.952   2.953
 5363TIP3   OH216029   0.122   4.531   4.649
 5363TIP3    H116030   0.138   4.601   4.711
 5363TIP3    H216031   0.102   4.454   4.703
 5364TIP3   OH216032   7.116   7.574   5.565
 5364TIP3    H116033   7.107   7.662   5.529
 5364TIP3    H216034   7.028   7.551   5.595
 5365TIP3   OH216035   6.834   5.536   2.973
 5365TIP3    H116036   6.752   5.585   2.971
 5365TIP3    H216037   6.807   5.444   2.981
 5366TIP3   OH216038   7.497   5.206   2.333
 5366TIP3    H116039   7.404   5.187   2.322
 5366TIP3    H216040   7.534   5.123   2.364
 5367TIP3   OH216041   3.036   5.594   2.693
 5367TIP3    H116042   2.968   5.627   2.753
 5367TIP3    H216043   3.017   5.639   2.610
 5368TIP3   OH216044   5.860   5.019   3.226
 5368TIP3    H116045   5.803   5.006   3.150
 5368TIP3    H216046   5.932   4.958   3.212
 5369TIP3   OH216047   2.189   7.546   0.586
 5369TIP3    H116048   2.187   7.595   0.668
 5369TIP3    H216049   2.132   7.470   0.602
 5370TIP3   OH216050   2.718   6.186   2.855
 5370TIP3    H116051   2.795   6.177   2.800
 5370TIP3    H216052   2.646   6.154   2.801
 5371TIP3   OH216053   0.698   7.474   6.298
 5371TIP3    H116054   0.730   7.495   6.386
 5371TIP3    H216055   0.681   7.380   6.300
 5372TIP3   OH216056   6.146   1.526   4.616
 5372TIP3    H116057   6.238   1.505   4.636
 5372TIP3    H216058   6.134   1.496   4.526
 5373TIP3   OH216059   0.759   4.657   3.646
 5373TIP3    H116060   0.742   4.748   3.623
 5373TIP3    H216061   0.711   4.643   3.728
 5374TIP3   OH216062   7.294   1.857   5.430
 5374TIP3    H116063   7.384   1.887   5.421
 5374TIP3    H216064   7.253   1.879   5.347
 5375TIP3   OH216065   5.819   0.926   1.880
 5375TIP3    H116066   5.756   0.998   1.891
 5375TIP3    H216067   5.765   0.848   1.874
 5376TIP3   OH216068   0.377   1.908   6.571
 5376TIP3    H116069   0.447   1.844   6.579
 5376TIP3    H216070   0.422   1.989   6.544
 5377TIP3   OH216071   5.805   6.338   5.884
 5377TIP3    H116072   5.756   6.363   5.963
 5377TIP3    H216073   5.800   6.242   5.883
 5378TIP3   OH216074   8.079   6.718   1.323
 5378TIP3    H116075   8.055   6.765   1.403
 5378TIP3    H216076   8.174   6.728   1.318
 5379TIP3   OH216077   1.450   7.160   2.806
 5379TIP3    H116078   1.515   7.090   2.816
 5379TIP3    H216079   1.465   7.217   2.881
 5380TIP3   OH216080   7.009   5.648   0.399
 5380TIP3    H116081   7.104   5.651   0.397
 5380TIP3    H216082   6.985   5.723   0.454
 5381TIP3   OH216083   1.924   2.400   4.406
 5381TIP3    H116084   1.996   2.418   4.345
 5381TIP3    H216085   1.900   2.309   4.388
 5382TIP3   OH216086   7.312   7.093   2.161
 5382TIP3    H116087   7.363   7.069   2.239
 5382TIP3    H216088   7.335   7.184   2.144
 5383TIP3   OH216089   7.952   3.795   4.324
 5383TIP3    H116090   7.941   3.733   4.251
 5383TIP3    H216091   7.868   3.840   4.329
 5384TIP3   OH216092   0.428   5.925   2.597
 5384TIP3    H116093   0.428   5.908   2.691
 5384TIP3    H216094   0.430   5.838   2.557
 5385TIP3   OH216095   2.955   6.390   1.477
 5385TIP3    H116096   2.923   6.469   1.433
 5385TIP3    H216097   2.956   6.324   1.408
 5386TIP3   OH216098   1.460   7.708   5.011
 5386TIP3    H116099   1.488   7.659   4.934
 5386TIP3    H216100   1.366   7.693   5.017
 5387TIP3   OH216101   3.728   5.215   0.302
 5387TIP3    H116102   3.805   5.160   0.314
 5387TIP3    H216103   3.672   5.165   0.243
 5388TIP3   OH216104   4.804   1.400   4.333
 5388TIP3    H116105   4.722   1.447   4.315
 5388TIP3    H216106   4.815   1.340   4.259
 5389TIP3   OH216107   2.745   0.732   2.692
 5389TIP3    H116108   2.680   0.773   2.750
 5389TIP3    H216109   2.694   0.690   2.624
 5390TIP3   OH216110   8.084   1.992   0.559
 5390TIP3    H116111   8.039   2.068   0.594
 5390TIP3    H216112   8.126   2.022   0.479
 5391TIP3   OH216113   1.569   7.153   4.378
 5391TIP3    H116114   1.522   7.138   4.460
 5391TIP3    H216115   1.625   7.228   4.396
 5392TIP3   OH216116   6.932   5.989   4.572
 5392TIP3    H116117   6.913   6.036   4.653
 5392TIP3    H216118   6.866   6.020   4.511
 5393TIP3   OH216119   4.341   2.983   6.359
 5393TIP3    H116120   4.314   2.896   6.331
 5393TIP3    H216121   4.434   2.973   6.381
 5394TIP3   OH216122   3.625   3.206   2.183
 5394TIP3    H116123   3.642   3.144   2.113
 5394TIP3    H216124   3.677   3.175   2.257
 5395TIP3   OH216125   7.278   2.574   6.867
 5395TIP3    H116126   7.246   2.535   6.786
 5395TIP3    H216127   7.211   2.637   6.892
 5396TIP3   OH216128   5.707   6.693   0.541
 5396TIP3    H116129   5.642   6.663   0.605
 5396TIP3    H216130   5.676   6.780   0.514
 5397TIP3   OH216131   2.959   2.524   1.373
 5397TIP3    H116132   3.004   2.471   1.439
 5397TIP3    H216133   2.914   2.460   1.318
 5398TIP3   OH216134   6.711   1.972   1.386
 5398TIP3    H116135   6.775   1.954   1.455
 5398TIP3    H216136   6.649   1.900   1.391
 5399TIP3   OH216137   3.465   7.708   5.527
 5399TIP3    H116138   3.529   7.779   5.517
 5399TIP3    H216139   3.510   7.631   5.493
 5400TIP3   OH216140   2.171   7.732   0.358
 5400TIP3    H116141   2.119   7.677   0.300
 5400TIP3    H216142   2.153   7.698   0.446
 5401TIP3   OH216143   5.356   4.716   4.121
 5401TIP3    H116144   5.333   4.783   4.056
 5401TIP3    H216145   5.287   4.722   4.187
 5402TIP3   OH216146   0.039   6.933   0.978
 5402TIP3    H116147   0.100   7.004   0.998
 5402TIP3    H216148   0.032   6.933   0.883
 5403TIP3   OH216149   3.176   5.425   2.838
 5403TIP3    H116150   3.125   5.354   2.878
 5403TIP3    H216151   3.115   5.467   2.777
 5404TIP3   OH216152   6.846   1.563   5.099
 5404TIP3    H116153   6.820   1.547   5.189
 5404TIP3    H216154   6.767   1.546   5.047
 5405TIP3   OH216155   5.114   7.859   5.308
 5405TIP3    H116156   5.190   7.911   5.280
 5405TIP3    H216157   5.128   7.773   5.268
 5406TIP3   OH216158   8.304   0.874   5.318
 5406TIP3    H116159   8.337   0.789   5.287
 5406TIP3    H216160   8.379   0.932   5.314
 5407TIP3   OH216161   2.218   6.601   5.670
 5407TIP3    H116162   2.153   6.571   5.734
 5407TIP3    H216163   2.179   6.581   5.585
 5408TIP3   OH216164   0.978   7.212   1.163
 5408TIP3    H116165   0.957   7.183   1.074
 5408TIP3    H216166   0.902   7.183   1.215
 5409TIP3   OH216167   0.356   3.021   6.274
 5409TIP3    H116168   0.332   2.936   6.311
 5409TIP3    H216169   0.435   3.047   6.322
 5410TIP3   OH216170   3.188   6.790   3.331
 5410TIP3    H116171   3.144   6.851   3.272
 5410TIP3    H216172   3.142   6.707   3.319
 5411TIP3   OH216173   6.064   5.431   3.561
 5411TIP3    H116174   6.023   5.372   3.496
 5411TIP3    H216175   5.992   5.458   3.618
 5412TIP3   OH216176   3.472   3.123   6.793
 5412TIP3    H116177   3.479   3.169   6.877
 5412TIP3    H216178   3.555   3.142   6.748
 5413TIP3   OH216179   5.530   4.405   2.403
 5413TIP3    H116180   5.454   4.369   2.358
 5413TIP3    H216181   5.577   4.455   2.335
 5414TIP3   OH216182   4.992   2.316   4.464
 5414TIP3    H116183   5.055   2.384   4.443
 5414TIP3    H216184   5.023   2.238   4.418
 5415TIP3   OH216185   2.922   4.225   4.282
 5415TIP3    H116186   2.956   4.305   4.322
 5415TIP3    H216187   2.921   4.245   4.188
 5416TIP3   OH216188   0.075   2.276   2.909
 5416TIP3    H116189   0.023   2.346   2.870
 5416TIP3    H216190   0.082   2.298   3.001
 5417TIP3   OH216191   1.576   1.261   3.672
 5417TIP3    H116192   1.629   1.182   3.665
 5417TIP3    H216193   1.516   1.257   3.598
 5418TIP3   OH216194   5.008   3.937   3.814
 5418TIP3    H116195   5.078   3.919   3.877
 5418TIP3    H216196   5.035   4.018   3.770
 5419TIP3   OH216197   7.341   5.397   0.798
 5419TIP3    H116198   7.261   5.423   0.752
 5419TIP3    H216199   7.323   5.417   0.890
 5420TIP3   OH216200   7.946   3.714   5.667
 5420TIP3    H116201   7.959   3.766   5.747
 5420TIP3    H216202   7.987   3.766   5.598
 5421TIP3   OH216203   1.770   3.494   3.584
 5421TIP3    H116204   1.752   3.443   3.506
 5421TIP3    H216205   1.844   3.550   3.560
 5422TIP3   OH216206   7.397   0.038   0.310
 5422TIP3    H116207   7.416   0.073   0.397
 5422TIP3    H216208   7.483   0.025   0.270
 5423TIP3   OH216209   0.488   0.445   1.179
 5423TIP3    H116210   0.566   0.443   1.234
 5423TIP3    H216211   0.425   0.388   1.223
 5424TIP3   OH216212   0.454   6.445   2.061
 5424TIP3    H116213   0.490   6.519   2.109
 5424TIP3    H216214   0.435   6.380   2.129
 5425TIP3   OH216215   2.329   5.690   3.415
 5425TIP3    H116216   2.308   5.760   3.353
 5425TIP3    H216217   2.253   5.686   3.473
 5426TIP3   OH216218   2.483   2.254   4.805
 5426TIP3    H116219   2.408   2.296   4.846
 5426TIP3    H216220   2.526   2.324   4.756
 5427TIP3   OH216221   6.079   3.579   4.318
 5427TIP3    H116222   6.162   3.587   4.366
 5427TIP3    H216223   6.057   3.486   4.324
 5428TIP3   OH216224   2.445   6.853   0.012
 5428TIP3    H116225   2.534   6.879   0.034
 5428TIP3    H216226   2.414   6.804   0.088
 5429TIP3   OH216227   7.758   6.697   3.103
 5429TIP3    H116228   7.804   6.617   3.129
 5429TIP3    H216229   7.739   6.742   3.186
 5430TIP3   OH216230   1.059   1.303   3.784
 5430TIP3    H116231   1.151   1.329   3.788
 5430TIP3    H216232   1.011   1.385   3.769
 5431TIP3   OH216233   2.058   4.670   4.807
 5431TIP3    H116234   2.137   4.634   4.767
 5431TIP3    H216235   2.070   4.765   4.802
 5432TIP3   OH216236   3.459   3.233   5.018
 5432TIP3    H116237   3.380   3.223   5.071
 5432TIP3    H216238   3.462   3.154   4.964
 5433TIP3   OH216239   2.409   7.393   0.589
 5433TIP3    H116240   2.337   7.457   0.595
 5433TIP3    H216241   2.417   7.376   0.495
 5434TIP3   OH216242   5.133   5.234   5.741
 5434TIP3    H116243   5.083   5.167   5.694
 5434TIP3    H216244   5.113   5.219   5.833
 5435TIP3   OH216245   4.073   3.382   5.162
 5435TIP3    H116246   4.155   3.402   5.117
 5435TIP3    H216247   4.072   3.287   5.168
 5436TIP3   OH216248   4.782   1.566   5.812
 5436TIP3    H116249   4.735   1.636   5.767
 5436TIP3    H216250   4.714   1.505   5.840
 5437TIP3   OH216251   1.119   6.121   5.762
 5437TIP3    H116252   1.081   6.034   5.777
 5437TIP3    H216253   1.201   6.103   5.715
 5438TIP3   OH216254   1.907   7.882   4.271
 5438TIP3    H116255   1.888   7.807   4.327
 5438TIP3    H216256   1.820   7.916   4.247
 5439TIP3   OH216257   7.262   6.918   5.036
 5439TIP3    H116258   7.213   6.837   5.049
 5439TIP3    H216259   7.239   6.945   4.947
 5440TIP3   OH216260   6.177   0.018   6.322
 5440TIP3    H116261   6.124  -0.019   6.251
 5440TIP3    H216262   6.264   0.028   6.284
 5441TIP3   OH216263   6.759   1.693   6.308
 5441TIP3    H116264   6.795   1.654   6.387
 5441TIP3    H216265   6.835   1.724   6.259
 5442TIP3   OH216266   1.953   2.199   1.688
 5442TIP3    H116267   1.876   2.208   1.632
 5442TIP3    H216268   1.948   2.109   1.721
 5443TIP3   OH216269   3.774   5.641   3.493
 5443TIP3    H116270   3.805   5.618   3.406
 5443TIP3    H216271   3.815   5.726   3.511
 5444TIP3   OH216272   2.212   2.672   1.849
 5444TIP3    H116273   2.169   2.588   1.864
 5444TIP3    H216274   2.289   2.650   1.796
 5445TIP3   OH216275   4.264   7.606   2.498
 5445TIP3    H116276   4.309   7.643   2.573
 5445TIP3    H216277   4.185   7.566   2.535
 5446TIP3   OH216278   3.155   7.213   4.043
 5446TIP3    H116279   3.066   7.214   4.079
 5446TIP3    H216280   3.211   7.198   4.119
 5447TIP3   OH216281   3.435   5.178   1.745
 5447TIP3    H116282   3.505   5.155   1.684
 5447TIP3    H216283   3.445   5.272   1.760
 5448TIP3   OH216284   4.426   0.575   1.486
 5448TIP3    H116285   4.407   0.499   1.540
 5448TIP3    H216286   4.455   0.539   1.402
 5449TIP3   OH216287   5.188   0.223   4.035
 5449TIP3    H116288   5.188   0.185   3.947
 5449TIP3    H216289   5.217   0.152   4.092
 5450TIP3   OH216290   8.267   6.993   6.785
 5450TIP3    H116291   8.199   6.931   6.812
 5450TIP3    H216292   8.232   7.034   6.706
 5451TIP3   OH216293   0.695   4.244   5.743
 5451TIP3    H116294   0.667   4.263   5.654
 5451TIP3    H216295   0.729   4.154   5.739
 5452TIP3   OH216296   1.547   3.337   6.713
 5452TIP3    H116297   1.515   3.391   6.786
 5452TIP3    H216298   1.479   3.346   6.646
 5453TIP3   OH216299   6.153   3.656   4.029
 5453TIP3    H116300   6.244   3.682   4.014
 5453TIP3    H216301   6.139   3.668   4.123
 5454TIP3   OH216302   3.971   7.477   3.786
 5454TIP3    H116303   3.993   7.438   3.870
 5454TIP3    H216304   4.048   7.461   3.731
 5455TIP3   OH216305   1.489   4.632   4.898
 5455TIP3    H116306   1.507   4.549   4.855
 5455TIP3    H216307   1.467   4.692   4.827
 5456TIP3   OH216308   4.154   1.491   5.045
 5456TIP3    H116309   4.223   1.449   5.095
 5456TIP3    H216310   4.199   1.558   4.993
 5457TIP3   OH216311   6.179   5.453   0.071
 5457TIP3    H116312   6.176   5.359   0.083
 5457TIP3    H216313   6.096   5.485   0.105
 5458TIP3   OH216314   7.379   2.681   5.887
 5458TIP3    H116315   7.309   2.617   5.899
 5458TIP3    H216316   7.345   2.761   5.927
 5459TIP3   OH216317   3.088   5.035   4.113
 5459TIP3    H116318   3.004   5.069   4.084
 5459TIP3    H216319   3.066   4.978   4.187
 5460TIP3   OH216320   3.294   3.388   2.696
 5460TIP3    H116321   3.223   3.367   2.756
 5460TIP3    H216322   3.266   3.468   2.652
 5461TIP3   OH216323   6.142   5.620   3.369
 5461TIP3    H116324   6.047   5.629   3.359
 5461TIP3    H216325   6.153   5.586   3.457
 5462TIP3   OH216326   7.186   5.910   6.608
 5462TIP3    H116327   7.116   5.943   6.664
 5462TIP3    H216328   7.262   5.906   6.666
 5463TIP3   OH216329   2.952   6.085   4.374
 5463TIP3    H116330   3.033   6.106   4.328
 5463TIP3    H216331   2.900   6.165   4.367
 5464TIP3   OH216332   5.214   0.814   5.130
 5464TIP3    H116333   5.131   0.776   5.158
 5464TIP3    H216334   5.220   0.793   5.037
 5465TIP3   OH216335   2.198   2.322   6.213
 5465TIP3    H116336   2.225   2.257   6.148
 5465TIP3    H216337   2.113   2.353   6.181
 5466TIP3   OH216338   5.544   6.448   2.625
 5466TIP3    H116339   5.580   6.360   2.613
 5466TIP3    H216340   5.589   6.483   2.702
 5467TIP3   OH216341   0.050   0.789   2.888
 5467TIP3    H116342  -0.006   0.756   2.818
 5467TIP3    H216343   0.044   0.724   2.958
 5468TIP3   OH216344   0.036   4.972   4.348
 5468TIP3    H116345  -0.044   4.922   4.332
 5468TIP3    H216346   0.098   4.938   4.282
 5469TIP3   OH216347   3.159   1.141   1.846
 5469TIP3    H116348   3.099   1.069   1.827
 5469TIP3    H216349   3.103   1.218   1.853
 5470TIP3   OH216350   4.952   7.541   5.429
 5470TIP3    H116351   5.020   7.588   5.477
 5470TIP3    H216352   5.000   7.482   5.371
 5471TIP3   OH216353   1.332   4.988   0.032
 5471TIP3    H116354   1.383   5.069   0.030
 5471TIP3    H216355   1.342   4.951  -0.055
 5472TIP3   OH216356   1.480   1.178   4.980
 5472TIP3    H116357   1.464   1.183   4.886
 5472TIP3    H216358   1.512   1.265   5.004
 5473TIP3   OH216359   0.830   2.115   3.142
 5473TIP3    H116360   0.754   2.058   3.152
 5473TIP3    H216361   0.806   2.173   3.070
 5474TIP3   OH216362   6.634   1.744   3.089
 5474TIP3    H116363   6.554   1.788   3.062
 5474TIP3    H216364   6.659   1.786   3.171
 5475TIP3   OH216365   5.460   5.086   2.963
 5475TIP3    H116366   5.506   5.123   3.038
 5475TIP3    H216367   5.394   5.028   3.001
 5476TIP3   OH216368   6.702   4.305   4.486
 5476TIP3    H116369   6.761   4.350   4.546
 5476TIP3    H216370   6.672   4.374   4.426
 5477TIP3   OH216371   8.254   0.914   5.903
 5477TIP3    H116372   8.238   1.000   5.941
 5477TIP3    H216373   8.270   0.931   5.811
 5478TIP3   OH216374   2.502   5.809   0.840
 5478TIP3    H116375   2.569   5.742   0.849
 5478TIP3    H216376   2.419   5.764   0.856
 5479TIP3   OH216377   5.422   0.695   1.962
 5479TIP3    H116378   5.414   0.619   2.020
 5479TIP3    H216379   5.347   0.750   1.985
 5480TIP3   OH216380   3.838   0.214   1.451
 5480TIP3    H116381   3.857   0.305   1.427
 5480TIP3    H216382   3.871   0.205   1.540
 5481TIP3   OH216383   6.635   2.695   2.986
 5481TIP3    H116384   6.668   2.784   2.979
 5481TIP3    H216385   6.698   2.643   2.936
 5482TIP3   OH216386   1.058   6.975   6.666
 5482TIP3    H116387   0.970   6.964   6.629
 5482TIP3    H216388   1.046   7.036   6.739
 5483TIP3   OH216389   7.444   7.019   0.344
 5483TIP3    H116390   7.372   6.971   0.303
 5483TIP3    H216391   7.403   7.101   0.373
 5484TIP3   OH216392   6.336   2.579   6.674
 5484TIP3    H116393   6.404   2.626   6.626
 5484TIP3    H216394   6.326   2.627   6.756
 5485TIP3   OH216395   6.063   3.988   2.095
 5485TIP3    H116396   6.013   4.002   2.015
 5485TIP3    H216397   6.037   4.061   2.152
 5486TIP3   OH216398   5.176   5.366   2.028
 5486TIP3    H116399   5.217   5.420   2.095
 5486TIP3    H216400   5.102   5.419   1.997
 5487TIP3   OH216401   2.377   1.383   2.999
 5487TIP3    H116402   2.317   1.423   3.061
 5487TIP3    H216403   2.409   1.304   3.043
 5488TIP3   OH216404   7.769   5.645   0.202
 5488TIP3    H116405   7.860   5.631   0.179
 5488TIP3    H216406   7.757   5.740   0.197
 5489TIP3   OH216407   0.471   7.465   1.811
 5489TIP3    H116408   0.512   7.549   1.836
 5489TIP3    H216409   0.532   7.399   1.844
 5490TIP3   OH216410   6.397   2.958   2.742
 5490TIP3    H116411   6.320   2.938   2.796
 5490TIP3    H216412   6.406   2.883   2.684
 5491TIP3   OH216413   6.678   5.680   3.867
 5491TIP3    H116414   6.687   5.737   3.790
 5491TIP3    H216415   6.741   5.609   3.852
 5492TIP3   OH216416   4.642   5.959   6.156
 5492TIP3    H116417   4.696   6.024   6.112
 5492TIP3    H216418   4.607   6.006   6.232
 5493TIP3   OH216419   2.755   1.761   6.562
 5493TIP3    H116420   2.667   1.764   6.600
 5493TIP3    H216421   2.757   1.835   6.501
 5494TIP3   OH216422   0.431   7.114   5.677
 5494TIP3    H116423   0.436   7.083   5.586
 5494TIP3    H216424   0.496   7.184   5.681
 5495TIP3   OH216425   0.979   2.724   0.384
 5495TIP3    H116426   1.045   2.727   0.314
 5495TIP3    H216427   0.920   2.796   0.364
 5496TIP3   OH216428   6.613   5.785   5.244
 5496TIP3    H116429   6.565   5.719   5.294
 5496TIP3    H216430   6.570   5.786   5.158
 5497TIP3   OH216431   4.262   4.782   5.458
 5497TIP3    H116432   4.328   4.770   5.526
 5497TIP3    H216433   4.204   4.851   5.492
 5498TIP3   OH216434   7.403   6.990   1.021
 5498TIP3    H116435   7.442   7.021   0.940
 5498TIP3    H216436   7.309   7.003   1.009
 5499TIP3   OH216437   7.944   5.403   2.060
 5499TIP3    H116438   7.915   5.337   1.997
 5499TIP3    H216439   7.946   5.484   2.010
 5500TIP3   OH216440   4.679   1.122   1.426
 5500TIP3    H116441   4.722   1.065   1.362
 5500TIP3    H216442   4.680   1.072   1.507
 5501TIP3   OH216443   4.392   3.412   4.636
 5501TIP3    H116444   4.435   3.471   4.697
 5501TIP3    H216445   4.303   3.448   4.626
 5502TIP3   OH216446   2.418   5.165   3.435
 5502TIP3    H116447   2.441   5.096   3.498
 5502TIP3    H216448   2.332   5.138   3.402
 5503TIP3   OH216449   0.308   6.666   1.771
 5503TIP3    H116450   0.351   6.580   1.771
 5503TIP3    H216451   0.351   6.714   1.701
 5504TIP3   OH216452   2.326   1.279   6.002
 5504TIP3    H116453   2.378   1.348   6.043
 5504TIP3    H216454   2.300   1.315   5.918
 5505TIP3   OH216455   1.023   3.778   4.522
 5505TIP3    H116456   1.003   3.790   4.614
 5505TIP3    H216457   0.946   3.812   4.476
 5506TIP3   OH216458   0.940   3.836   2.101
 5506TIP3    H116459   1.022   3.872   2.136
 5506TIP3    H216460   0.917   3.766   2.162
 5507TIP3   OH216461   6.872   5.159   5.039
 5507TIP3    H116462   6.887   5.240   5.088
 5507TIP3    H216463   6.776   5.152   5.034
 5508TIP3   OH216464   7.716   7.628   0.069
 5508TIP3    H116465   7.690   7.679   0.147
 5508TIP3    H216466   7.636   7.623   0.017
 5509TIP3   OH216467   7.020   2.357   4.222
 5509TIP3    H116468   6.996   2.283   4.278
 5509TIP3    H216469   6.937   2.399   4.201
 5510TIP3   OH216470   0.565   1.719   4.839
 5510TIP3    H116471   0.629   1.739   4.907
 5510TIP3    H216472   0.481   1.719   4.885
 5511TIP3   OH216473   7.977   3.908   0.656
 5511TIP3    H116474   7.915   3.981   0.664
 5511TIP3    H216475   8.052   3.945   0.610
 5512TIP3   OH216476   0.488   0.250   6.266
 5512TIP3    H116477   0.553   0.320   6.254
 5512TIP3    H216478   0.470   0.250   6.359
 5513TIP3   OH216479   7.450   3.786   5.212
 5513TIP3    H116480   7.514   3.773   5.141
 5513TIP3    H216481   7.503   3.788   5.292
 5514TIP3   OH216482   5.289   2.332   1.414
 5514TIP3    H116483   5.228   2.381   1.469
 5514TIP3    H216484   5.259   2.348   1.324
 5515TIP3   OH216485   5.904   6.121   4.501
 5515TIP3    H116486   5.899   6.125   4.406
 5515TIP3    H216487   5.871   6.034   4.523
 5516TIP3   OH216488   5.496   2.512   0.704
 5516TIP3    H116489   5.460   2.433   0.745
 5516TIP3    H216490   5.507   2.573   0.777
 5517TIP3   OH216491   4.942   1.985   5.725
 5517TIP3    H116492   4.960   1.908   5.780
 5517TIP3    H216493   5.027   2.028   5.717
 5518TIP3   OH216494   6.852   6.026   1.419
 5518TIP3    H116495   6.825   6.077   1.496
 5518TIP3    H216496   6.799   6.060   1.348
 5519TIP3   OH216497   7.570   6.811   4.079
 5519TIP3    H116498   7.653   6.764   4.079
 5519TIP3    H216499   7.530   6.791   3.995
 5520TIP3   OH216500   5.190   4.857   3.496
 5520TIP3    H116501   5.170   4.930   3.438
 5520TIP3    H216502   5.213   4.785   3.438
 5521TIP3   OH216503   4.533   0.517   5.889
 5521TIP3    H116504   4.491   0.586   5.942
 5521TIP3    H216505   4.617   0.555   5.862
 5522TIP3   OH216506   1.529   0.538   5.488
 5522TIP3    H116507   1.563   0.599   5.423
 5522TIP3    H216508   1.584   0.460   5.479
 5523TIP3   OH216509   6.929   0.002   3.966
 5523TIP3    H116510   6.880   0.080   3.994
 5523TIP3    H216511   6.931   0.007   3.871
 5524TIP3   OH216512   8.239   2.340   2.532
 5524TIP3    H116513   8.220   2.429   2.503
 5524TIP3    H216514   8.291   2.302   2.462
 5525TIP3   OH216515   4.991   1.645   1.644
 5525TIP3    H116516   4.913   1.674   1.595
 5525TIP3    H216517   5.050   1.720   1.640
 5526TIP3   OH216518   4.318   3.767   2.900
 5526TIP3    H116519   4.262   3.801   2.830
 5526TIP3    H216520   4.397   3.821   2.894
 5527TIP3   OH216521   3.663   2.420   4.310
 5527TIP3    H116522   3.691   2.360   4.240
 5527TIP3    H216523   3.742   2.437   4.360
 5528TIP3   OH216524   1.364   5.160   6.717
 5528TIP3    H116525   1.389   5.144   6.808
 5528TIP3    H216526   1.411   5.239   6.693
 5529TIP3   OH216527   7.577   6.463   5.679
 5529TIP3    H116528   7.626   6.381   5.683
 5529TIP3    H216529   7.485   6.437   5.684
 5530TIP3   OH216530   0.019   0.186   0.584
 5530TIP3    H116531  -0.042   0.121   0.620
 5530TIP3    H216532   0.037   0.155   0.495
 5531TIP3   OH216533   0.969   6.529   5.715
 5531TIP3    H116534   1.026   6.475   5.769
 5531TIP3    H216535   0.978   6.493   5.627
 5532TIP3   OH216536   5.584   3.987   2.503
 5532TIP3    H116537   5.578   3.991   2.407
 5532TIP3    H216538   5.581   3.893   2.522
 5533TIP3   OH216539   3.512   7.024   6.795
 5533TIP3    H116540   3.423   6.993   6.815
 5533TIP3    H216541   3.535   6.980   6.713
 5534TIP3   OH216542   0.124   2.746   3.861
 5534TIP3    H116543   0.200   2.794   3.828
 5534TIP3    H216544   0.050   2.804   3.843
 5535TIP3   OH216545   4.494   4.591   2.202
 5535TIP3    H116546   4.586   4.614   2.190
 5535TIP3    H216547   4.461   4.576   2.113
 5536TIP3   OH216548   7.905   7.269   1.983
 5536TIP3    H116549   7.892   7.326   1.908
 5536TIP3    H216550   7.822   7.272   2.031
 5537TIP3   OH216551   3.246   2.747   0.353
 5537TIP3    H116552   3.203   2.765   0.436
 5537TIP3    H216553   3.268   2.834   0.318
 5538TIP3   OH216554   8.325   5.126   0.812
 5538TIP3    H116555   8.253   5.187   0.830
 5538TIP3    H216556   8.400   5.165   0.855
 5539TIP3   OH216557   5.667   0.662   5.964
 5539TIP3    H116558   5.711   0.742   5.991
 5539TIP3    H216559   5.575   0.687   5.955
 5540TIP3   OH216560   6.956   5.923   0.506
 5540TIP3    H116561   6.878   5.903   0.455
 5540TIP3    H216562   6.944   6.013   0.534
 5541TIP3   OH216563   2.839   7.886   4.793
 5541TIP3    H116564   2.881   7.970   4.774
 5541TIP3    H216565   2.899   7.820   4.760
 5542TIP3   OH216566   3.393   6.403   3.148
 5542TIP3    H116567   3.343   6.366   3.222
 5542TIP3    H216568   3.428   6.485   3.183
 5543TIP3   OH216569   3.136   1.443   1.237
 5543TIP3    H116570   3.143   1.536   1.256
 5543TIP3    H216571   3.058   1.435   1.182
 5544TIP3   OH216572   6.328   1.043   3.077
 5544TIP3    H116573   6.373   1.030   3.161
 5544TIP3    H216574   6.358   0.969   3.023
 5545TIP3   OH216575   6.743   6.444   6.391
 5545TIP3    H116576   6.678   6.385   6.353
 5545TIP3    H216577   6.819   6.437   6.333
 5546TIP3   OH216578   6.643   2.587   1.465
 5546TIP3    H116579   6.615   2.657   1.406
 5546TIP3    H216580   6.721   2.550   1.424
 5547TIP3   OH216581   3.155   6.515   6.447
 5547TIP3    H116582   3.105   6.512   6.528
 5547TIP3    H216583   3.150   6.607   6.419
 5548TIP3   OH216584   0.034   5.856   2.950
 5548TIP3    H116585  -0.030   5.811   2.894
 5548TIP3    H216586   0.104   5.883   2.890
 5549TIP3   OH216587   4.877   5.969   2.138
 5549TIP3    H116588   4.969   5.962   2.164
 5549TIP3    H216589   4.858   6.063   2.140
 5550TIP3   OH216590   7.702   1.333   6.274
 5550TIP3    H116591   7.625   1.388   6.292
 5550TIP3    H216592   7.687   1.254   6.325
 5551TIP3   OH216593   3.814   5.824   1.841
 5551TIP3    H116594   3.729   5.783   1.825
 5551TIP3    H216595   3.878   5.759   1.814
 5552TIP3   OH216596   7.272   3.718   6.597
 5552TIP3    H116597   7.352   3.686   6.638
 5552TIP3    H216598   7.253   3.655   6.527
 5553TIP3   OH216599   0.905   2.481   0.149
 5553TIP3    H116600   0.958   2.520   0.218
 5553TIP3    H216601   0.902   2.388   0.171
 5554TIP3   OH216602   3.410   6.856   6.270
 5554TIP3    H116603   3.467   6.924   6.306
 5554TIP3    H216604   3.329   6.865   6.320
 5555TIP3   OH216605   2.913   1.515   2.814
 5555TIP3    H116606   2.983   1.465   2.773
 5555TIP3    H216607   2.842   1.452   2.829
 5556TIP3   OH216608   5.216   1.848   1.607
 5556TIP3    H116609   5.217   1.930   1.557
 5556TIP3    H216610   5.282   1.861   1.675
 5557TIP3   OH216611   7.672   1.079   3.821
 5557TIP3    H116612   7.630   1.161   3.849
 5557TIP3    H216613   7.604   1.032   3.773
 5558TIP3   OH216614   6.437   5.564   4.771
 5558TIP3    H116615   6.511   5.559   4.710
 5558TIP3    H216616   6.438   5.479   4.816
 5559TIP3   OH216617   5.002   1.975   3.775
 5559TIP3    H116618   5.018   1.951   3.867
 5559TIP3    H216619   4.929   2.037   3.779
 5560TIP3   OH216620   0.960   4.932   0.671
 5560TIP3    H116621   1.022   4.893   0.609
 5560TIP3    H216622   1.013   4.993   0.723
 5561TIP3   OH216623   7.897   5.243   4.737
 5561TIP3    H116624   7.993   5.236   4.738
 5561TIP3    H216625   7.880   5.331   4.703
 5562TIP3   OH216626   4.307   4.662   0.356
 5562TIP3    H116627   4.277   4.575   0.382
 5562TIP3    H216628   4.327   4.653   0.263
 5563TIP3   OH216629   7.736   7.835   1.731
 5563TIP3    H116630   7.748   7.843   1.826
 5563TIP3    H216631   7.701   7.747   1.719
 5564TIP3   OH216632   5.348   1.854   3.193
 5564TIP3    H116633   5.295   1.919   3.239
 5564TIP3    H216634   5.330   1.868   3.100
 5565TIP3   OH216635   8.351   2.226   3.837
 5565TIP3    H116636   8.362   2.321   3.839
 5565TIP3    H216637   8.260   2.213   3.809
 5566TIP3   OH216638   3.244   3.479   0.856
 5566TIP3    H116639   3.188   3.446   0.926
 5566TIP3    H216640   3.250   3.406   0.794
 5567TIP3   OH216641   4.372   0.472   6.625
 5567TIP3    H116642   4.439   0.474   6.557
 5567TIP3    H216643   4.419   0.454   6.706
 5568TIP3   OH216644   6.700   1.697   4.161
 5568TIP3    H116645   6.740   1.780   4.188
 5568TIP3    H216646   6.636   1.678   4.229
 5569TIP3   OH216647   4.080   0.586   1.052
 5569TIP3    H116648   4.091   0.654   0.986
 5569TIP3    H216649   4.153   0.526   1.037
 5570TIP3   OH216650   8.397   7.739   6.407
 5570TIP3    H116651   8.439   7.778   6.484
 5570TIP3    H216652   8.310   7.714   6.437
 5571TIP3   OH216653   6.213   7.750   1.943
 5571TIP3    H116654   6.308   7.745   1.950
 5571TIP3    H216655   6.189   7.822   2.002
 5572TIP3   OH216656   0.840   5.496   1.153
 5572TIP3    H116657   0.789   5.479   1.074
 5572TIP3    H216658   0.802   5.438   1.219
 5573TIP3   OH216659   4.083   6.024   5.889
 5573TIP3    H116660   4.020   6.054   5.823
 5573TIP3    H216661   4.137   5.960   5.843
 5574TIP3   OH216662   7.890   6.349   4.634
 5574TIP3    H116663   7.873   6.267   4.681
 5574TIP3    H216664   7.803   6.385   4.615
 5575TIP3   OH216665   7.647   3.941   3.421
 5575TIP3    H116666   7.586   3.953   3.494
 5575TIP3    H216667   7.731   3.922   3.464
 5576TIP3   OH216668   7.091   1.475   3.979
 5576TIP3    H116669   7.159   1.454   4.043
 5576TIP3    H216670   7.013   1.493   4.031
 5577TIP3   OH216671   5.962   3.366   5.774
 5577TIP3    H116672   6.003   3.415   5.845
 5577TIP3    H216673   5.870   3.395   5.775
 5578TIP3   OH216674   4.653   1.261   5.559
 5578TIP3    H116675   4.736   1.214   5.562
 5578TIP3    H216676   4.603   1.227   5.633
 5579TIP3   OH216677   2.781   6.773   3.645
 5579TIP3    H116678   2.744   6.698   3.599
 5579TIP3    H216679   2.715   6.796   3.710
 5580TIP3   OH216680   4.549   0.704   5.196
 5580TIP3    H116681   4.563   0.789   5.155
 5580TIP3    H216682   4.570   0.640   5.128
 5581TIP3   OH216683   7.573   4.346   5.897
 5581TIP3    H116684   7.588   4.258   5.929
 5581TIP3    H216685   7.655   4.393   5.915
 5582TIP3   OH216686   0.482   7.459   1.531
 5582TIP3    H116687   0.462   7.393   1.596
 5582TIP3    H216688   0.473   7.542   1.577
 5583TIP3   OH216689   1.489   1.219   0.585
 5583TIP3    H116690   1.544   1.268   0.524
 5583TIP3    H216691   1.550   1.164   0.634
 5584TIP3   OH216692   3.431   4.450   4.198
 5584TIP3    H116693   3.392   4.447   4.285
 5584TIP3    H216694   3.384   4.383   4.148
 5585TIP3   OH216695   3.493   1.173   5.855
 5585TIP3    H116696   3.509   1.105   5.790
 5585TIP3    H216697   3.412   1.146   5.898
 5586TIP3   OH216698   6.651   7.275   0.592
 5586TIP3    H116699   6.740   7.277   0.557
 5586TIP3    H216700   6.642   7.358   0.639
 5587TIP3   OH216701   8.284   4.845   0.980
 5587TIP3    H116702   8.258   4.812   1.066
 5587TIP3    H216703   8.376   4.869   0.990
 5588TIP3   OH216704   2.923   6.871   1.773
 5588TIP3    H116705   2.869   6.807   1.726
 5588TIP3    H216706   2.902   6.955   1.733
 5589TIP3   OH216707   2.841   7.297   2.197
 5589TIP3    H116708   2.758   7.337   2.169
 5589TIP3    H216709   2.860   7.338   2.281
 5590TIP3   OH216710   3.633   6.015   0.003
 5590TIP3    H116711   3.551   5.972   0.028
 5590TIP3    H216712   3.632   6.098   0.052
 5591TIP3   OH216713   3.572   0.745   3.206
 5591TIP3    H116714   3.619   0.665   3.227
 5591TIP3    H216715   3.598   0.766   3.116
 5592TIP3   OH216716   6.839   4.827   1.007
 5592TIP3    H116717   6.907   4.892   0.991
 5592TIP3    H216718   6.757   4.874   0.997
 5593TIP3   OH216719   2.636   0.072   4.257
 5593TIP3    H116720   2.700   0.137   4.285
 5593TIP3    H216721   2.553   0.103   4.293
 5594TIP3   OH216722   6.897   0.448   2.755
 5594TIP3    H116723   6.829   0.474   2.693
 5594TIP3    H216724   6.979   0.463   2.708
 5595TIP3   OH216725   3.073   5.208   1.744
 5595TIP3    H116726   3.102   5.201   1.653
 5595TIP3    H216727   2.986   5.248   1.739
 5596TIP3   OH216728   3.889   0.341   4.674
 5596TIP3    H116729   3.968   0.394   4.674
 5596TIP3    H216730   3.825   0.392   4.625
 5597TIP3   OH216731   5.276   0.652   3.740
 5597TIP3    H116732   5.290   0.615   3.827
 5597TIP3    H216733   5.204   0.714   3.752
 5598TIP3   OH216734   1.005   3.320   4.226
 5598TIP3    H116735   0.944   3.252   4.198
 5598TIP3    H216736   1.058   3.338   4.149
 5599TIP3   OH216737   0.418   6.746   2.409
 5599TIP3    H116738   0.481   6.725   2.479
 5599TIP3    H216739   0.333   6.722   2.446
 5600TIP3   OH216740   3.724   2.935   6.137
 5600TIP3    H116741   3.706   2.843   6.120
 5600TIP3    H216742   3.654   2.963   6.196
 5601TIP3   OH216743   4.163   4.552   5.327
 5601TIP3    H116744   4.070   4.576   5.325
 5601TIP3    H216745   4.207   4.629   5.361
 5602TIP3   OH216746   4.934   5.505   1.470
 5602TIP3    H116747   4.854   5.536   1.512
 5602TIP3    H216748   4.929   5.410   1.476
 5603TIP3   OH216749   1.460   2.454   3.152
 5603TIP3    H116750   1.473   2.365   3.120
 5603TIP3    H216751   1.381   2.485   3.108
 5604TIP3   OH216752   3.801   3.403   3.795
 5604TIP3    H116753   3.828   3.493   3.784
 5604TIP3    H216754   3.821   3.360   3.712
 5605TIP3   OH216755   3.384   6.072   5.541
 5605TIP3    H116756   3.302   6.105   5.576
 5605TIP3    H216757   3.371   6.071   5.446
 5606TIP3   OH216758   7.591   7.186   1.962
 5606TIP3    H116759   7.650   7.205   2.035
 5606TIP3    H216760   7.583   7.090   1.962
 5607TIP3   OH216761   3.521   1.878   2.386
 5607TIP3    H116762   3.604   1.837   2.409
 5607TIP3    H216763   3.539   1.924   2.304
 5608TIP3   OH216764   5.859   5.411   2.386
 5608TIP3    H116765   5.771   5.390   2.353
 5608TIP3    H216766   5.904   5.326   2.387
 5609TIP3   OH216767   1.076   4.015   0.188
 5609TIP3    H116768   1.149   3.978   0.238
 5609TIP3    H216769   1.087   3.979   0.100
 5610TIP3   OH216770   7.160   5.731   6.422
 5610TIP3    H116771   7.166   5.650   6.472
 5610TIP3    H216772   7.169   5.800   6.488
 5611TIP3   OH216773   3.874   5.184   2.067
 5611TIP3    H116774   3.951   5.160   2.015
 5611TIP3    H216775   3.802   5.135   2.028
 5612TIP3   OH216776   4.720   3.722   2.523
 5612TIP3    H116777   4.723   3.659   2.451
 5612TIP3    H216778   4.626   3.730   2.543
 5613TIP3   OH216779   0.123   1.781   3.238
 5613TIP3    H116780   0.110   1.819   3.151
 5613TIP3    H216781   0.218   1.786   3.252
 5614TIP3   OH216782   5.882   6.294   3.373
 5614TIP3    H116783   5.973   6.307   3.349
 5614TIP3    H216784   5.884   6.274   3.467
 5615TIP3   OH216785   2.509   2.697   2.411
 5615TIP3    H116786   2.601   2.672   2.419
 5615TIP3    H216787   2.499   2.725   2.320
 5616TIP3   OH216788   6.616   2.053   0.771
 5616TIP3    H116789   6.682   2.114   0.735
 5616TIP3    H216790   6.569   2.021   0.694
 5617TIP3   OH216791   5.820   5.057   6.514
 5617TIP3    H116792   5.915   5.048   6.521
 5617TIP3    H216793   5.790   5.072   6.604
 5618TIP3   OH216794  -0.023   1.507   3.864
 5618TIP3    H116795  -0.044   1.509   3.770
 5618TIP3    H216796   0.072   1.501   3.867
 5619TIP3   OH216797   2.935   1.788   0.411
 5619TIP3    H116798   2.925   1.694   0.427
 5619TIP3    H216799   2.869   1.829   0.466
 5620TIP3   OH216800   4.973   5.410   4.314
 5620TIP3    H116801   4.934   5.491   4.279
 5620TIP3    H216802   4.982   5.427   4.408
 5621TIP3   OH216803   7.189   7.302   2.339
 5621TIP3    H116804   7.165   7.209   2.339
 5621TIP3    H216805   7.136   7.341   2.269
 5622TIP3   OH216806   2.840   7.491   5.205
 5622TIP3    H116807   2.844   7.583   5.178
 5622TIP3    H216808   2.889   7.488   5.287
 5623TIP3   OH216809   3.282   6.451   0.873
 5623TIP3    H116810   3.376   6.468   0.875
 5623TIP3    H216811   3.259   6.452   0.780
 5624TIP3   OH216812   3.325   4.289   1.448
 5624TIP3    H116813   3.337   4.239   1.529
 5624TIP3    H216814   3.394   4.258   1.390
 5625TIP3   OH216815   0.651   1.339   4.075
 5625TIP3    H116816   0.678   1.351   3.984
 5625TIP3    H216817   0.555   1.349   4.073
 5626TIP3   OH216818   6.846   4.573   2.993
 5626TIP3    H116819   6.826   4.493   2.944
 5626TIP3    H216820   6.890   4.629   2.929
 5627TIP3   OH216821   1.481   3.886   5.318
 5627TIP3    H116822   1.439   3.915   5.237
 5627TIP3    H216823   1.569   3.859   5.291
 5628TIP3   OH216824   5.500   0.265   4.507
 5628TIP3    H116825   5.543   0.261   4.421
 5628TIP3    H216826   5.477   0.357   4.518
 5629TIP3   OH216827   5.729   3.472   0.544
 5629TIP3    H116828   5.822   3.487   0.562
 5629TIP3    H216829   5.728   3.412   0.470
 5630TIP3   OH216830   2.854   3.850   2.338
 5630TIP3    H116831   2.780   3.790   2.327
 5630TIP3    H216832   2.930   3.800   2.309
 5631TIP3   OH216833   1.162   2.079   3.991
 5631TIP3    H116834   1.178   2.095   3.898
 5631TIP3    H216835   1.096   2.143   4.016
 5632TIP3   OH216836   2.905   7.220   4.981
 5632TIP3    H116837   2.933   7.308   5.008
 5632TIP3    H216838   2.845   7.235   4.908
 5633TIP3   OH216839   6.577   6.767   3.288
 5633TIP3    H116840   6.613   6.815   3.363
 5633TIP3    H216841   6.649   6.710   3.259
 5634TIP3   OH216842   4.283   5.826   4.308
 5634TIP3    H116843   4.225   5.812   4.234
 5634TIP3    H216844   4.248   5.902   4.353
 5635TIP3   OH216845   1.214   3.401   5.418
 5635TIP3    H116846   1.290   3.409   5.476
 5635TIP3    H216847   1.163   3.481   5.435
 5636TIP3   OH216848   7.714   6.134   1.490
 5636TIP3    H116849   7.695   6.077   1.565
 5636TIP3    H216850   7.728   6.074   1.417
 5637TIP3   OH216851   2.851   2.713   3.068
 5637TIP3    H116852   2.912   2.665   3.124
 5637TIP3    H216853   2.905   2.740   2.993
 5638TIP3   OH216854   8.149   0.644   2.341
 5638TIP3    H116855   8.079   0.687   2.292
 5638TIP3    H216856   8.228   0.690   2.313
 5639TIP3   OH216857   1.232   0.082   5.388
 5639TIP3    H116858   1.283   0.150   5.344
 5639TIP3    H216859   1.152   0.075   5.336
 5640TIP3   OH216860   6.977   2.789   0.189
 5640TIP3    H116861   6.980   2.694   0.179
 5640TIP3    H216862   6.926   2.819   0.114
 5641TIP3   OH216863   2.946   4.143   4.773
 5641TIP3    H116864   2.944   4.053   4.741
 5641TIP3    H216865   2.957   4.134   4.868
 5642TIP3   OH216866   8.313   3.388   5.101
 5642TIP3    H116867   8.254   3.317   5.127
 5642TIP3    H216868   8.275   3.423   5.021
 5643TIP3   OH216869   2.899   5.233   0.190
 5643TIP3    H116870   2.826   5.245   0.251
 5643TIP3    H216871   2.965   5.186   0.240
 5644TIP3   OH216872   4.880   4.300   3.001
 5644TIP3    H116873   4.883   4.220   3.052
 5644TIP3    H216874   4.901   4.273   2.912
 5645TIP3   OH216875   4.673   3.533   2.318
 5645TIP3    H116876   4.757   3.532   2.271
 5645TIP3    H216877   4.669   3.447   2.360
 5646TIP3   OH216878   7.625   3.950   6.515
 5646TIP3    H116879   7.720   3.953   6.499
 5646TIP3    H216880   7.609   4.022   6.576
 5647TIP3   OH216881   0.954   4.229   0.950
 5647TIP3    H116882   0.879   4.171   0.962
 5647TIP3    H216883   0.967   4.271   1.035
 5648TIP3   OH216884   5.326   0.718   4.237
 5648TIP3    H116885   5.296   0.809   4.232
 5648TIP3    H216886   5.270   0.678   4.304
 5649TIP3   OH216887   6.490   0.335   2.684
 5649TIP3    H116888   6.505   0.246   2.654
 5649TIP3    H216889   6.512   0.333   2.777
 5650TIP3   OH216890   0.510   3.975   0.056
 5650TIP3    H116891   0.589   3.935   0.019
 5650TIP3    H216892   0.440   3.913   0.037
 5651TIP3   OH216893   3.626   3.982   1.125
 5651TIP3    H116894   3.718   3.959   1.109
 5651TIP3    H216895   3.594   4.011   1.039
 5652TIP3   OH216896   1.801   5.947   2.831
 5652TIP3    H116897   1.751   5.871   2.801
 5652TIP3    H216898   1.739   5.997   2.884
 5653TIP3   OH216899   1.061   2.716   4.053
 5653TIP3    H116900   0.981   2.736   4.102
 5653TIP3    H216901   1.073   2.790   3.994
 5654TIP3   OH216902   6.387   3.176   0.371
 5654TIP3    H116903   6.479   3.200   0.369
 5654TIP3    H216904   6.349   3.231   0.439
 5655TIP3   OH216905   7.701   6.396   1.429
 5655TIP3    H116906   7.695   6.303   1.451
 5655TIP3    H216907   7.783   6.404   1.381
 5656TIP3   OH216908   7.481   6.193   2.059
 5656TIP3    H116909   7.558   6.187   2.115
 5656TIP3    H216910   7.406   6.183   2.119
 5657TIP3   OH216911   3.517   0.144   3.334
 5657TIP3    H116912   3.430   0.112   3.310
 5657TIP3    H216913   3.573   0.066   3.330
 5658TIP3   OH216914   2.757   3.063   1.654
 5658TIP3    H116915   2.831   3.002   1.650
 5658TIP3    H216916   2.687   3.019   1.606
 5659TIP3   OH216917   3.223   3.883   2.306
 5659TIP3    H116918   3.187   3.795   2.318
 5659TIP3    H216919   3.316   3.869   2.292
 5660TIP3   OH216920   0.840   6.546   2.927
 5660TIP3    H116921   0.884   6.584   2.851
 5660TIP3    H216922   0.755   6.517   2.894
 5661TIP3   OH216923   2.103   0.159   2.984
 5661TIP3    H116924   2.149   0.235   2.948
 5661TIP3    H216925   2.014   0.166   2.949
 5662TIP3   OH216926   6.423   4.725   4.898
 5662TIP3    H116927   6.483   4.675   4.842
 5662TIP3    H216928   6.341   4.728   4.848
 5663TIP3   OH216929   0.014   6.905   2.596
 5663TIP3    H116930   0.069   6.839   2.553
 5663TIP3    H216931   0.008   6.976   2.532
 5664TIP3   OH216932   4.869   6.375   5.081
 5664TIP3    H116933   4.890   6.301   5.138
 5664TIP3    H216934   4.913   6.450   5.122
 5665TIP3   OH216935   8.096   6.982   4.502
 5665TIP3    H116936   8.181   7.023   4.518
 5665TIP3    H216937   8.032   7.046   4.534
 5666TIP3   OH216938   2.760   0.015   0.379
 5666TIP3    H116939   2.791  -0.072   0.356
 5666TIP3    H216940   2.691   0.034   0.315
 5667TIP3   OH216941   7.302   1.903   3.578
 5667TIP3    H116942   7.343   1.990   3.578
 5667TIP3    H216943   7.372   1.845   3.547
 5668TIP3   OH216944   7.352   7.618   1.562
 5668TIP3    H116945   7.282   7.572   1.515
 5668TIP3    H216946   7.350   7.708   1.527
 5669TIP3   OH216947   2.794   3.948   3.335
 5669TIP3    H116948   2.865   3.961   3.398
 5669TIP3    H216949   2.781   3.853   3.332
 5670TIP3   OH216950   5.975   7.181   3.693
 5670TIP3    H116951   5.895   7.195   3.744
 5670TIP3    H216952   6.038   7.149   3.757
 5671TIP3   OH216953   3.864   6.162   5.045
 5671TIP3    H116954   3.948   6.130   5.077
 5671TIP3    H216955   3.875   6.168   4.950
 5672TIP3   OH216956   2.101   1.606   1.883
 5672TIP3    H116957   2.017   1.624   1.926
 5672TIP3    H216958   2.118   1.514   1.902
 5673TIP3   OH216959   0.436   5.111   5.547
 5673TIP3    H116960   0.394   5.064   5.619
 5673TIP3    H216961   0.367   5.163   5.508
 5674TIP3   OH216962   2.220   7.286   6.680
 5674TIP3    H116963   2.273   7.362   6.655
 5674TIP3    H216964   2.232   7.224   6.609
 5675TIP3   OH216965   4.275   0.937   0.533
 5675TIP3    H116966   4.366   0.961   0.549
 5675TIP3    H216967   4.267   0.936   0.438
 5676TIP3   OH216968   4.188   0.588   6.269
 5676TIP3    H116969   4.188   0.683   6.270
 5676TIP3    H216970   4.141   0.563   6.349
 5677TIP3   OH216971   2.699   2.623   1.572
 5677TIP3    H116972   2.727   2.537   1.603
 5677TIP3    H216973   2.708   2.619   1.477
 5678TIP3   OH216974   1.059   4.386   1.823
 5678TIP3    H116975   1.116   4.364   1.896
 5678TIP3    H216976   1.119   4.408   1.751
 5679TIP3   OH216977   3.797   5.979   2.143
 5679TIP3    H116978   3.839   5.939   2.067
 5679TIP3    H216979   3.778   6.069   2.116
 5680TIP3   OH216980   6.309   1.664   1.169
 5680TIP3    H116981   6.362   1.735   1.204
 5680TIP3    H216982   6.219   1.692   1.183
 5681TIP3   OH216983   6.372   5.964   2.891
 5681TIP3    H116984   6.372   5.869   2.902
 5681TIP3    H216985   6.419   5.998   2.967
 5682TIP3   OH216986   0.923   0.006   0.021
 5682TIP3    H116987   0.952  -0.007   0.111
 5682TIP3    H216988   0.994  -0.030  -0.032
 5683TIP3   OH216989   8.018   6.362   0.370
 5683TIP3    H116990   8.036   6.268   0.358
 5683TIP3    H216991   8.097   6.405   0.337
 5684TIP3   OH216992   8.010   6.565   5.349
 5684TIP3    H116993   8.055   6.621   5.286
 5684TIP3    H216994   7.996   6.621   5.425
 5685TIP3   OH216995   1.773   6.372   5.100
 5685TIP3    H116996   1.708   6.427   5.058
 5685TIP3    H216997   1.726   6.290   5.120
 5686TIP3   OH216998   5.063   0.432   1.030
 5686TIP3    H116999   4.975   0.394   1.031
 5686TIP3    H217000   5.080   0.448   0.937
 5687TIP3   OH217001   6.686   6.193   4.086
 5687TIP3    H117002   6.732   6.176   4.004
 5687TIP3    H217003   6.688   6.289   4.095
 5688TIP3   OH217004   3.739   7.493   4.341
 5688TIP3    H117005   3.832   7.517   4.339
 5688TIP3    H217006   3.737   7.408   4.385
 5689TIP3   OH217007   7.705   7.401   5.815
 5689TIP3    H117008   7.696   7.375   5.724
 5689TIP3    H217009   7.645   7.344   5.863
 5690TIP3   OH217010   1.947   3.506   6.578
 5690TIP3    H117011   2.025   3.496   6.633
 5690TIP3    H217012   1.913   3.417   6.570
 5691TIP3   OH217013   4.919   6.536   3.916
 5691TIP3    H117014   4.920   6.483   3.836
 5691TIP3    H217015   4.898   6.475   3.986
 5692TIP3   OH217016   5.844   6.018   0.937
 5692TIP3    H117017   5.827   6.112   0.942
 5692TIP3    H217018   5.935   6.012   0.906
 5693TIP3   OH217019   6.889   0.467   6.715
 5693TIP3    H117020   6.856   0.521   6.643
 5693TIP3    H217021   6.949   0.405   6.673
 5694TIP3   OH217022   8.250   2.024   5.885
 5694TIP3    H117023   8.204   2.055   5.964
 5694TIP3    H217024   8.196   2.055   5.812
 5695TIP3   OH217025   7.868   3.616   4.125
 5695TIP3    H117026   7.791   3.560   4.128
 5695TIP3    H217027   7.942   3.556   4.117
 5696TIP3   OH217028   8.313   5.381   0.919
 5696TIP3    H117029   8.310   5.473   0.894
 5696TIP3    H217030   8.243   5.370   0.983
 5697TIP3   OH217031   4.968   4.022   3.393
 5697TIP3    H117032   5.023   4.074   3.452
 5697TIP3    H217033   4.979   3.932   3.425
 5698TIP3   OH217034   7.795   1.904   3.435
 5698TIP3    H117035   7.802   1.884   3.528
 5698TIP3    H217036   7.885   1.923   3.408
 5699TIP3   OH217037   5.252   4.931   1.889
 5699TIP3    H117038   5.190   4.858   1.885
 5699TIP3    H217039   5.206   5.004   1.848
 5700TIP3   OH217040   4.750   1.973   4.014
 5700TIP3    H117041   4.802   2.043   4.053
 5700TIP3    H217042   4.768   1.897   4.070
 5701TIP3   OH217043   0.786   2.734   6.382
 5701TIP3    H117044   0.755   2.759   6.469
 5701TIP3    H217045   0.707   2.737   6.327
 5702TIP3   OH217046   1.690   7.799   2.806
 5702TIP3    H117047   1.702   7.712   2.846
 5702TIP3    H217048   1.776   7.820   2.770
 5703TIP3   OH217049   6.875   3.393   5.028
 5703TIP3    H117050   6.919   3.378   4.944
 5703TIP3    H217051   6.875   3.308   5.071
 5704TIP3   OH217052   2.479   1.178   3.141
 5704TIP3    H117053   2.526   1.101   3.172
 5704TIP3    H217054   2.506   1.248   3.200
 5705TIP3   OH217055   6.724   1.674   0.515
 5705TIP3    H117056   6.688   1.628   0.439
 5705TIP3    H217057   6.659   1.662   0.583
 5706TIP3   OH217058   0.713   1.894   5.534
 5706TIP3    H117059   0.706   1.801   5.555
 5706TIP3    H217060   0.629   1.915   5.493
 5707TIP3   OH217061   7.394   4.167   0.675
 5707TIP3    H117062   7.326   4.100   0.682
 5707TIP3    H217063   7.352   4.247   0.709
 5708TIP3   OH217064   0.391   0.664   1.915
 5708TIP3    H117065   0.361   0.575   1.936
 5708TIP3    H217066   0.395   0.666   1.819
 5709TIP3   OH217067   2.777   1.953   0.574
 5709TIP3    H117068   2.751   1.961   0.666
 5709TIP3    H217069   2.712   2.005   0.527
 5710TIP3   OH217070   4.245   3.454   2.160
 5710TIP3    H117071   4.157   3.492   2.150
 5710TIP3    H217072   4.230   3.360   2.166
 5711TIP3   OH217073   8.368   0.741   6.142
 5711TIP3    H117074   8.306   0.810   6.164
 5711TIP3    H217075   8.314   0.672   6.102
 5712TIP3   OH217076   4.112   6.803   5.047
 5712TIP3    H117077   4.072   6.743   5.109
 5712TIP3    H217078   4.203   6.812   5.077
 5713TIP3   OH217079   4.614   4.043   4.324
 5713TIP3    H117080   4.582   3.963   4.364
 5713TIP3    H217081   4.569   4.047   4.239
 5714TIP3   OH217082   0.889   5.252   0.620
 5714TIP3    H117083   0.850   5.203   0.548
 5714TIP3    H217084   0.931   5.185   0.674
 5715TIP3   OH217085   3.342   7.243   0.722
 5715TIP3    H117086   3.285   7.263   0.647
 5715TIP3    H217087   3.289   7.262   0.799
 5716TIP3   OH217088   4.779   1.889   6.077
 5716TIP3    H117089   4.747   1.939   6.002
 5716TIP3    H217090   4.862   1.853   6.049
 5717TIP3   OH217091   3.987   0.533   6.485
 5717TIP3    H117092   3.924   0.494   6.545
 5717TIP3    H217093   3.936   0.594   6.432
 5718TIP3   OH217094   2.747   4.357   3.683
 5718TIP3    H117095   2.773   4.409   3.606
 5718TIP3    H217096   2.784   4.270   3.666
 5719TIP3   OH217097   1.685   4.741   5.995
 5719TIP3    H117098   1.621   4.808   5.972
 5719TIP3    H217099   1.714   4.706   5.910
 5720TIP3   OH217100   8.060   4.451   2.690
 5720TIP3    H117101   8.059   4.482   2.781
 5720TIP3    H217102   8.117   4.374   2.692
 5721TIP3   OH217103   7.557   5.038   0.348
 5721TIP3    H117104   7.538   5.132   0.342
 5721TIP3    H217105   7.531   5.003   0.262
 5722TIP3   OH217106   1.531   4.058   1.796
 5722TIP3    H117107   1.457   4.084   1.742
 5722TIP3    H217108   1.587   4.007   1.737
 5723TIP3   OH217109   5.327   5.925   0.295
 5723TIP3    H117110   5.381   5.846   0.306
 5723TIP3    H217111   5.384   5.987   0.251
 5724TIP3   OH217112   4.878   3.989   4.204
 5724TIP3    H117113   4.835   3.933   4.140
 5724TIP3    H217114   4.811   4.007   4.270
 5725TIP3   OH217115   0.291   1.274   6.621
 5725TIP3    H117116   0.221   1.220   6.659
 5725TIP3    H217117   0.330   1.218   6.554
 5726TIP3   OH217118   6.109   0.175   1.431
 5726TIP3    H117119   6.185   0.124   1.401
 5726TIP3    H217120   6.147   0.245   1.485
 5727TIP3   OH217121   3.324   4.721   5.701
 5727TIP3    H117122   3.293   4.809   5.725
 5727TIP3    H217123   3.303   4.666   5.776
 5728TIP3   OH217124   5.373   7.528   3.513
 5728TIP3    H117125   5.335   7.465   3.574
 5728TIP3    H217126   5.298   7.572   3.474
 5729TIP3   OH217127   4.933   2.557   6.688
 5729TIP3    H117128   4.912   2.483   6.745
 5729TIP3    H217129   5.026   2.572   6.701
 5730TIP3   OH217130   6.389   4.980   5.834
 5730TIP3    H117131   6.429   4.928   5.903
 5730TIP3    H217132   6.305   5.008   5.870
 5731TIP3   OH217133   0.109   2.946   1.004
 5731TIP3    H117134   0.204   2.951   1.002
 5731TIP3    H217135   0.089   2.902   1.086
 5732TIP3   OH217136   2.257   2.151   5.998
 5732TIP3    H117137   2.221   2.203   5.925
 5732TIP3    H217138   2.238   2.061   5.974
 5733TIP3   OH217139   1.531   6.533   1.247
 5733TIP3    H117140   1.461   6.481   1.208
 5733TIP3    H217141   1.562   6.589   1.176
 5734TIP3   OH217142   5.961   2.916   3.229
 5734TIP3    H117143   6.000   2.840   3.185
 5734TIP3    H217144   6.001   2.916   3.315
 5735TIP3   OH217145   7.861   2.082   0.196
 5735TIP3    H117146   7.845   2.173   0.222
 5735TIP3    H217147   7.774   2.048   0.173
 5736TIP3   OH217148   6.732   1.075   3.094
 5736TIP3    H117149   6.721   1.015   3.168
 5736TIP3    H217150   6.786   1.026   3.032
 5737TIP3   OH217151   6.973   7.469   6.269
 5737TIP3    H117152   6.981   7.381   6.232
 5737TIP3    H217153   7.013   7.462   6.356
 5738TIP3   OH217154   4.696   0.193   5.205
 5738TIP3    H117155   4.753   0.253   5.255
 5738TIP3    H217156   4.607   0.223   5.224
 5739TIP3   OH217157   3.286   4.600   3.594
 5739TIP3    H117158   3.350   4.654   3.640
 5739TIP3    H217159   3.261   4.651   3.517
 5740TIP3   OH217160   0.072   3.657   6.121
 5740TIP3    H117161   0.036   3.641   6.034
 5740TIP3    H217162  -0.004   3.669   6.177
 5741TIP3   OH217163   3.097   5.830   6.616
 5741TIP3    H117164   3.135   5.765   6.675
 5741TIP3    H217165   3.163   5.898   6.609
 5742TIP3   OH217166   2.430   3.708   1.543
 5742TIP3    H117167   2.443   3.643   1.612
 5742TIP3    H217168   2.464   3.790   1.579
 5743TIP3   OH217169   7.616   2.106   2.446
 5743TIP3    H117170   7.568   2.041   2.395
 5743TIP3    H217171   7.554   2.135   2.513
 5744TIP3   OH217172   2.876   1.902   5.063
 5744TIP3    H117173   2.863   1.899   5.158
 5744TIP3    H217174   2.968   1.925   5.053
 5745TIP3   OH217175   4.558   6.747   1.593
 5745TIP3    H117176   4.474   6.702   1.597
 5745TIP3    H217177   4.623   6.680   1.616
 5746TIP3   OH217178   5.680   1.261   3.248
 5746TIP3    H117179   5.767   1.300   3.240
 5746TIP3    H217180   5.630   1.325   3.299
 5747TIP3   OH217181   8.254   4.756   4.306
 5747TIP3    H117182   8.278   4.681   4.252
 5747TIP3    H217183   8.242   4.719   4.394
 5748TIP3   OH217184   4.650   2.438   2.830
 5748TIP3    H117185   4.726   2.426   2.773
 5748TIP3    H217186   4.574   2.423   2.773
 5749TIP3   OH217187   7.964   5.512   3.705
 5749TIP3    H117188   7.949   5.568   3.782
 5749TIP3    H217189   7.882   5.514   3.657
 5750TIP3   OH217190   7.152   1.417   0.912
 5750TIP3    H117191   7.059   1.394   0.904
 5750TIP3    H217192   7.158   1.460   0.997
 5751TIP3   OH217193   1.564   7.859   6.346
 5751TIP3    H117194   1.534   7.903   6.426
 5751TIP3    H217195   1.654   7.835   6.364
 5752TIP3   OH217196   1.028   7.498   5.871
 5752TIP3    H117197   1.080   7.469   5.796
 5752TIP3    H217198   1.036   7.426   5.934
 5753TIP3   OH217199   7.743   2.612   0.277
 5753TIP3    H117200   7.667   2.554   0.282
 5753TIP3    H217201   7.806   2.565   0.224
 5754TIP3   OH217202   5.176   0.900   4.472
 5754TIP3    H117203   5.153   0.926   4.561
 5754TIP3    H217204   5.162   0.806   4.471
 5755TIP3   OH217205   7.231   5.003   6.469
 5755TIP3    H117206   7.203   4.912   6.472
 5755TIP3    H217207   7.159   5.049   6.425
 5756TIP3   OH217208   2.948   0.921   1.753
 5756TIP3    H117209   3.026   0.872   1.778
 5756TIP3    H217210   2.881   0.895   1.816
 5757TIP3   OH217211   7.959   3.430   4.873
 5757TIP3    H117212   8.050   3.434   4.843
 5757TIP3    H217213   7.911   3.396   4.798
 5758TIP3   OH217214   2.626   5.005   0.739
 5758TIP3    H117215   2.650   5.080   0.685
 5758TIP3    H217216   2.600   5.044   0.823
 5759TIP3   OH217217   5.983   2.219   6.446
 5759TIP3    H117218   6.051   2.208   6.381
 5759TIP3    H217219   5.968   2.132   6.481
 5760TIP3   OH217220   5.741   5.853   4.193
 5760TIP3    H117221   5.821   5.902   4.172
 5760TIP3    H217222   5.691   5.853   4.111
 5761TIP3   OH217223   6.666   0.218   4.407
 5761TIP3    H117224   6.608   0.294   4.409
 5761TIP3    H217225   6.609   0.144   4.387
 5762TIP3   OH217226   3.745   6.146   2.800
 5762TIP3    H117227   3.666   6.096   2.820
 5762TIP3    H217228   3.812   6.110   2.858
 5763TIP3   OH217229   7.541   6.807   0.745
 5763TIP3    H117230   7.565   6.798   0.837
 5763TIP3    H217231   7.564   6.722   0.706
 5764TIP3   OH217232   7.598   2.741   5.755
 5764TIP3    H117233   7.670   2.734   5.817
 5764TIP3    H217234   7.520   2.723   5.807
 5765TIP3   OH217235   0.316   4.934   2.296
 5765TIP3    H117236   0.289   4.922   2.387
 5765TIP3    H217237   0.301   5.027   2.279
 5766TIP3   OH217238   6.538   2.866   4.957
 5766TIP3    H117239   6.508   2.809   4.887
 5766TIP3    H217240   6.557   2.806   5.030
 5767TIP3   OH217241   4.047   1.285   5.251
 5767TIP3    H117242   3.964   1.313   5.289
 5767TIP3    H217243   4.048   1.324   5.164
 5768TIP3   OH217244   2.066   3.318   1.848
 5768TIP3    H117245   1.972   3.331   1.853
 5768TIP3    H217246   2.081   3.233   1.890
 5769TIP3   OH217247   4.711   7.054   4.322
 5769TIP3    H117248   4.708   7.130   4.379
 5769TIP3    H217249   4.700   6.979   4.380
 5770TIP3   OH217250   5.695   1.458   5.957
 5770TIP3    H117251   5.713   1.385   6.015
 5770TIP3    H217252   5.644   1.519   6.010
 5771TIP3   OH217253   2.990   6.014   3.904
 5771TIP3    H117254   2.959   5.936   3.858
 5771TIP3    H217255   2.911   6.058   3.933
 5772TIP3   OH217256   5.593   1.097   1.881
 5772TIP3    H117257   5.582   1.143   1.964
 5772TIP3    H217258   5.571   1.162   1.814
 5773TIP3   OH217259   5.464   3.961   2.805
 5773TIP3    H117260   5.491   4.050   2.780
 5773TIP3    H217261   5.430   3.923   2.724
 5774TIP3   OH217262   4.146   4.793   3.909
 5774TIP3    H117263   4.051   4.796   3.918
 5774TIP3    H217264   4.169   4.701   3.920
 5775TIP3   OH217265   2.796   2.372   3.238
 5775TIP3    H117266   2.705   2.385   3.213
 5775TIP3    H217267   2.828   2.459   3.260
 5776TIP3   OH217268   2.827   6.214   0.136
 5776TIP3    H117269   2.855   6.201   0.045
 5776TIP3    H217270   2.743   6.170   0.142
 5777TIP3   OH217271   1.378   4.424   6.398
 5777TIP3    H117272   1.352   4.332   6.401
 5777TIP3    H217273   1.473   4.422   6.386
 5778TIP3   OH217274   5.664   5.115   0.813
 5778TIP3    H117275   5.685   5.202   0.778
 5778TIP3    H217276   5.650   5.130   0.907
 5779TIP3   OH217277   4.399   7.775   5.710
 5779TIP3    H117278   4.465   7.826   5.663
 5779TIP3    H217279   4.439   7.754   5.794
 5780TIP3   OH217280   4.215   5.623   2.857
 5780TIP3    H117281   4.298   5.646   2.816
 5780TIP3    H217282   4.198   5.533   2.828
 5781TIP3   OH217283   0.695   6.798   1.612
 5781TIP3    H117284   0.765   6.784   1.676
 5781TIP3    H217285   0.614   6.782   1.661
 5782TIP3   OH217286   7.902   5.837   3.011
 5782TIP3    H117287   7.915   5.764   2.951
 5782TIP3    H217288   7.933   5.804   3.095
 5783TIP3   OH217289   5.600   7.827   5.418
 5783TIP3    H117290   5.621   7.866   5.334
 5783TIP3    H217291   5.531   7.884   5.454
 5784TIP3   OH217292   0.097   1.436   0.594
 5784TIP3    H117293   0.073   1.476   0.510
 5784TIP3    H217294   0.170   1.489   0.626
 5785TIP3   OH217295   2.994   7.175   0.570
 5785TIP3    H117296   2.979   7.083   0.548
 5785TIP3    H217297   3.012   7.174   0.664
 5786TIP3   OH217298   0.286   4.325   4.726
 5786TIP3    H117299   0.242   4.364   4.651
 5786TIP3    H217300   0.378   4.349   4.716
 5787TIP3   OH217301   3.502   0.617   5.359
 5787TIP3    H117302   3.424   0.564   5.340
 5787TIP3    H217303   3.575   0.556   5.351
 5788TIP3   OH217304   1.757   4.764   3.742
 5788TIP3    H117305   1.693   4.716   3.795
 5788TIP3    H217306   1.800   4.822   3.804
 5789TIP3   OH217307   2.311   5.040   2.540
 5789TIP3    H117308   2.298   4.952   2.575
 5789TIP3    H217309   2.227   5.062   2.499
 5790TIP3   OH217310   5.514   0.125   3.014
 5790TIP3    H117311   5.540   0.211   3.046
 5790TIP3    H217312   5.446   0.142   2.950
 5791TIP3   OH217313   6.929   4.353   5.576
 5791TIP3    H117314   6.984   4.277   5.555
 5791TIP3    H217315   6.845   4.316   5.603
 5792TIP3   OH217316   8.172   1.627   4.232
 5792TIP3    H117317   8.126   1.625   4.148
 5792TIP3    H217318   8.241   1.692   4.220
 5793TIP3   OH217319   7.568   3.013   3.266
 5793TIP3    H117320   7.473   3.004   3.264
 5793TIP3    H217321   7.601   2.924   3.254
 5794TIP3   OH217322   3.286   1.484   0.963
 5794TIP3    H117323   3.298   1.408   0.906
 5794TIP3    H217324   3.230   1.451   1.034
 5795TIP3   OH217325   2.700   6.681   4.250
 5795TIP3    H117326   2.669   6.597   4.284
 5795TIP3    H217327   2.764   6.656   4.182
 5796TIP3   OH217328   7.425   7.547   4.851
 5796TIP3    H117329   7.486   7.484   4.891
 5796TIP3    H217330   7.341   7.501   4.850
 5797TIP3   OH217331   5.856   0.091   1.517
 5797TIP3    H117332   5.790   0.107   1.450
 5797TIP3    H217333   5.937   0.125   1.481
 5798TIP3   OH217334   0.733   0.772   4.529
 5798TIP3    H117335   0.673   0.814   4.590
 5798TIP3    H217336   0.795   0.841   4.504
 5799TIP3   OH217337   6.813   5.708   0.833
 5799TIP3    H117338   6.764   5.704   0.751
 5799TIP3    H217339   6.746   5.704   0.901
 5800TIP3   OH217340   6.994   2.731   3.197
 5800TIP3    H117341   7.065   2.676   3.231
 5800TIP3    H217342   6.963   2.780   3.273
 5801TIP3   OH217343   0.710   4.967   6.489
 5801TIP3    H117344   0.710   5.026   6.564
 5801TIP3    H217345   0.802   4.943   6.478
 5802TIP3   OH217346   1.902   0.766   4.459
 5802TIP3    H117347   1.918   0.754   4.552
 5802TIP3    H217348   1.932   0.854   4.440
 5803TIP3   OH217349   6.515   6.901   4.523
 5803TIP3    H117350   6.488   6.900   4.615
 5803TIP3    H217351   6.432   6.905   4.474
 5804TIP3   OH217352   1.841   1.730   1.459
 5804TIP3    H117353   1.883   1.802   1.411
 5804TIP3    H217354   1.913   1.683   1.500
 5805TIP3   OH217355   2.781   4.945   5.135
 5805TIP3    H117356   2.871   4.977   5.133
 5805TIP3    H217357   2.727   5.023   5.119
 5806TIP3   OH217358   5.427   0.496   2.156
 5806TIP3    H117359   5.497   0.443   2.118
 5806TIP3    H217360   5.463   0.529   2.238
 5807TIP3   OH217361   7.955   1.217   0.303
 5807TIP3    H117362   7.988   1.305   0.322
 5807TIP3    H217363   7.860   1.227   0.302
 5808TIP3   OH217364   4.132   3.227   0.609
 5808TIP3    H117365   4.108   3.314   0.640
 5808TIP3    H217366   4.179   3.243   0.527
 5809TIP3   OH217367   1.049   7.719   6.508
 5809TIP3    H117368   1.110   7.789   6.484
 5809TIP3    H217369   1.066   7.650   6.444
 5810TIP3   OH217370   8.180   3.121   1.527
 5810TIP3    H117371   8.258   3.099   1.475
 5810TIP3    H217372   8.110   3.131   1.463
 5811TIP3   OH217373   0.812   6.903   4.946
 5811TIP3    H117374   0.892   6.853   4.965
 5811TIP3    H217375   0.836   6.959   4.872
 5812TIP3   OH217376   4.822   4.464   5.297
 5812TIP3    H117377   4.900   4.432   5.252
 5812TIP3    H217378   4.788   4.533   5.241
 5813TIP3   OH217379   1.345   6.540   5.142
 5813TIP3    H117380   1.264   6.555   5.095
 5813TIP3    H217381   1.352   6.612   5.204
 5814TIP3   OH217382   0.790   1.787   1.584
 5814TIP3    H117383   0.736   1.790   1.663
 5814TIP3    H217384   0.793   1.694   1.560
 5815TIP3   OH217385   1.629   6.487   1.767
 5815TIP3    H117386   1.543   6.492   1.726
 5815TIP3    H217387   1.689   6.521   1.701
 5816TIP3   OH217388   2.139   5.326   5.710
 5816TIP3    H117389   2.066   5.305   5.768
 5816TIP3    H217390   2.176   5.241   5.686
 5817TIP3   OH217391   6.760   0.678   4.760
 5817TIP3    H117392   6.839   0.714   4.797
 5817TIP3    H217393   6.689   0.712   4.814
 5818TIP3   OH217394   7.084   2.971   5.138
 5818TIP3    H117395   7.117   2.963   5.048
 5818TIP3    H217396   7.158   2.944   5.193
 5819TIP3   OH217397   6.576   1.041   2.876
 5819TIP3    H117398   6.608   1.062   2.964
 5819TIP3    H217399   6.594   0.948   2.865
 5820TIP3   OH217400   5.046   4.741   0.614
 5820TIP3    H117401   4.997   4.699   0.543
 5820TIP3    H217402   5.138   4.727   0.590
 5821TIP3   OH217403   5.938   0.924   4.492
 5821TIP3    H117404   6.033   0.933   4.500
 5821TIP3    H217405   5.903   0.986   4.556
 5822TIP3   OH217406   1.906   2.362   0.900
 5822TIP3    H117407   1.852   2.297   0.855
 5822TIP3    H217408   1.851   2.396   0.970
 5823TIP3   OH217409   3.997   5.998   6.151
 5823TIP3    H117410   3.983   6.032   6.063
 5823TIP3    H217411   3.916   5.949   6.170
 5824TIP3   OH217412   0.399   5.219   0.253
 5824TIP3    H117413   0.427   5.311   0.255
 5824TIP3    H217414   0.481   5.170   0.250
 5825TIP3   OH217415   5.819   5.103   0.188
 5825TIP3    H117416   5.754   5.119   0.256
 5825TIP3    H217417   5.769   5.075   0.112
 5826TIP3   OH217418   7.040   0.349   4.576
 5826TIP3    H117419   7.069   0.285   4.641
 5826TIP3    H217420   7.026   0.429   4.627
 5827TIP3   OH217421   7.166   5.397   5.822
 5827TIP3    H117422   7.182   5.470   5.881
 5827TIP3    H217423   7.124   5.331   5.878
 5828TIP3   OH217424   7.137   1.336   1.692
 5828TIP3    H117425   7.116   1.368   1.780
 5828TIP3    H217426   7.228   1.308   1.697
 5829TIP3   OH217427   4.709   1.416   2.265
 5829TIP3    H117428   4.673   1.412   2.176
 5829TIP3    H217429   4.717   1.510   2.284
 5830TIP3   OH217430   0.291   7.643   3.188
 5830TIP3    H117431   0.358   7.574   3.185
 5830TIP3    H217432   0.316   7.697   3.263
 5831TIP3   OH217433   2.010   6.733   6.807
 5831TIP3    H117434   2.062   6.697   6.879
 5831TIP3    H217435   1.951   6.662   6.783
 5832TIP3   OH217436   4.500   2.926   0.921
 5832TIP3    H117437   4.410   2.953   0.936
 5832TIP3    H217438   4.553   3.001   0.950
 5833TIP3   OH217439   2.521   0.686   0.839
 5833TIP3    H117440   2.426   0.692   0.850
 5833TIP3    H217441   2.552   0.776   0.851
 5834TIP3   OH217442   0.758   2.768   2.473
 5834TIP3    H117443   0.753   2.863   2.460
 5834TIP3    H217444   0.796   2.735   2.391
 5835TIP3   OH217445   6.531   5.472   2.706
 5835TIP3    H117446   6.489   5.467   2.620
 5835TIP3    H217447   6.471   5.522   2.760
 5836TIP3   OH217448   3.033   1.946   1.332
 5836TIP3    H117449   2.989   1.922   1.251
 5836TIP3    H217450   3.000   1.885   1.398
 5837TIP3   OH217451   0.163   3.725   3.583
 5837TIP3    H117452   0.131   3.642   3.617
 5837TIP3    H217453   0.228   3.754   3.648
 5838TIP3   OH217454   3.239   5.167   3.152
 5838TIP3    H117455   3.316   5.177   3.096
 5838TIP3    H217456   3.165   5.168   3.092
 5839TIP3   OH217457   5.504   2.332   5.476
 5839TIP3    H117458   5.595   2.360   5.487
 5839TIP3    H217459   5.491   2.269   5.547
 5840TIP3   OH217460   0.650   3.184   0.401
 5840TIP3    H117461   0.678   3.264   0.355
 5840TIP3    H217462   0.557   3.175   0.378
 5841TIP3   OH217463   1.290   3.220   2.548
 5841TIP3    H117464   1.257   3.272   2.475
 5841TIP3    H217465   1.377   3.255   2.565
 5842TIP3   OH217466   8.418   0.339   0.818
 5842TIP3    H117467   8.358   0.411   0.840
 5842TIP3    H217468   8.371   0.289   0.751
 5843TIP3   OH217469   4.565   3.901   1.182
 5843TIP3    H117470   4.635   3.925   1.121
 5843TIP3    H217471   4.598   3.928   1.267
 5844TIP3   OH217472   0.327   4.139   3.730
 5844TIP3    H117473   0.343   4.134   3.636
 5844TIP3    H217474   0.411   4.119   3.771
 5845TIP3   OH217475   7.197   5.210   2.331
 5845TIP3    H117476   7.158   5.213   2.244
 5845TIP3    H217477   7.125   5.183   2.388
 5846TIP3   OH217478   3.669   1.273   5.643
 5846TIP3    H117479   3.678   1.277   5.738
 5846TIP3    H217480   3.673   1.365   5.614
 5847TIP3   OH217481   6.308   7.308   5.119
 5847TIP3    H117482   6.310   7.267   5.206
 5847TIP3    H217483   6.374   7.377   5.124
 5848TIP3   OH217484   3.634   3.889   5.891
 5848TIP3    H117485   3.689   3.860   5.818
 5848TIP3    H217486   3.623   3.983   5.877
 5849TIP3   OH217487   1.492   5.570   4.955
 5849TIP3    H117488   1.450   5.616   5.028
 5849TIP3    H217489   1.566   5.626   4.931
 5850TIP3   OH217490   6.348   1.565   2.456
 5850TIP3    H117491   6.411   1.510   2.503
 5850TIP3    H217492   6.274   1.572   2.516
 5851TIP3   OH217493   3.449   2.982   6.028
 5851TIP3    H117494   3.394   2.923   6.078
 5851TIP3    H217495   3.504   2.925   5.974
 5852TIP3   OH217496   0.371   4.463   0.099
 5852TIP3    H117497   0.422   4.389   0.067
 5852TIP3    H217498   0.405   4.481   0.186
 5853TIP3   OH217499   3.409   5.891   4.178
 5853TIP3    H117500   3.445   5.899   4.090
 5853TIP3    H217501   3.347   5.964   4.185
 5854TIP3   OH217502   1.066   6.841   5.131
 5854TIP3    H117503   1.117   6.902   5.078
 5854TIP3    H217504   1.068   6.878   5.219
 5855TIP3   OH217505   0.125   0.008   3.953
 5855TIP3    H117506   0.147  -0.073   4.000
 5855TIP3    H217507   0.106  -0.021   3.864
 5856TIP3   OH217508   1.288   4.839   5.031
 5856TIP3    H117509   1.246   4.753   5.038
 5856TIP3    H217510   1.376   4.826   5.068
 5857TIP3   OH217511   0.154   4.492   4.987
 5857TIP3    H117512   0.144   4.580   5.024
 5857TIP3    H217513   0.241   4.491   4.948
 5858TIP3   OH217514   6.765   6.178   4.731
 5858TIP3    H117515   6.691   6.123   4.757
 5858TIP3    H217516   6.730   6.266   4.728
 5859TIP3   OH217517   3.206   7.307   0.135
 5859TIP3    H117518   3.151   7.277   0.208
 5859TIP3    H217519   3.154   7.289   0.057
 5860TIP3   OH217520   8.263   6.584   1.881
 5860TIP3    H117521   8.194   6.521   1.861
 5860TIP3    H217522   8.219   6.652   1.932
 5861TIP3   OH217523   6.771   2.482   5.122
 5861TIP3    H117524   6.859   2.508   5.096
 5861TIP3    H217525   6.784   2.403   5.174
 5862TIP3   OH217526   5.309   4.863   6.477
 5862TIP3    H117527   5.316   4.954   6.448
 5862TIP3    H217528   5.216   4.842   6.467
 5863TIP3   OH217529   0.796   0.814   4.947
 5863TIP3    H117530   0.840   0.818   4.862
 5863TIP3    H217531   0.868   0.806   5.010
 5864TIP3   OH217532   7.711   6.162   1.893
 5864TIP3    H117533   7.624   6.180   1.929
 5864TIP3    H217534   7.738   6.080   1.934
 5865TIP3   OH217535   5.245   4.375   0.022
 5865TIP3    H117536   5.192   4.427  -0.039
 5865TIP3    H217537   5.276   4.439   0.086
 5866TIP3   OH217538   0.446   3.879   4.405
 5866TIP3    H117539   0.456   3.826   4.484
 5866TIP3    H217540   0.423   3.966   4.437
 5867TIP3   OH217541   5.125   1.260   3.824
 5867TIP3    H117542   5.174   1.223   3.897
 5867TIP3    H217543   5.044   1.293   3.863
 5868TIP3   OH217544   0.621   5.409   6.807
 5868TIP3    H117545   0.576   5.456   6.877
 5868TIP3    H217546   0.706   5.385   6.844
 5869TIP3   OH217547   3.132   0.260   4.003
 5869TIP3    H117548   3.065   0.287   4.066
 5869TIP3    H217549   3.119   0.319   3.928
 5870TIP3   OH217550   2.262   7.149   4.866
 5870TIP3    H117551   2.274   7.073   4.810
 5870TIP3    H217552   2.331   7.210   4.840
 5871TIP3   OH217553   5.033   6.976   5.122
 5871TIP3    H117554   5.034   6.909   5.053
 5871TIP3    H217555   5.022   7.059   5.075
 5872TIP3   OH217556   2.384   0.426   5.717
 5872TIP3    H117557   2.454   0.386   5.665
 5872TIP3    H217558   2.424   0.505   5.754
 5873TIP3   OH217559   4.353   3.409   6.196
 5873TIP3    H117560   4.322   3.326   6.159
 5873TIP3    H217561   4.412   3.384   6.267
 5874TIP3   OH217562   6.670   7.629   0.539
 5874TIP3    H117563   6.611   7.606   0.467
 5874TIP3    H217564   6.757   7.627   0.499
 5875TIP3   OH217565   1.560   4.812   5.501
 5875TIP3    H117566   1.555   4.804   5.596
 5875TIP3    H217567   1.645   4.775   5.478
 5876TIP3   OH217568   6.743   5.878   5.652
 5876TIP3    H117569   6.780   5.843   5.733
 5876TIP3    H217570   6.773   5.818   5.584
 5877TIP3   OH217571   1.041   4.428   2.870
 5877TIP3    H117572   1.023   4.438   2.963
 5877TIP3    H217573   0.966   4.378   2.837
 5878TIP3   OH217574   0.322   0.362   3.384
 5878TIP3    H117575   0.309   0.344   3.291
 5878TIP3    H217576   0.292   0.283   3.428
 5879TIP3   OH217577   7.173   6.899   3.108
 5879TIP3    H117578   7.254   6.948   3.097
 5879TIP3    H217579   7.189   6.845   3.186
 5880TIP3   OH217580   6.091   2.223   1.373
 5880TIP3    H117581   6.060   2.308   1.403
 5880TIP3    H217582   6.113   2.176   1.454
 5881TIP3   OH217583   0.792   7.821   1.849
 5881TIP3    H117584   0.808   7.799   1.757
 5881TIP3    H217585   0.734   7.751   1.880
 5882TIP3   OH217586  -0.009   5.860   1.186
 5882TIP3    H117587  -0.102   5.871   1.168
 5882TIP3    H217588   0.033   5.861   1.100
 5883TIP3   OH217589   8.139   2.524   4.487
 5883TIP3    H117590   8.222   2.503   4.445
 5883TIP3    H217591   8.156   2.514   4.581
 5884TIP3   OH217592   2.780   7.411   0.989
 5884TIP3    H117593   2.728   7.362   0.925
 5884TIP3    H217594   2.839   7.346   1.026
 5885TIP3   OH217595   3.827   0.532   5.959
 5885TIP3    H117596   3.898   0.489   6.007
 5885TIP3    H217597   3.839   0.505   5.868
 5886TIP3   OH217598   7.013   3.371   5.518
 5886TIP3    H117599   7.001   3.294   5.462
 5886TIP3    H217600   6.999   3.338   5.607
 5887TIP3   OH217601   6.274   3.092   1.539
 5887TIP3    H117602   6.335   3.119   1.607
 5887TIP3    H217603   6.230   3.015   1.576
 5888TIP3   OH217604   7.170   5.865   3.308
 5888TIP3    H117605   7.118   5.849   3.230
 5888TIP3    H217606   7.184   5.778   3.346
 5889TIP3   OH217607   0.806   1.704   1.150
 5889TIP3    H117608   0.712   1.694   1.132
 5889TIP3    H217609   0.848   1.692   1.065
 5890TIP3   OH217610   1.881   7.354   3.498
 5890TIP3    H117611   1.951   7.325   3.440
 5890TIP3    H217612   1.850   7.274   3.541
 5891TIP3   OH217613   3.624   2.360   1.724
 5891TIP3    H117614   3.614   2.294   1.792
 5891TIP3    H217615   3.689   2.421   1.758
 5892TIP3   OH217616   5.969   5.748   5.204
 5892TIP3    H117617   6.061   5.742   5.178
 5892TIP3    H217618   5.970   5.745   5.300
 5893TIP3   OH217619   2.581   5.919   4.612
 5893TIP3    H117620   2.646   5.893   4.547
 5893TIP3    H217621   2.499   5.927   4.564
 5894TIP3   OH217622   2.658   5.304   4.412
 5894TIP3    H117623   2.740   5.302   4.362
 5894TIP3    H217624   2.656   5.220   4.457
 5895TIP3   OH217625   7.397   0.678   5.069
 5895TIP3    H117626   7.450   0.742   5.022
 5895TIP3    H217627   7.413   0.595   5.024
 5896TIP3   OH217628   6.825   4.792   2.688
 5896TIP3    H117629   6.791   4.832   2.608
 5896TIP3    H217630   6.823   4.862   2.753
 5897TIP3   OH217631   1.787   4.903   1.610
 5897TIP3    H117632   1.765   4.987   1.570
 5897TIP3    H217633   1.792   4.921   1.704
 5898TIP3   OH217634   2.457   6.192   3.174
 5898TIP3    H117635   2.465   6.160   3.084
 5898TIP3    H217636   2.497   6.122   3.227
 5899TIP3   OH217637   2.372   2.767   0.086
 5899TIP3    H117638   2.316   2.692   0.068
 5899TIP3    H217639   2.435   2.735   0.152
 5900TIP3   OH217640   6.752   1.214   5.971
 5900TIP3    H117641   6.727   1.241   5.883
 5900TIP3    H217642   6.700   1.136   5.988
 5901TIP3   OH217643   5.301   4.182   1.967
 5901TIP3    H117644   5.351   4.254   2.003
 5901TIP3    H217645   5.361   4.108   1.967
 5902TIP3   OH217646   2.864   2.154   2.776
 5902TIP3    H117647   2.796   2.221   2.772
 5902TIP3    H217648   2.840   2.090   2.709
 5903TIP3   OH217649   7.422   6.109   2.343
 5903TIP3    H117650   7.437   6.039   2.408
 5903TIP3    H217651   7.492   6.172   2.360
 5904TIP3   OH217652   4.860   6.842   1.517
 5904TIP3    H117653   4.871   6.763   1.463
 5904TIP3    H217654   4.777   6.880   1.487
 5905TIP3   OH217655   5.889   7.253   0.750
 5905TIP3    H117656   5.862   7.330   0.800
 5905TIP3    H217657   5.906   7.186   0.816
 5906TIP3   OH217658   3.939   3.663   1.767
 5906TIP3    H117659   3.943   3.572   1.798
 5906TIP3    H217660   3.860   3.698   1.808
 5907TIP3   OH217661   6.656   7.662   4.087
 5907TIP3    H117662   6.713   7.587   4.105
 5907TIP3    H217663   6.615   7.641   4.003
 5908TIP3   OH217664   5.401   7.598   1.475
 5908TIP3    H117665   5.386   7.561   1.388
 5908TIP3    H217666   5.490   7.570   1.497
 5909TIP3   OH217667   7.032   0.444   3.377
 5909TIP3    H117668   7.087   0.515   3.342
 5909TIP3    H217669   7.053   0.441   3.470
 5910TIP3   OH217670   2.279   7.740   3.747
 5910TIP3    H117671   2.207   7.797   3.773
 5910TIP3    H217672   2.246   7.652   3.761
 5911TIP3   OH217673   8.329   4.932   2.985
 5911TIP3    H117674   8.356   4.892   2.903
 5911TIP3    H217675   8.313   4.857   3.044
 5912TIP3   OH217676   3.779   3.514   3.347
 5912TIP3    H117677   3.730   3.587   3.383
 5912TIP3    H217678   3.871   3.539   3.357
 5913TIP3   OH217679   1.591   5.047   3.986
 5913TIP3    H117680   1.522   5.028   3.921
 5913TIP3    H217681   1.661   5.088   3.935
 5914TIP3   OH217682   7.628   6.836   6.565
 5914TIP3    H117683   7.636   6.756   6.512
 5914TIP3    H217684   7.706   6.886   6.544
 5915TIP3   OH217685   6.237   2.005   6.643
 5915TIP3    H117686   6.224   1.961   6.559
 5915TIP3    H217687   6.294   1.946   6.693
 5916TIP3   OH217688   0.282   1.348   1.950
 5916TIP3    H117689   0.269   1.333   1.856
 5916TIP3    H217690   0.343   1.421   1.954
 5917TIP3   OH217691   5.648   4.381   0.897
 5917TIP3    H117692   5.731   4.409   0.858
 5917TIP3    H217693   5.590   4.457   0.888
 5918TIP3   OH217694   5.111   7.803   2.357
 5918TIP3    H117695   5.137   7.863   2.287
 5918TIP3    H217696   5.149   7.719   2.331
 5919TIP3   OH217697   5.283   6.831   5.059
 5919TIP3    H117698   5.304   6.918   5.094
 5919TIP3    H217699   5.357   6.777   5.084
 5920TIP3   OH217700   2.705   0.319   6.049
 5920TIP3    H117701   2.667   0.343   6.134
 5920TIP3    H217702   2.748   0.399   6.019
 5921TIP3   OH217703   2.490   2.870   2.138
 5921TIP3    H117704   2.395   2.856   2.135
 5921TIP3    H217705   2.524   2.825   2.061
 5922TIP3   OH217706   5.973   5.527   0.226
 5922TIP3    H117707   5.959   5.545   0.319
 5922TIP3    H217708   5.889   5.492   0.195
 5923TIP3   OH217709   2.509   2.063   0.931
 5923TIP3    H117710   2.548   1.981   0.900
 5923TIP3    H217711   2.522   2.125   0.859
 5924TIP3   OH217712   6.145   4.833   2.657
 5924TIP3    H117713   6.163   4.841   2.750
 5924TIP3    H217714   6.204   4.764   2.626
 5925TIP3   OH217715   5.906   7.625   4.383
 5925TIP3    H117716   5.926   7.713   4.416
 5925TIP3    H217717   5.977   7.605   4.323
 5926TIP3   OH217718   2.193   2.895   3.249
 5926TIP3    H117719   2.112   2.869   3.291
 5926TIP3    H217720   2.228   2.964   3.305
 5927TIP3   OH217721   4.094   6.640   1.370
 5927TIP3    H117722   4.060   6.726   1.396
 5927TIP3    H217723   4.016   6.593   1.338
 5928TIP3   OH217724   7.669   3.333   1.704
 5928TIP3    H117725   7.616   3.386   1.644
 5928TIP3    H217726   7.627   3.247   1.704
 5929TIP3   OH217727   7.862   4.967   0.114
 5929TIP3    H117728   7.934   5.022   0.085
 5929TIP3    H217729   7.848   4.992   0.205
 5930TIP3   OH217730   1.568   0.743   5.977
 5930TIP3    H117731   1.532   0.662   6.013
 5930TIP3    H217732   1.539   0.745   5.886
 5931TIP3   OH217733   0.406   3.342   3.341
 5931TIP3    H117734   0.376   3.413   3.285
 5931TIP3    H217735   0.387   3.262   3.292
 5932TIP3   OH217736   1.849   7.172   6.802
 5932TIP3    H117737   1.779   7.141   6.860
 5932TIP3    H217738   1.927   7.124   6.830
 5933TIP3   OH217739   7.860   7.841   0.794
 5933TIP3    H117740   7.878   7.917   0.849
 5933TIP3    H217741   7.919   7.853   0.719
 5934TIP3   OH217742   1.195   4.786   0.188
 5934TIP3    H117743   1.181   4.797   0.282
 5934TIP3    H217744   1.247   4.862   0.162
 5935TIP3   OH217745   0.130   7.048   4.300
 5935TIP3    H117746   0.185   7.116   4.339
 5935TIP3    H217747   0.190   6.976   4.281
 5936TIP3   OH217748   5.600   0.687   4.159
 5936TIP3    H117749   5.617   0.780   4.174
 5936TIP3    H217750   5.511   0.673   4.192
 5937TIP3   OH217751   2.161   5.858   0.569
 5937TIP3    H117752   2.222   5.798   0.525
 5937TIP3    H217753   2.075   5.834   0.535
 5938TIP3   OH217754   1.530   2.444   1.288
 5938TIP3    H117755   1.518   2.502   1.364
 5938TIP3    H217756   1.534   2.356   1.325
 5939TIP3   OH217757   1.066   3.282   3.920
 5939TIP3    H117758   0.971   3.274   3.909
 5939TIP3    H217759   1.097   3.315   3.836
 5940TIP3   OH217760   1.033   5.357   3.071
 5940TIP3    H117761   1.047   5.266   3.047
 5940TIP3    H217762   1.121   5.393   3.082
 5941TIP3   OH217763   4.278   7.623   0.836
 5941TIP3    H117764   4.235   7.538   0.850
 5941TIP3    H217765   4.255   7.647   0.746
 5942TIP3   OH217766   1.092   7.631   5.469
 5942TIP3    H117767   1.050   7.654   5.552
 5942TIP3    H217768   1.022   7.597   5.414
 5943TIP3   OH217769   1.429   1.639   6.310
 5943TIP3    H117770   1.356   1.583   6.282
 5943TIP3    H217771   1.388   1.722   6.334
 5944TIP3   OH217772   2.652   4.184   0.833
 5944TIP3    H117773   2.570   4.137   0.821
 5944TIP3    H217774   2.629   4.255   0.894
 5945TIP3   OH217775   5.045   6.563   5.477
 5945TIP3    H117776   5.067   6.651   5.446
 5945TIP3    H217777   4.949   6.559   5.471
 5946TIP3   OH217778   6.162   6.171   3.958
 5946TIP3    H117779   6.171   6.262   3.931
 5946TIP3    H217780   6.252   6.139   3.963
 5947TIP3   OH217781   6.032   7.725   5.965
 5947TIP3    H117782   6.013   7.767   5.881
 5947TIP3    H217783   6.070   7.795   6.018
 5948TIP3   OH217784   0.740   7.384   1.462
 5948TIP3    H117785   0.744   7.363   1.368
 5948TIP3    H217786   0.650   7.413   1.476
 5949TIP3   OH217787   2.872   5.633   4.625
 5949TIP3    H117788   2.946   5.573   4.613
 5949TIP3    H217789   2.833   5.642   4.538
 5950TIP3   OH217790   7.807   5.526   5.486
 5950TIP3    H117791   7.725   5.563   5.452
 5950TIP3    H217792   7.799   5.432   5.469
 5951TIP3   OH217793   5.859   0.476   0.176
 5951TIP3    H117794   5.873   0.402   0.236
 5951TIP3    H217795   5.939   0.529   0.184
 5952TIP3   OH217796   1.161   3.076   6.312
 5952TIP3    H117797   1.099   3.026   6.259
 5952TIP3    H217798   1.172   3.023   6.391
 5953TIP3   OH217799   1.055   6.021   5.277
 5953TIP3    H117800   1.069   5.926   5.281
 5953TIP3    H217801   0.961   6.032   5.292
 5954TIP3   OH217802   2.298   3.130   6.562
 5954TIP3    H117803   2.378   3.181   6.550
 5954TIP3    H217804   2.329   3.042   6.583
 5955TIP3   OH217805   6.383   4.668   2.636
 5955TIP3    H117806   6.432   4.689   2.557
 5955TIP3    H217807   6.450   4.644   2.700
 5956TIP3   OH217808   0.711   1.671   4.589
 5956TIP3    H117809   0.786   1.728   4.604
 5956TIP3    H217810   0.657   1.679   4.668
 5957TIP3   OH217811   0.457   6.901   0.503
 5957TIP3    H117812   0.502   6.890   0.587
 5957TIP3    H217813   0.497   6.836   0.446
 5958TIP3   OH217814   0.125   0.225   6.434
 5958TIP3    H117815   0.120   0.231   6.530
 5958TIP3    H217816   0.120   0.131   6.416
 5959TIP3   OH217817   1.426   5.556   0.631
 5959TIP3    H117818   1.376   5.484   0.592
 5959TIP3    H217819   1.361   5.606   0.680
 5960TIP3   OH217820   5.057   6.068   0.312
 5960TIP3    H117821   4.978   6.066   0.259
 5960TIP3    H217822   5.068   6.160   0.336
 5961TIP3   OH217823   3.389   1.684   5.380
 5961TIP3    H117824   3.425   1.663   5.466
 5961TIP3    H217825   3.461   1.728   5.335
 5962TIP3   OH217826   6.291   3.891   4.325
 5962TIP3    H117827   6.330   3.809   4.296
 5962TIP3    H217828   6.199   3.885   4.302
 5963TIP3   OH217829   1.468   2.006   2.156
 5963TIP3    H117830   1.376   1.981   2.166
 5963TIP3    H217831   1.482   2.008   2.062
 5964TIP3   OH217832   2.611   0.310   3.379
 5964TIP3    H117833   2.673   0.370   3.337
 5964TIP3    H217834   2.640   0.223   3.352
 5965TIP3   OH217835   4.172   3.303   6.605
 5965TIP3    H117836   4.253   3.262   6.574
 5965TIP3    H217837   4.175   3.392   6.571
 5966TIP3   OH217838   2.260   7.046   6.527
 5966TIP3    H117839   2.332   7.055   6.466
 5966TIP3    H217840   2.183   7.074   6.478
 5967TIP3   OH217841   0.529   3.276   5.150
 5967TIP3    H117842   0.551   3.184   5.135
 5967TIP3    H217843   0.513   3.282   5.244
 5968TIP3   OH217844   4.358   3.860   4.101
 5968TIP3    H117845   4.394   3.772   4.094
 5968TIP3    H217846   4.427   3.917   4.067
 5969TIP3   OH217847   2.290   4.295   5.865
 5969TIP3    H117848   2.270   4.368   5.807
 5969TIP3    H217849   2.275   4.217   5.812
 5970TIP3   OH217850   4.076   1.589   0.439
 5970TIP3    H117851   4.000   1.598   0.381
 5970TIP3    H217852   4.045   1.535   0.511
 5971TIP3   OH217853   1.589   7.335   1.310
 5971TIP3    H117854   1.523   7.403   1.296
 5971TIP3    H217855   1.564   7.293   1.392
 5972TIP3   OH217856   5.421   4.832   4.749
 5972TIP3    H117857   5.497   4.890   4.754
 5972TIP3    H217858   5.408   4.802   4.839
 5973TIP3   OH217859   3.198   6.010   3.542
 5973TIP3    H117860   3.275   6.057   3.509
 5973TIP3    H217861   3.204   6.020   3.637
 5974TIP3   OH217862   1.813   1.228   6.202
 5974TIP3    H117863   1.857   1.228   6.117
 5974TIP3    H217864   1.741   1.291   6.192
 5975TIP3   OH217865   3.509   4.741   5.402
 5975TIP3    H117866   3.599   4.734   5.432
 5975TIP3    H217867   3.463   4.671   5.448
 5976TIP3   OH217868   1.658   7.321   2.299
 5976TIP3    H117869   1.577   7.331   2.248
 5976TIP3    H217870   1.627   7.296   2.386
 5977TIP3   OH217871   1.009   2.815   0.840
 5977TIP3    H117872   0.932   2.871   0.838
 5977TIP3    H217873   0.977   2.729   0.816
 5978TIP3   OH217874   0.455   6.634   2.954
 5978TIP3    H117875   0.366   6.623   2.922
 5978TIP3    H217876   0.510   6.597   2.884
 5979TIP3   OH217877   5.173   6.144   3.845
 5979TIP3    H117878   5.184   6.211   3.912
 5979TIP3    H217879   5.080   6.151   3.820
 5980TIP3   OH217880   4.859   7.274   0.970
 5980TIP3    H117881   4.853   7.332   1.045
 5980TIP3    H217882   4.804   7.316   0.903
 5981TIP3   OH217883   5.072   7.091   0.937
 5981TIP3    H117884   5.006   7.152   0.969
 5981TIP3    H217885   5.044   7.071   0.848
 5982TIP3   OH217886   6.654   0.340   4.796
 5982TIP3    H117887   6.609   0.274   4.849
 5982TIP3    H217888   6.738   0.299   4.774
 5983TIP3   OH217889   4.601   4.766   1.771
 5983TIP3    H117890   4.545   4.823   1.719
 5983TIP3    H217891   4.634   4.701   1.708
 5984TIP3   OH217892   2.061   5.671   3.513
 5984TIP3    H117893   1.991   5.725   3.550
 5984TIP3    H217894   2.039   5.664   3.420
 5985TIP3   OH217895   2.839   0.885   0.380
 5985TIP3    H117896   2.919   0.851   0.421
 5985TIP3    H217897   2.868   0.963   0.332
 5986TIP3   OH217898   7.500   0.290   2.557
 5986TIP3    H117899   7.470   0.374   2.523
 5986TIP3    H217900   7.426   0.230   2.545
 5987TIP3   OH217901   1.360   4.413   1.704
 5987TIP3    H117902   1.417   4.471   1.653
 5987TIP3    H217903   1.354   4.333   1.652
 5988TIP3   OH217904   4.515   7.529   1.774
 5988TIP3    H117905   4.567   7.609   1.767
 5988TIP3    H217906   4.425   7.560   1.782
 5989TIP3   OH217907   2.737   0.593   4.380
 5989TIP3    H117908   2.668   0.659   4.389
 5989TIP3    H217909   2.818   0.643   4.376
 5990TIP3   OH217910   8.205   0.143   6.828
 5990TIP3    H117911   8.230   0.167   6.739
 5990TIP3    H217912   8.111   0.161   6.832
 5991TIP3   OH217913   3.796   0.224   3.875
 5991TIP3    H117914   3.826   0.275   3.950
 5991TIP3    H217915   3.877   0.193   3.834
 5992TIP3   OH217916   2.799   0.046   3.180
 5992TIP3    H117917   2.872   0.095   3.141
 5992TIP3    H217918   2.813   0.053   3.274
 5993TIP3   OH217919   2.447   6.972   2.375
 5993TIP3    H117920   2.452   7.042   2.309
 5993TIP3    H217921   2.373   6.997   2.430
 5994TIP3   OH217922   6.856   0.976   2.382
 5994TIP3    H117923   6.920   0.912   2.350
 5994TIP3    H217924   6.885   1.060   2.346
 5995TIP3   OH217925   1.105   1.651   2.067
 5995TIP3    H117926   1.095   1.568   2.022
 5995TIP3    H217927   1.041   1.649   2.138
 5996TIP3   OH217928   0.596   7.013   5.900
 5996TIP3    H117929   0.535   7.045   5.834
 5996TIP3    H217930   0.674   6.987   5.851
 5997TIP3   OH217931   1.344   1.609   5.208
 5997TIP3    H117932   1.361   1.542   5.275
 5997TIP3    H217933   1.266   1.577   5.163
 5998TIP3   OH217934   2.710   2.690   5.144
 5998TIP3    H117935   2.712   2.602   5.104
 5998TIP3    H217936   2.801   2.708   5.166
 5999TIP3   OH217937   3.034   2.351   1.553
 5999TIP3    H117938   3.069   2.409   1.620
 5999TIP3    H217939   3.101   2.285   1.541
 6000TIP3   OH217940   0.477   4.067   2.831
 6000TIP3    H117941   0.516   4.153   2.814
 6000TIP3    H217942   0.531   4.030   2.902
 6001TIP3   OH217943   5.034   5.932   2.580
 6001TIP3    H117944   5.019   5.843   2.549
 6001TIP3    H217945   5.127   5.949   2.563
 6002TIP3   OH217946   1.398   2.962   4.116
 6002TIP3    H117947   1.356   2.996   4.038
 6002TIP3    H217948   1.451   2.888   4.085
 6003TIP3   OH217949   6.354   1.262   3.545
 6003TIP3    H117950   6.324   1.182   3.590
 6003TIP3    H217951   6.276   1.295   3.501
 6004TIP3   OH217952   0.621   2.489   5.788
 6004TIP3    H117953   0.568   2.411   5.770
 6004TIP3    H217954   0.579   2.531   5.863
 6005TIP3   OH217955   7.537   7.823   3.913
 6005TIP3    H117956   7.620   7.788   3.879
 6005TIP3    H217957   7.515   7.894   3.852
 6006TIP3   OH217958   7.964   2.262   6.493
 6006TIP3    H117959   8.019   2.296   6.422
 6006TIP3    H217960   8.011   2.285   6.573
 6007TIP3   OH217961   6.759   4.400   4.917
 6007TIP3    H117962   6.793   4.321   4.877
 6007TIP3    H217963   6.826   4.426   4.980
 6008TIP3   OH217964   6.875   2.940   3.767
 6008TIP3    H117965   6.807   2.925   3.702
 6008TIP3    H217966   6.877   3.035   3.777
 6009TIP3   OH217967   4.185   4.388   2.307
 6009TIP3    H117968   4.183   4.466   2.253
 6009TIP3    H217969   4.099   4.386   2.349
 6010TIP3   OH217970   0.869   6.941   1.244
 6010TIP3    H117971   0.954   6.923   1.204
 6010TIP3    H217972   0.890   6.981   1.328
 6011TIP3   OH217973   5.164   7.535   4.076
 6011TIP3    H117974   5.072   7.555   4.092
 6011TIP3    H217975   5.211   7.574   4.150
 6012TIP3   OH217976   0.419   7.897   6.571
 6012TIP3    H117977   0.325   7.877   6.571
 6012TIP3    H217978   0.457   7.833   6.511
 6013TIP3   OH217979   7.330   4.750   4.481
 6013TIP3    H117980   7.336   4.699   4.561
 6013TIP3    H217981   7.398   4.715   4.424
 6014TIP3   OH217982   3.128   5.499   4.695
 6014TIP3    H117983   3.099   5.424   4.746
 6014TIP3    H217984   3.201   5.535   4.746
 6015TIP3   OH217985   0.473   3.384   2.050
 6015TIP3    H117986   0.559   3.348   2.032
 6015TIP3    H217987   0.476   3.473   2.014
 6016TIP3   OH217988   4.510   6.862   0.877
 6016TIP3    H117989   4.583   6.920   0.857
 6016TIP3    H217990   4.506   6.802   0.802
 6017TIP3   OH217991   2.265   0.901   4.492
 6017TIP3    H117992   2.230   0.956   4.562
 6017TIP3    H217993   2.316   0.961   4.437
 6018TIP3   OH217994   3.632   3.985   3.246
 6018TIP3    H117995   3.726   4.003   3.243
 6018TIP3    H217996   3.625   3.900   3.288
 6019TIP3   OH217997   3.961   3.052   3.279
 6019TIP3    H117998   3.940   3.036   3.187
 6019TIP3    H217999   3.974   3.146   3.285
 6020TIP3   OH218000   6.140   0.537   6.266
 6020TIP3    H118001   6.113   0.607   6.206
 6020TIP3    H218002   6.068   0.529   6.328
 6021TIP3   OH218003   6.938   3.428   0.868
 6021TIP3    H118004   6.854   3.386   0.851
 6021TIP3    H218005   6.915   3.511   0.910
 6022TIP3   OH218006   1.489   3.185   3.472
 6022TIP3    H118007   1.496   3.268   3.520
 6022TIP3    H218008   1.564   3.186   3.413
 6023TIP3   OH218009   1.492   2.482   2.202
 6023TIP3    H118010   1.528   2.568   2.183
 6023TIP3    H218011   1.447   2.492   2.286
 6024TIP3   OH218012   7.569   1.842   5.529
 6024TIP3    H118013   7.553   1.777   5.598
 6024TIP3    H218014   7.586   1.790   5.451
 6025TIP3   OH218015   8.395   1.073   1.393
 6025TIP3    H118016   8.311   1.100   1.429
 6025TIP3    H218017   8.374   1.041   1.305
 6026TIP3   OH218018   2.319   2.660   3.309
 6026TIP3    H118019   2.288   2.743   3.272
 6026TIP3    H218020   2.364   2.685   3.389
 6027TIP3   OH218021   8.241   5.946   2.330
 6027TIP3    H118022   8.221   6.021   2.273
 6027TIP3    H218023   8.319   5.973   2.378
 6028TIP3   OH218024   6.083   5.758   4.474
 6028TIP3    H118025   6.112   5.802   4.394
 6028TIP3    H218026   6.149   5.781   4.539
 6029TIP3   OH218027   5.324   6.830   2.265
 6029TIP3    H118028   5.397   6.792   2.314
 6029TIP3    H218029   5.366   6.873   2.189
 6030TIP3   OH218030   0.288   0.284   1.293
 6030TIP3    H118031   0.295   0.191   1.271
 6030TIP3    H218032   0.256   0.284   1.384
 6031TIP3   OH218033   5.159   1.817   3.553
 6031TIP3    H118034   5.234   1.787   3.604
 6031TIP3    H218035   5.175   1.910   3.538
 6032TIP3   OH218036   4.367   2.033   3.428
 6032TIP3    H118037   4.422   1.955   3.430
 6032TIP3    H218038   4.279   2.000   3.405
 6033TIP3   OH218039   6.421   0.480   1.143
 6033TIP3    H118040   6.499   0.424   1.144
 6033TIP3    H218041   6.385   0.473   1.231
 6034TIP3   OH218042   1.157   0.515   2.002
 6034TIP3    H118043   1.094   0.569   1.955
 6034TIP3    H218044   1.207   0.577   2.056
 6035TIP3   OH218045   3.797   0.742   0.962
 6035TIP3    H118046   3.811   0.815   0.901
 6035TIP3    H218047   3.791   0.665   0.906
 6036TIP3   OH218048   0.398   7.673   6.845
 6036TIP3    H118049   0.423   7.762   6.823
 6036TIP3    H218050   0.469   7.619   6.809
 6037TIP3   OH218051   2.342   4.389   4.961
 6037TIP3    H118052   2.335   4.482   4.984
 6037TIP3    H218053   2.403   4.353   5.025
 6038TIP3   OH218054   3.244   4.323   3.045
 6038TIP3    H118055   3.218   4.377   3.119
 6038TIP3    H218056   3.167   4.322   2.987
 6039TIP3   OH218057   7.553   1.973   1.079
 6039TIP3    H118058   7.577   1.993   0.988
 6039TIP3    H218059   7.579   2.050   1.128
 6040TIP3   OH218060   4.672   5.745   5.846
 6040TIP3    H118061   4.631   5.829   5.824
 6040TIP3    H218062   4.666   5.693   5.766
 6041TIP3   OH218063   4.901   6.404   3.671
 6041TIP3    H118064   4.912   6.315   3.707
 6041TIP3    H218065   4.853   6.391   3.590
 6042TIP3   OH218066   5.253   0.032   0.992
 6042TIP3    H118067   5.345   0.040   1.018
 6042TIP3    H218068   5.213  -0.018   1.063
 6043TIP3   OH218069   0.765   3.632   5.734
 6043TIP3    H118070   0.669   3.638   5.734
 6043TIP3    H218071   0.786   3.596   5.820
 6044TIP3   OH218072   1.163   4.947   1.059
 6044TIP3    H118073   1.245   4.914   1.095
 6044TIP3    H218074   1.095   4.899   1.106
 6045TIP3   OH218075   0.836   5.844   2.579
 6045TIP3    H118076   0.818   5.812   2.667
 6045TIP3    H218077   0.855   5.765   2.528
 6046TIP3   OH218078   0.247   4.479   2.094
 6046TIP3    H118079   0.309   4.421   2.049
 6046TIP3    H218080   0.284   4.490   2.182
 6047TIP3   OH218081   6.860   2.801   5.985
 6047TIP3    H118082   6.918   2.806   6.061
 6047TIP3    H218083   6.880   2.716   5.945
 6048TIP3   OH218084   7.141   5.071   5.178
 6048TIP3    H118085   7.115   5.084   5.269
 6048TIP3    H218086   7.069   5.106   5.127
 6049TIP3   OH218087   5.058   5.071   3.397
 6049TIP3    H118088   4.980   5.018   3.376
 6049TIP3    H218089   5.023   5.150   3.438
 6050TIP3   OH218090   1.183   2.745   6.813
 6050TIP3    H118091   1.194   2.806   6.886
 6050TIP3    H218092   1.271   2.735   6.776
 6051TIP3   OH218093   7.564   6.551   5.360
 6051TIP3    H118094   7.620   6.510   5.294
 6051TIP3    H218095   7.599   6.519   5.444
 6052TIP3   OH218096   2.145   4.017   0.813
 6052TIP3    H118097   2.150   3.922   0.797
 6052TIP3    H218098   2.105   4.052   0.733
 6053TIP3   OH218099   2.602   2.449   5.301
 6053TIP3    H118100   2.666   2.466   5.370
 6053TIP3    H218101   2.646   2.389   5.241
 6054TIP3   OH218102   4.295   6.318   2.561
 6054TIP3    H118103   4.310   6.231   2.597
 6054TIP3    H218104   4.343   6.319   2.479
 6055TIP3   OH218105   5.011   3.136   0.153
 6055TIP3    H118106   5.041   3.132   0.062
 6055TIP3    H218107   5.058   3.065   0.197
 6056TIP3   OH218108   2.920   1.133   6.215
 6056TIP3    H118109   2.957   1.139   6.128
 6056TIP3    H218110   2.970   1.195   6.268
 6057TIP3   OH218111   5.105   7.469   0.802
 6057TIP3    H118112   5.174   7.501   0.744
 6057TIP3    H218113   5.041   7.429   0.743
 6058TIP3   OH218114   0.739   6.442   1.745
 6058TIP3    H118115   0.799   6.430   1.671
 6058TIP3    H218116   0.764   6.526   1.783
 6059TIP3   OH218117   6.980   1.156   4.492
 6059TIP3    H118118   6.999   1.088   4.427
 6059TIP3    H218119   6.885   1.156   4.499
 6060TIP3   OH218120   4.749   1.864   2.645
 6060TIP3    H118121   4.763   1.774   2.674
 6060TIP3    H218122   4.749   1.916   2.726
 6061TIP3   OH218123   2.710   4.408   1.288
 6061TIP3    H118124   2.726   4.494   1.250
 6061TIP3    H218125   2.657   4.426   1.366
 6062TIP3   OH218126   7.313   5.724   2.256
 6062TIP3    H118127   7.340   5.680   2.175
 6062TIP3    H218128   7.310   5.653   2.321
 6063TIP3   OH218129   7.271   6.708   2.883
 6063TIP3    H118130   7.215   6.735   2.955
 6063TIP3    H218131   7.360   6.718   2.917
 6064TIP3   OH218132   3.964   0.090   4.369
 6064TIP3    H118133   3.984   0.035   4.293
 6064TIP3    H218134   3.991   0.038   4.445
 6065TIP3   OH218135   8.367   6.303   5.829
 6065TIP3    H118136   8.461   6.310   5.817
 6065TIP3    H218137   8.354   6.309   5.923
 6066TIP3   OH218138   2.559   1.442   3.617
 6066TIP3    H118139   2.546   1.347   3.610
 6066TIP3    H218140   2.473   1.480   3.599
 6067TIP3   OH218141   5.769   2.307   2.447
 6067TIP3    H118142   5.675   2.306   2.428
 6067TIP3    H218143   5.782   2.383   2.503
 6068TIP3   OH218144   0.325   5.198   3.302
 6068TIP3    H118145   0.233   5.213   3.281
 6068TIP3    H218146   0.332   5.103   3.313
 6069TIP3   OH218147   1.487   5.360   6.472
 6069TIP3    H118148   1.561   5.408   6.436
 6069TIP3    H218149   1.421   5.362   6.402
 6070TIP3   OH218150   0.759   6.202   4.276
 6070TIP3    H118151   0.800   6.116   4.287
 6070TIP3    H218152   0.668   6.184   4.255
 6071TIP3   OH218153   4.740   7.012   3.025
 6071TIP3    H118154   4.829   6.978   3.031
 6071TIP3    H218155   4.743   7.076   2.954
 6072TIP3   OH218156   4.158   6.344   4.018
 6072TIP3    H118157   4.140   6.438   4.013
 6072TIP3    H218158   4.246   6.334   3.981
 6073TIP3   OH218159   2.906   1.884   1.096
 6073TIP3    H118160   2.813   1.864   1.088
 6073TIP3    H218161   2.911   1.978   1.078
 6074TIP3   OH218162   7.351   5.798   1.635
 6074TIP3    H118163   7.283   5.736   1.609
 6074TIP3    H218164   7.311   5.849   1.706
 6075TIP3   OH218165   7.845   1.844   3.695
 6075TIP3    H118166   7.898   1.776   3.653
 6075TIP3    H218167   7.906   1.916   3.711
 6076TIP3   OH218168   6.320   1.063   2.545
 6076TIP3    H118169   6.251   1.119   2.582
 6076TIP3    H218170   6.273   1.002   2.489
 6077TIP3   OH218171   4.821   4.031   0.202
 6077TIP3    H118172   4.905   4.068   0.174
 6077TIP3    H218173   4.759   4.103   0.190
 6078TIP3   OH218174   0.437   5.643   5.569
 6078TIP3    H118175   0.411   5.734   5.556
 6078TIP3    H218176   0.356   5.594   5.555
 6079TIP3   OH218177   5.607   3.379   6.712
 6079TIP3    H118178   5.632   3.424   6.792
 6079TIP3    H218179   5.681   3.323   6.690
 6080TIP3   OH218180   5.584   1.316   3.939
 6080TIP3    H118181   5.595   1.323   3.844
 6080TIP3    H218182   5.670   1.289   3.971
 6081TIP3   OH218183   0.035   0.101   1.437
 6081TIP3    H118184   0.069   0.162   1.502
 6081TIP3    H218185   0.048   0.015   1.476
 6082TIP3   OH218186   1.660   4.342   0.786
 6082TIP3    H118187   1.745   4.353   0.829
 6082TIP3    H218188   1.623   4.264   0.828
 6083TIP3   OH218189   2.839   2.181   1.444
 6083TIP3    H118190   2.886   2.098   1.452
 6083TIP3    H218191   2.884   2.240   1.503
 6084TIP3   OH218192   8.094   3.314   6.131
 6084TIP3    H118193   8.077   3.364   6.210
 6084TIP3    H218194   8.180   3.275   6.145
 6085TIP3   OH218195   0.865   1.626   2.516
 6085TIP3    H118196   0.865   1.554   2.579
 6085TIP3    H218197   0.844   1.704   2.567
 6086TIP3   OH218198   0.530   4.308   3.643
 6086TIP3    H118199   0.575   4.224   3.634
 6086TIP3    H218200   0.535   4.348   3.557
 6087TIP3   OH218201   3.688   4.814   0.228
 6087TIP3    H118202   3.727   4.823   0.315
 6087TIP3    H218203   3.660   4.902   0.205
 6088TIP3   OH218204   6.235   0.121   4.950
 6088TIP3    H118205   6.328   0.114   4.974
 6088TIP3    H218206   6.207   0.030   4.937
 6089TIP3   OH218207   1.581   3.647   1.239
 6089TIP3    H118208   1.659   3.626   1.291
 6089TIP3    H218209   1.614   3.703   1.169
 6090TIP3   OH218210   8.118   1.029   0.180
 6090TIP3    H118211   8.155   0.985   0.257
 6090TIP3    H218212   8.052   1.088   0.216
 6091TIP3   OH218213   4.962   0.481   3.471
 6091TIP3    H118214   4.883   0.529   3.448
 6091TIP3    H218215   5.008   0.468   3.388
 6092TIP3   OH218216   1.504   1.665   4.697
 6092TIP3    H118217   1.503   1.575   4.666
 6092TIP3    H218218   1.570   1.666   4.767
 6093TIP3   OH218219   2.263   3.499   0.609
 6093TIP3    H118220   2.270   3.463   0.520
 6093TIP3    H218221   2.201   3.441   0.653
 6094TIP3   OH218222   7.808   0.589   3.752
 6094TIP3    H118223   7.718   0.556   3.751
 6094TIP3    H218224   7.799   0.683   3.737
 6095TIP3   OH218225   3.363   2.986   0.219
 6095TIP3    H118226   3.298   3.055   0.206
 6095TIP3    H218227   3.403   2.975   0.133
 6096TIP3   OH218228   8.308   3.319   2.205
 6096TIP3    H118229   8.248   3.246   2.187
 6096TIP3    H218230   8.334   3.349   2.118
 6097TIP3   OH218231   3.352   3.200   2.265
 6097TIP3    H118232   3.358   3.279   2.318
 6097TIP3    H218233   3.442   3.179   2.241
 6098TIP3   OH218234   4.934   1.212   1.348
 6098TIP3    H118235   4.905   1.130   1.389
 6098TIP3    H218236   5.028   1.216   1.366
 6099TIP3   OH218237   2.378   7.218   0.983
 6099TIP3    H118238   2.410   7.128   0.981
 6099TIP3    H218239   2.428   7.262   0.914
 6100TIP3   OH218240   1.987   2.502   6.045
 6100TIP3    H118241   1.910   2.474   6.094
 6100TIP3    H218242   1.968   2.593   6.022
 6101TIP3   OH218243   7.114   7.101   6.795
 6101TIP3    H118244   7.102   7.055   6.712
 6101TIP3    H218245   7.162   7.181   6.772
 6102TIP3   OH218246   5.430   5.487   3.724
 6102TIP3    H118247   5.467   5.436   3.652
 6102TIP3    H218248   5.492   5.558   3.738
 6103TIP3   OH218249   6.930   2.909   4.496
 6103TIP3    H118250   6.951   2.871   4.411
 6103TIP3    H218251   6.841   2.877   4.514
 6104TIP3   OH218252   7.644   7.092   4.039
 6104TIP3    H118253   7.724   7.132   4.074
 6104TIP3    H218254   7.645   7.115   3.946
 6105TIP3   OH218255   5.772   5.250   5.406
 6105TIP3    H118256   5.834   5.318   5.432
 6105TIP3    H218257   5.724   5.288   5.333
 6106TIP3   OH218258   3.410   7.280   5.361
 6106TIP3    H118259   3.492   7.329   5.369
 6106TIP3    H218260   3.433   7.191   5.388
 6107TIP3   OH218261   4.856   7.736   2.246
 6107TIP3    H118262   4.937   7.749   2.295
 6107TIP3    H218263   4.856   7.643   2.225
 6108TIP3   OH218264   6.128   5.075   2.034
 6108TIP3    H118265   6.166   5.099   2.118
 6108TIP3    H218266   6.201   5.033   1.986
 6109TIP3   OH218267   0.585   6.793   5.241
 6109TIP3    H118268   0.505   6.843   5.227
 6109TIP3    H218269   0.574   6.714   5.187
 6110TIP3   OH218270   7.737   0.167   1.295
 6110TIP3    H118271   7.793   0.213   1.233
 6110TIP3    H218272   7.796   0.104   1.338
 6111TIP3   OH218273   3.890   7.709   0.601
 6111TIP3    H118274   3.903   7.629   0.550
 6111TIP3    H218275   3.827   7.684   0.669
 6112TIP3   OH218276   0.268   0.434   0.785
 6112TIP3    H118277   0.234   0.493   0.851
 6112TIP3    H218278   0.191   0.388   0.751
 6113TIP3   OH218279   3.417   1.054   4.542
 6113TIP3    H118280   3.496   1.054   4.597
 6113TIP3    H218281   3.450   1.078   4.455
 6114TIP3   OH218282   3.492   3.794   0.741
 6114TIP3    H118283   3.398   3.811   0.734
 6114TIP3    H218284   3.503   3.754   0.827
 6115TIP3   OH218285   5.260   1.145   2.356
 6115TIP3    H118286   5.224   1.180   2.437
 6115TIP3    H218287   5.211   1.189   2.286
 6116TIP3   OH218288   4.773   7.410   4.315
 6116TIP3    H118289   4.851   7.372   4.275
 6116TIP3    H218290   4.735   7.465   4.246
 6117TIP3   OH218291   7.328   6.345   5.635
 6117TIP3    H118292   7.309   6.350   5.541
 6117TIP3    H218293   7.243   6.326   5.676
 6118TIP3   OH218294   1.018   3.956   0.480
 6118TIP3    H118295   1.085   3.946   0.549
 6118TIP3    H218296   1.065   3.936   0.399
 6119TIP3   OH218297   5.255   6.302   4.322
 6119TIP3    H118298   5.303   6.371   4.369
 6119TIP3    H218299   5.324   6.247   4.285
 6120TIP3   OH218300   0.644   1.133   1.225
 6120TIP3    H118301   0.668   1.073   1.296
 6120TIP3    H218302   0.554   1.110   1.203
 6121TIP3   OH218303   5.931   7.302   4.875
 6121TIP3    H118304   5.857   7.301   4.935
 6121TIP3    H218305   6.002   7.258   4.922
 6122TIP3   OH218306   5.714   7.083   2.910
 6122TIP3    H118307   5.734   7.122   2.996
 6122TIP3    H218308   5.738   7.151   2.847
 6123TIP3   OH218309   7.818   4.637   4.688
 6123TIP3    H118310   7.728   4.637   4.721
 6123TIP3    H218311   7.835   4.729   4.665
 6124TIP3   OH218312   7.561   7.447   1.101
 6124TIP3    H118313   7.607   7.447   1.185
 6124TIP3    H218314   7.630   7.431   1.036
 6125TIP3   OH218315   0.204   3.527   4.349
 6125TIP3    H118316   0.173   3.436   4.349
 6125TIP3    H218317   0.220   3.546   4.256
 6126TIP3   OH218318   0.027   3.963   5.161
 6126TIP3    H118319   0.032   3.868   5.152
 6126TIP3    H218320  -0.064   3.980   5.185
 6127TIP3   OH218321   2.135   4.333   6.121
 6127TIP3    H118322   2.183   4.307   6.042
 6127TIP3    H218323   2.101   4.420   6.101
 6128TIP3   OH218324   3.418   3.111   5.736
 6128TIP3    H118325   3.482   3.083   5.671
 6128TIP3    H218326   3.382   3.029   5.770
 6129TIP3   OH218327   1.764   0.473   2.835
 6129TIP3    H118328   1.741   0.435   2.920
 6129TIP3    H218329   1.821   0.547   2.857
 6130TIP3   OH218330   0.593   7.821   2.308
 6130TIP3    H118331   0.619   7.731   2.328
 6130TIP3    H218332   0.618   7.871   2.386
 6131TIP3   OH218333   3.020   6.046   4.638
 6131TIP3    H118334   3.113   6.066   4.648
 6131TIP3    H218335   3.008   6.035   4.544
 6132TIP3   OH218336   5.568   2.529   6.095
 6132TIP3    H118337   5.620   2.545   6.016
 6132TIP3    H218338   5.571   2.613   6.142
 6133TIP3   OH218339   2.838   5.216   5.273
 6133TIP3    H118340   2.927   5.184   5.287
 6133TIP3    H218341   2.835   5.300   5.319
 6134TIP3   OH218342   7.380   1.826   0.099
 6134TIP3    H118343   7.404   1.741   0.137
 6134TIP3    H218344   7.319   1.864   0.162
 6135TIP3   OH218345   3.752   0.767   4.051
 6135TIP3    H118346   3.688   0.817   4.000
 6135TIP3    H218347   3.700   0.702   4.098
 6136TIP3   OH218348   6.424   4.318   5.209
 6136TIP3    H118349   6.358   4.273   5.261
 6136TIP3    H218350   6.426   4.407   5.243
 6137TIP3   OH218351   2.097   3.912   4.734
 6137TIP3    H118352   2.069   4.003   4.741
 6137TIP3    H218353   2.189   3.917   4.708
 6138TIP3   OH218354   5.251   3.057   2.230
 6138TIP3    H118355   5.336   3.043   2.274
 6138TIP3    H218356   5.248   3.151   2.214
 6139TIP3   OH218357   3.529   7.590   5.244
 6139TIP3    H118358   3.450   7.622   5.201
 6139TIP3    H218359   3.601   7.637   5.203
 6140TIP3   OH218360   5.870   7.506   5.696
 6140TIP3    H118361   5.836   7.595   5.688
 6140TIP3    H218362   5.813   7.464   5.760
 6141TIP3   OH218363   4.435   7.113   1.258
 6141TIP3    H118364   4.513   7.169   1.252
 6141TIP3    H218365   4.371   7.168   1.303
 6142TIP3   OH218366   1.842   1.690   1.113
 6142TIP3    H118367   1.858   1.715   1.204
 6142TIP3    H218368   1.800   1.767   1.074
 6143TIP3   OH218369   6.895   5.065   2.136
 6143TIP3    H118370   6.828   5.133   2.130
 6143TIP3    H218371   6.977   5.109   2.115
 6144TIP3   OH218372   7.576   3.778   1.004
 6144TIP3    H118373   7.606   3.865   0.976
 6144TIP3    H218374   7.617   3.718   0.943
 6145TIP3   OH218375   6.103   6.521   5.607
 6145TIP3    H118376   6.142   6.434   5.615
 6145TIP3    H218377   6.158   6.567   5.544
 6146TIP3   OH218378   7.584   1.794   2.009
 6146TIP3    H118379   7.510   1.740   2.035
 6146TIP3    H218380   7.654   1.770   2.070
 6147TIP3   OH218381   3.750   1.398   6.496
 6147TIP3    H118382   3.656   1.410   6.507
 6147TIP3    H218383   3.758   1.333   6.426
 6148TIP3   OH218384   2.106   4.229   0.317
 6148TIP3    H118385   2.013   4.254   0.324
 6148TIP3    H218386   2.153   4.312   0.319
 6149TIP3   OH218387   0.759   3.863   0.570
 6149TIP3    H118388   0.833   3.906   0.528
 6149TIP3    H218389   0.795   3.829   0.652
 6150TIP3   OH218390   7.024   7.618   3.955
 6150TIP3    H118391   6.996   7.549   3.895
 6150TIP3    H218392   7.120   7.620   3.946
 6151TIP3   OH218393   6.924   3.136   4.043
 6151TIP3    H118394   7.008   3.092   4.038
 6151TIP3    H218395   6.912   3.175   3.956
 6152TIP3   OH218396   4.580   4.876   5.886
 6152TIP3    H118397   4.663   4.913   5.913
 6152TIP3    H218398   4.517   4.948   5.893
 6153TIP3   OH218399   3.695   4.848   4.524
 6153TIP3    H118400   3.785   4.818   4.535
 6153TIP3    H218401   3.696   4.941   4.548
 6154TIP3   OH218402   8.057   5.717   0.174
 6154TIP3    H118403   8.029   5.728   0.083
 6154TIP3    H218404   8.112   5.794   0.192
 6155TIP3   OH218405   1.262   3.863   4.930
 6155TIP3    H118406   1.203   3.924   4.886
 6155TIP3    H218407   1.285   3.907   5.011
 6156TIP3   OH218408   2.004   0.817   2.837
 6156TIP3    H118409   2.088   0.856   2.812
 6156TIP3    H218410   1.965   0.788   2.754
 6157TIP3   OH218411   1.794   3.431   5.576
 6157TIP3    H118412   1.731   3.443   5.504
 6157TIP3    H218413   1.771   3.498   5.640
 6158TIP3   OH218414   1.839   6.298   6.779
 6158TIP3    H118415   1.930   6.271   6.794
 6158TIP3    H218416   1.807   6.237   6.712
 6159TIP3   OH218417   4.340   3.495   0.297
 6159TIP3    H118418   4.300   3.520   0.381
 6159TIP3    H218419   4.266   3.484   0.237
 6160TIP3   OH218420   0.025   4.243   5.278
 6160TIP3    H118421   0.074   4.192   5.215
 6160TIP3    H218422   0.033   4.334   5.248
 6161TIP3   OH218423   0.913   5.946  -0.007
 6161TIP3    H118424   0.942   5.992   0.071
 6161TIP3    H218425   0.910   6.013  -0.075
 6162TIP3   OH218426   5.978   2.025   5.560
 6162TIP3    H118427   6.058   1.975   5.544
 6162TIP3    H218428   5.930   1.974   5.625
 6163TIP3   OH218429   7.754   0.656   0.671
 6163TIP3    H118430   7.798   0.741   0.668
 6163TIP3    H218431   7.738   0.633   0.580
 6164TIP3   OH218432   7.248   6.514   3.379
 6164TIP3    H118433   7.304   6.493   3.454
 6164TIP3    H218434   7.279   6.455   3.310
 6165TIP3   OH218435   3.425   0.899   3.547
 6165TIP3    H118436   3.456   0.809   3.543
 6165TIP3    H218437   3.469   0.943   3.474
 6166TIP3   OH218438   5.045   0.766   2.021
 6166TIP3    H118439   5.100   0.695   1.988
 6166TIP3    H218440   5.106   0.837   2.040
 6167TIP3   OH218441   7.228   4.083   3.758
 6167TIP3    H118442   7.135   4.106   3.767
 6167TIP3    H218443   7.268   4.160   3.719
 6168TIP3   OH218444   3.668   7.717   3.703
 6168TIP3    H118445   3.671   7.723   3.798
 6168TIP3    H218446   3.757   7.739   3.675
 6169TIP3   OH218447   2.403   2.197   6.556
 6169TIP3    H118448   2.394   2.265   6.489
 6169TIP3    H218449   2.496   2.195   6.576
 6170TIP3   OH218450   7.007   7.032   1.463
 6170TIP3    H118451   7.056   6.988   1.394
 6170TIP3    H218452   7.072   7.050   1.532
 6171TIP3   OH218453   0.168   5.590   1.113
 6171TIP3    H118454   0.120   5.616   1.192
 6171TIP3    H218455   0.162   5.666   1.055
 6172TIP3   OH218456   0.073   0.984   3.093
 6172TIP3    H118457   0.122   0.910   3.057
 6172TIP3    H218458   0.140   1.042   3.128
 6173TIP3   OH218459   5.705   2.397   3.284
 6173TIP3    H118460   5.679   2.307   3.267
 6173TIP3    H218461   5.778   2.390   3.345
 6174TIP3   OH218462   7.161   3.215   2.114
 6174TIP3    H118463   7.235   3.160   2.090
 6174TIP3    H218464   7.101   3.209   2.040
 6175TIP3   OH218465   6.061   3.451   2.142
 6175TIP3    H118466   5.985   3.448   2.201
 6175TIP3    H218467   6.053   3.535   2.098
 6176TIP3   OH218468   5.433   0.048   3.338
 6176TIP3    H118469   5.441  -0.002   3.257
 6176TIP3    H218470   5.359   0.107   3.323
 6177TIP3   OH218471   1.654   7.386   3.257
 6177TIP3    H118472   1.686   7.298   3.235
 6177TIP3    H218473   1.660   7.390   3.353
 6178TIP3   OH218474   5.653   7.544   3.561
 6178TIP3    H118475   5.561   7.550   3.535
 6178TIP3    H218476   5.656   7.589   3.646
 6179TIP3   OH218477   4.093   0.509   4.596
 6179TIP3    H118478   4.062   0.506   4.506
 6179TIP3    H218479   4.143   0.590   4.602
 6180TIP3   OH218480   2.444   5.638   3.012
 6180TIP3    H118481   2.453   5.674   3.100
 6180TIP3    H218482   2.362   5.589   3.014
 6181TIP3   OH218483   2.550   2.383   6.163
 6181TIP3    H118484   2.605   2.459   6.147
 6181TIP3    H218485   2.486   2.414   6.227
 6182TIP3   OH218486   1.084   2.324   2.667
 6182TIP3    H118487   1.162   2.289   2.623
 6182TIP3    H218488   1.030   2.359   2.596
 6183TIP3   OH218489   7.243   6.235   2.524
 6183TIP3    H118490   7.180   6.163   2.523
 6183TIP3    H218491   7.312   6.206   2.584
 6184TIP3   OH218492   7.342   1.828   1.150
 6184TIP3    H118493   7.385   1.791   1.227
 6184TIP3    H218494   7.413   1.866   1.098
 6185TIP3   OH218495   3.334   5.944   0.896
 6185TIP3    H118496   3.284   6.008   0.845
 6185TIP3    H218497   3.298   5.860   0.869
 6186TIP3   OH218498   3.824   2.676   2.868
 6186TIP3    H118499   3.805   2.734   2.942
 6186TIP3    H218500   3.918   2.658   2.874
 6187TIP3   OH218501   2.452   5.990   4.980
 6187TIP3    H118502   2.525   6.029   5.028
 6187TIP3    H218503   2.438   6.049   4.906
 6188TIP3   OH218504   0.095   0.525   2.189
 6188TIP3    H118505   0.023   0.586   2.171
 6188TIP3    H218506   0.114   0.538   2.282
 6189TIP3   OH218507   1.481   7.697   3.321
 6189TIP3    H118508   1.467   7.787   3.289
 6189TIP3    H218509   1.545   7.707   3.392
 6190TIP3   OH218510   7.902   3.983   2.051
 6190TIP3    H118511   7.809   3.967   2.038
 6190TIP3    H218512   7.926   3.929   2.127
 6191TIP3   OH218513   2.623   0.384   5.523
 6191TIP3    H118514   2.669   0.324   5.581
 6191TIP3    H218515   2.617   0.337   5.440
 6192TIP3   OH218516   7.410   1.383   2.394
 6192TIP3    H118517   7.413   1.433   2.476
 6192TIP3    H218518   7.336   1.323   2.405
 6193TIP3   OH218519   1.691   1.097   1.386
 6193TIP3    H118520   1.654   1.180   1.357
 6193TIP3    H218521   1.679   1.038   1.312
 6194TIP3   OH218522   7.825   0.230   4.616
 6194TIP3    H118523   7.826   0.267   4.704
 6194TIP3    H218524   7.766   0.287   4.567
 6195TIP3   OH218525   1.815   1.470   6.365
 6195TIP3    H118526   1.814   1.471   6.461
 6195TIP3    H218527   1.853   1.385   6.342
 6196TIP3   OH218528   0.903   1.558   3.294
 6196TIP3    H118529   0.968   1.628   3.299
 6196TIP3    H218530   0.825   1.595   3.335
 6197TIP3   OH218531   8.231   0.101   1.941
 6197TIP3    H118532   8.312   0.145   1.915
 6197TIP3    H218533   8.252   0.008   1.939
 6198TIP3   OH218534   0.551   0.076   4.228
 6198TIP3    H118535   0.498   0.143   4.186
 6198TIP3    H218536   0.641   0.109   4.221
 6199TIP3   OH218537   7.627   3.670   5.973
 6199TIP3    H118538   7.572   3.594   5.952
 6199TIP3    H218539   7.680   3.641   6.048
 6200TIP3   OH218540   0.351   4.699   3.688
 6200TIP3    H118541   0.283   4.641   3.722
 6200TIP3    H218542   0.348   4.686   3.593
 6201TIP3   OH218543   1.525   6.859   5.153
 6201TIP3    H118544   1.594   6.922   5.134
 6201TIP3    H218545   1.514   6.863   5.248
 6202TIP3   OH218546   0.645   4.851   0.112
 6202TIP3    H118547   0.644   4.824   0.020
 6202TIP3    H218548   0.735   4.834   0.141
 6203TIP3   OH218549   2.723   7.235   6.580
 6203TIP3    H118550   2.650   7.199   6.530
 6203TIP3    H218551   2.685   7.309   6.627
 6204TIP3   OH218552   3.154   1.058   5.495
 6204TIP3    H118553   3.124   1.148   5.488
 6204TIP3    H218554   3.240   1.057   5.453
 6205TIP3   OH218555   5.274   7.603   4.661
 6205TIP3    H118556   5.300   7.693   4.680
 6205TIP3    H218557   5.342   7.570   4.603
 6206TIP3   OH218558   3.305   2.747   6.587
 6206TIP3    H118559   3.399   2.752   6.604
 6206TIP3    H218560   3.271   2.830   6.621
 6207TIP3   OH218561   0.541   0.639   2.547
 6207TIP3    H118562   0.568   0.609   2.460
 6207TIP3    H218563   0.587   0.580   2.607
 6208TIP3   OH218564   1.919   1.925   2.776
 6208TIP3    H118565   1.970   1.845   2.764
 6208TIP3    H218566   1.855   1.924   2.705
 6209TIP3   OH218567   8.343   5.248   1.233
 6209TIP3    H118568   8.342   5.334   1.276
 6209TIP3    H218569   8.291   5.260   1.154
 6210TIP3   OH218570   6.991   5.329   0.938
 6210TIP3    H118571   7.018   5.399   0.878
 6210TIP3    H218572   6.909   5.361   0.977
 6211TIP3   OH218573   3.635   6.643   4.533
 6211TIP3    H118574   3.656   6.658   4.441
 6211TIP3    H218575   3.664   6.553   4.550
 6212TIP3   OH218576   5.480  -0.004   5.059
 6212TIP3    H118577   5.420  -0.067   5.101
 6212TIP3    H218578   5.512  -0.050   4.982
 6213TIP3   OH218579   4.306   0.707   5.350
 6213TIP3    H118580   4.379   0.755   5.310
 6213TIP3    H218581   4.330   0.699   5.442
 6214TIP3   OH218582   5.886   3.543   3.611
 6214TIP3    H118583   5.943   3.601   3.561
 6214TIP3    H218584   5.907   3.455   3.578
 6215TIP3   OH218585   2.268   2.345   4.950
 6215TIP3    H118586   2.314   2.335   5.033
 6215TIP3    H218587   2.222   2.428   4.958
 6216TIP3   OH218588   0.478   2.174   6.581
 6216TIP3    H118589   0.454   2.247   6.638
 6216TIP3    H218590   0.461   2.206   6.493
 6217TIP3   OH218591   1.827   7.460   4.594
 6217TIP3    H118592   1.820   7.528   4.661
 6217TIP3    H218593   1.903   7.408   4.620
 6218TIP3   OH218594   6.796   6.454   2.655
 6218TIP3    H118595   6.813   6.478   2.564
 6218TIP3    H218596   6.881   6.429   2.690
 6219TIP3   OH218597   4.100   3.715   5.624
 6219TIP3    H118598   4.047   3.640   5.598
 6219TIP3    H218599   4.189   3.679   5.632
 6220TIP3   OH218600   2.944   5.815   2.892
 6220TIP3    H118601   2.990   5.895   2.917
 6220TIP3    H218602   2.885   5.798   2.966
 6221TIP3   OH218603   1.403   2.406   4.833
 6221TIP3    H118604   1.436   2.320   4.855
 6221TIP3    H218605   1.374   2.443   4.916
 6222TIP3   OH218606   5.720   3.077   5.669
 6222TIP3    H118607   5.643   3.126   5.698
 6222TIP3    H218608   5.749   3.123   5.590
 6223TIP3   OH218609   8.001   7.884   0.555
 6223TIP3    H118610   7.991   7.978   0.538
 6223TIP3    H218611   7.971   7.842   0.474
 6224TIP3   OH218612   2.408   3.561   1.786
 6224TIP3    H118613   2.337   3.588   1.845
 6224TIP3    H218614   2.428   3.471   1.812
 6225TIP3   OH218615   4.977   0.115   2.241
 6225TIP3    H118616   4.915   0.044   2.225
 6225TIP3    H218617   4.945   0.187   2.186
 6226TIP3   OH218618   0.972   5.093   3.180
 6226TIP3    H118619   1.041   5.116   3.242
 6226TIP3    H218620   0.947   5.004   3.204
 6227TIP3   OH218621   7.514   5.165   1.158
 6227TIP3    H118622   7.486   5.096   1.099
 6227TIP3    H218623   7.608   5.151   1.171
 6228TIP3   OH218624   2.388   6.570   2.549
 6228TIP3    H118625   2.441   6.492   2.528
 6228TIP3    H218626   2.422   6.638   2.491
 6229TIP3   OH218627   6.782   1.527   5.353
 6229TIP3    H118628   6.854   1.543   5.415
 6229TIP3    H218629   6.723   1.601   5.365
 6230TIP3   OH218630   1.311   0.383   5.529
 6230TIP3    H118631   1.289   0.325   5.602
 6230TIP3    H218632   1.381   0.439   5.562
 6231TIP3   OH218633   0.890   3.314   5.010
 6231TIP3    H118634   0.910   3.373   5.083
 6231TIP3    H218635   0.910   3.365   4.932
 6232TIP3   OH218636   7.445   4.265   4.193
 6232TIP3    H118637   7.365   4.246   4.146
 6232TIP3    H218638   7.431   4.229   4.281
 6233TIP3   OH218639   4.610   0.581   6.455
 6233TIP3    H118640   4.621   0.555   6.363
 6233TIP3    H218641   4.550   0.656   6.452
 6234TIP3   OH218642   4.880   5.482   6.543
 6234TIP3    H118643   4.912   5.394   6.522
 6234TIP3    H218644   4.957   5.529   6.573
 6235TIP3   OH218645   7.626   4.911   5.312
 6235TIP3    H118646   7.548   4.946   5.270
 6235TIP3    H218647   7.643   4.971   5.385
 6236TIP3   OH218648   6.887   3.625   4.698
 6236TIP3    H118649   6.831   3.549   4.689
 6236TIP3    H218650   6.879   3.650   4.790
 6237TIP3   OH218651   4.551   5.575   0.268
 6237TIP3    H118652   4.623   5.533   0.221
 6237TIP3    H218653   4.528   5.650   0.214
 6238TIP3   OH218654   6.082   2.866   3.467
 6238TIP3    H118655   6.066   2.952   3.507
 6238TIP3    H218656   6.172   2.845   3.490
 6239TIP3   OH218657   7.344   2.298   3.869
 6239TIP3    H118658   7.268   2.356   3.873
 6239TIP3    H218659   7.325   2.238   3.797
 6240TIP3   OH218660   2.700   4.345   0.583
 6240TIP3    H118661   2.773   4.406   0.584
 6240TIP3    H218662   2.676   4.335   0.676
 6241TIP3   OH218663   6.078   3.566   6.549
 6241TIP3    H118664   6.131   3.646   6.539
 6241TIP3    H218665   6.010   3.574   6.483
 6242TIP3   OH218666   3.258   5.261   5.474
 6242TIP3    H118667   3.226   5.348   5.496
 6242TIP3    H218668   3.349   5.275   5.446
 6243TIP3   OH218669   7.887   6.773   0.683
 6243TIP3    H118670   7.827   6.848   0.679
 6243TIP3    H218671   7.863   6.719   0.607
 6244TIP3   OH218672   2.863   1.191   0.665
 6244TIP3    H118673   2.912   1.273   0.672
 6244TIP3    H218674   2.771   1.218   0.675
 6245TIP3   OH218675   3.525   5.680   2.685
 6245TIP3    H118676   3.554   5.728   2.607
 6245TIP3    H218677   3.522   5.746   2.754
 6246TIP3   OH218678   4.650   5.136   0.926
 6246TIP3    H118679   4.557   5.114   0.930
 6246TIP3    H218680   4.680   5.098   0.843
 6247TIP3   OH218681   8.374   5.394   4.537
 6247TIP3    H118682   8.390   5.300   4.538
 6247TIP3    H218683   8.295   5.405   4.486
 6248TIP3   OH218684   7.998   0.391   2.262
 6248TIP3    H118685   7.909   0.424   2.247
 6248TIP3    H218686   8.035   0.381   2.174
 6249TIP3   OH218687   1.506   3.353   4.894
 6249TIP3    H118688   1.547   3.289   4.836
 6249TIP3    H218689   1.430   3.385   4.845
 6250TIP3   OH218690   1.880   2.264   1.246
 6250TIP3    H118691   1.808   2.273   1.183
 6250TIP3    H218692   1.942   2.332   1.221
 6251TIP3   OH218693   4.147   2.215   0.193
 6251TIP3    H118694   4.161   2.194   0.286
 6251TIP3    H218695   4.227   2.185   0.150
 6252TIP3   OH218696   5.399   4.503   6.636
 6252TIP3    H118697   5.471   4.467   6.583
 6252TIP3    H218698   5.340   4.429   6.648
 6253TIP3   OH218699   2.371   0.893   6.388
 6253TIP3    H118700   2.407   0.936   6.465
 6253TIP3    H218701   2.428   0.920   6.316
 6254TIP3   OH218702   0.232   6.329   5.734
 6254TIP3    H118703   0.266   6.241   5.716
 6254TIP3    H218704   0.286   6.362   5.805
 6255TIP3   OH218705   0.682   4.397   6.818
 6255TIP3    H118706   0.712   4.319   6.771
 6255TIP3    H218707   0.735   4.468   6.783
 6256TIP3   OH218708   2.387   5.412   4.841
 6256TIP3    H118709   2.416   5.504   4.839
 6256TIP3    H218710   2.467   5.362   4.823
 6257TIP3   OH218711   7.032   6.850   6.617
 6257TIP3    H118712   7.024   6.788   6.690
 6257TIP3    H218713   7.079   6.802   6.549
 6258TIP3   OH218714   0.077   3.137   2.412
 6258TIP3    H118715   0.128   3.194   2.355
 6258TIP3    H218716   0.111   3.153   2.500
 6259TIP3   OH218717   6.775   5.046   2.977
 6259TIP3    H118718   6.829   4.977   3.015
 6259TIP3    H218719   6.685   5.013   2.985
 6260TIP3   OH218720   0.763   2.942   0.344
 6260TIP3    H118721   0.750   3.033   0.370
 6260TIP3    H218722   0.711   2.933   0.264
 6261TIP3   OH218723   6.187   5.624   1.954
 6261TIP3    H118724   6.278   5.640   1.929
 6261TIP3    H218725   6.140   5.620   1.871
 6262TIP3   OH218726   8.442   4.641   0.257
 6262TIP3    H118727   8.372   4.695   0.293
 6262TIP3    H218728   8.453   4.570   0.321
 6263TIP3   OH218729   3.767   7.264   3.406
 6263TIP3    H118730   3.714   7.196   3.449
 6263TIP3    H218731   3.848   7.266   3.457
 6264TIP3   OH218732   8.034   5.131   4.133
 6264TIP3    H118733   8.040   5.045   4.090
 6264TIP3    H218734   8.093   5.125   4.208
 6265TIP3   OH218735   6.146   6.961   0.254
 6265TIP3    H118736   6.159   7.040   0.203
 6265TIP3    H218737   6.197   6.975   0.335
 6266TIP3   OH218738   4.294   6.928   1.016
 6266TIP3    H118739   4.273   7.022   1.020
 6266TIP3    H218740   4.376   6.924   0.968
 6267TIP3   OH218741   3.964   4.773   6.668
 6267TIP3    H118742   3.976   4.776   6.763
 6267TIP3    H218743   3.889   4.716   6.654
 6268TIP3   OH218744   0.916   4.609   2.009
 6268TIP3    H118745   0.895   4.701   1.993
 6268TIP3    H218746   0.958   4.579   1.928
 6269TIP3   OH218747   7.397   5.103   5.215
 6269TIP3    H118748   7.315   5.066   5.183
 6269TIP3    H218749   7.370   5.170   5.278
 6270TIP3   OH218750   3.862   4.266   6.663
 6270TIP3    H118751   3.789   4.212   6.633
 6270TIP3    H218752   3.888   4.227   6.746
 6271TIP3   OH218753   5.623   6.535   2.150
 6271TIP3    H118754   5.624   6.475   2.225
 6271TIP3    H218755   5.530   6.548   2.130
 6272TIP3   OH218756   1.049   7.634   3.038
 6272TIP3    H118757   0.994   7.558   3.020
 6272TIP3    H218758   1.017   7.702   2.979
 6273TIP3   OH218759   7.365   3.527   5.900
 6273TIP3    H118760   7.354   3.433   5.916
 6273TIP3    H218761   7.308   3.569   5.964
 6274TIP3   OH218762   7.323   1.676   4.097
 6274TIP3    H118763   7.302   1.664   4.005
 6274TIP3    H218764   7.331   1.587   4.132
 6275TIP3   OH218765   0.897   0.975   4.466
 6275TIP3    H118766   0.986   0.979   4.501
 6275TIP3    H218767   0.871   1.066   4.458
 6276TIP3   OH218768   4.361   6.929   6.442
 6276TIP3    H118769   4.361   6.867   6.369
 6276TIP3    H218770   4.304   7.000   6.413
 6277TIP3   OH218771   2.633   1.778   3.028
 6277TIP3    H118772   2.714   1.727   3.031
 6277TIP3    H218773   2.575   1.735   3.091
 6278TIP3   OH218774   1.829   6.202   4.392
 6278TIP3    H118775   1.898   6.138   4.374
 6278TIP3    H218776   1.854   6.279   4.341
 6279TIP3   OH218777   5.406   1.247   4.798
 6279TIP3    H118778   5.399   1.228   4.891
 6279TIP3    H218779   5.329   1.301   4.779
 6280TIP3   OH218780   2.966   4.310   1.981
 6280TIP3    H118781   3.009   4.367   2.045
 6280TIP3    H218782   2.892   4.272   2.028
 6281TIP3   OH218783   7.768   0.661   6.385
 6281TIP3    H118784   7.746   0.623   6.470
 6281TIP3    H218785   7.689   0.709   6.359
 6282TIP3   OH218786   1.023   0.299   6.042
 6282TIP3    H118787   1.102   0.268   5.998
 6282TIP3    H218788   1.022   0.393   6.026
 6283TIP3   OH218789   3.256   3.009   1.366
 6283TIP3    H118790   3.313   2.973   1.433
 6283TIP3    H218791   3.315   3.046   1.301
 6284TIP3   OH218792   4.572   5.566   0.598
 6284TIP3    H118793   4.629   5.500   0.559
 6284TIP3    H218794   4.586   5.557   0.693
 6285TIP3   OH218795   7.643   5.420   3.613
 6285TIP3    H118796   7.591   5.373   3.679
 6285TIP3    H218797   7.645   5.510   3.644
 6286TIP3   OH218798   2.923   3.082   2.888
 6286TIP3    H118799   2.856   3.045   2.830
 6286TIP3    H218800   2.990   3.015   2.893
 6287TIP3   OH218801   6.460   5.943   1.368
 6287TIP3    H118802   6.439   5.850   1.377
 6287TIP3    H218803   6.388   5.988   1.413
 6288TIP3   OH218804   4.852   1.761   3.503
 6288TIP3    H118805   4.943   1.782   3.524
 6288TIP3    H218806   4.806   1.767   3.587
 6289TIP3   OH218807   3.738   4.044   4.266
 6289TIP3    H118808   3.806   4.005   4.212
 6289TIP3    H218809   3.755   4.011   4.354
 6290TIP3   OH218810   4.788   4.630   1.582
 6290TIP3    H118811   4.866   4.643   1.636
 6290TIP3    H218812   4.821   4.633   1.492
 6291TIP3   OH218813   6.385   0.769   1.408
 6291TIP3    H118814   6.361   0.861   1.410
 6291TIP3    H218815   6.478   0.768   1.388
 6292TIP3   OH218816   4.391   3.905   1.875
 6292TIP3    H118817   4.417   3.814   1.857
 6292TIP3    H218818   4.474   3.951   1.886
 6293TIP3   OH218819   8.383   3.506   4.041
 6293TIP3    H118820   8.360   3.574   4.105
 6293TIP3    H218821   8.318   3.438   4.054
 6294TIP3   OH218822   2.882   3.742   4.306
 6294TIP3    H118823   2.821   3.712   4.373
 6294TIP3    H218824   2.886   3.837   4.319
 6295TIP3   OH218825   4.194   7.840   1.625
 6295TIP3    H118826   4.181   7.927   1.665
 6295TIP3    H218827   4.195   7.857   1.531
 6296TIP3   OH218828   2.524   0.612   5.844
 6296TIP3    H118829   2.595   0.675   5.831
 6296TIP3    H218830   2.517   0.603   5.939
 6297TIP3   OH218831   1.406   0.508   6.025
 6297TIP3    H118832   1.391   0.451   6.100
 6297TIP3    H218833   1.437   0.450   5.955
 6298TIP3   OH218834   6.139   5.736   5.767
 6298TIP3    H118835   6.117   5.675   5.697
 6298TIP3    H218836   6.130   5.685   5.847
 6299TIP3   OH218837   7.537   4.866   2.058
 6299TIP3    H118838   7.514   4.773   2.068
 6299TIP3    H218839   7.488   4.910   2.128
 6300TIP3   OH218840   2.844  -0.001   0.641
 6300TIP3    H118841   2.923  -0.053   0.627
 6300TIP3    H218842   2.810   0.015   0.554
 6301TIP3   OH218843   4.569   3.585   3.393
 6301TIP3    H118844   4.500   3.520   3.405
 6301TIP3    H218845   4.525   3.659   3.351
 6302TIP3   OH218846   0.612   2.621   3.050
 6302TIP3    H118847   0.630   2.714   3.035
 6302TIP3    H218848   0.536   2.602   2.995
 6303TIP3   OH218849   2.878   3.213   0.640
 6303TIP3    H118850   2.879   3.146   0.572
 6303TIP3    H218851   2.917   3.290   0.598
 6304TIP3   OH218852   6.108   0.294   2.513
 6304TIP3    H118853   6.173   0.270   2.580
 6304TIP3    H218854   6.048   0.353   2.559
 6305TIP3   OH218855   7.053   7.772   6.353
 6305TIP3    H118856   6.986   7.788   6.419
 6305TIP3    H218857   7.112   7.708   6.394
 6306TIP3   OH218858   2.929   6.090   5.249
 6306TIP3    H118859   2.950   6.029   5.178
 6306TIP3    H218860   2.864   6.044   5.301
 6307TIP3   OH218861   6.665   1.719   0.938
 6307TIP3    H118862   6.618   1.802   0.932
 6307TIP3    H218863   6.736   1.727   0.873
 6308TIP3   OH218864   2.157   7.876   5.501
 6308TIP3    H118865   2.144   7.782   5.512
 6308TIP3    H218866   2.093   7.916   5.560
 6309TIP3   OH218867   1.117   2.562   1.849
 6309TIP3    H118868   1.075   2.647   1.832
 6309TIP3    H218869   1.127   2.558   1.944
 6310TIP3   OH218870   4.846   7.886   5.297
 6310TIP3    H118871   4.940   7.900   5.299
 6310TIP3    H218872   4.830   7.843   5.212
 6311TIP3   OH218873   3.030   6.137   6.367
 6311TIP3    H118874   3.075   6.208   6.321
 6311TIP3    H218875   3.040   6.159   6.460
 6312TIP3   OH218876   6.460   0.719   2.429
 6312TIP3    H118877   6.481   0.806   2.394
 6312TIP3    H218878   6.430   0.670   2.353
 6313TIP3   OH218879   4.436  -0.013   4.278
 6313TIP3    H118880   4.394   0.030   4.352
 6313TIP3    H218881   4.375  -0.082   4.252
 6314TIP3   OH218882   1.916   2.193   4.080
 6314TIP3    H118883   1.985   2.149   4.029
 6314TIP3    H218884   1.902   2.135   4.155
 6315TIP3   OH218885   4.111   3.098   1.158
 6315TIP3    H118886   4.197   3.107   1.117
 6315TIP3    H218887   4.130   3.068   1.247
 6316TIP3   OH218888   3.738   7.271   0.228
 6316TIP3    H118889   3.651   7.254   0.193
 6316TIP3    H218890   3.780   7.326   0.162
 6317TIP3   OH218891   2.282   3.353   2.787
 6317TIP3    H118892   2.367   3.329   2.825
 6317TIP3    H218893   2.276   3.300   2.707
 6318TIP3   OH218894   4.673   1.983   3.427
 6318TIP3    H118895   4.749   1.928   3.447
 6318TIP3    H218896   4.598   1.926   3.440
 6319TIP3   OH218897   5.128   1.990   3.285
 6319TIP3    H118898   5.143   2.055   3.353
 6319TIP3    H218899   5.075   1.923   3.328
 6320TIP3   OH218900   0.484   3.639   5.723
 6320TIP3    H118901   0.395   3.641   5.687
 6320TIP3    H218902   0.474   3.599   5.810
 6321TIP3   OH218903   7.080   3.062   6.269
 6321TIP3    H118904   7.043   2.986   6.224
 6321TIP3    H218905   7.167   3.073   6.230
 6322TIP3   OH218906   3.289   7.106   0.459
 6322TIP3    H118907   3.199   7.117   0.427
 6322TIP3    H218908   3.332   7.189   0.438
 6323TIP3   OH218909   5.519   5.905   3.973
 6323TIP3    H118910   5.576   5.936   3.902
 6323TIP3    H218911   5.495   5.985   4.020
 6324TIP3   OH218912   1.316   7.246   4.903
 6324TIP3    H118913   1.287   7.285   4.821
 6324TIP3    H218914   1.410   7.263   4.906
 6325TIP3   OH218915   1.495   5.737   0.076
 6325TIP3    H118916   1.474   5.721  -0.016
 6325TIP3    H218917   1.416   5.776   0.112
 6326TIP3   OH218918   0.525   3.267   0.926
 6326TIP3    H118919   0.486   3.347   0.960
 6326TIP3    H218920   0.460   3.234   0.863
 6327TIP3   OH218921   7.940   2.142   5.167
 6327TIP3    H118922   8.021   2.135   5.217
 6327TIP3    H218923   7.966   2.179   5.082
 6328TIP3   OH218924   5.567   0.119   4.061
 6328TIP3    H118925   5.620   0.166   4.125
 6328TIP3    H218926   5.482   0.108   4.102
 6329TIP3   OH218927   8.436   6.073   2.076
 6329TIP3    H118928   8.360   6.121   2.107
 6329TIP3    H218929   8.401   5.992   2.039
 6330TIP3   OH218930   5.164   3.607   3.821
 6330TIP3    H118931   5.194   3.583   3.908
 6330TIP3    H218932   5.095   3.544   3.801
 6331TIP3   OH218933   2.953   4.402   0.989
 6331TIP3    H118934   2.870   4.354   0.991
 6331TIP3    H218935   2.945   4.460   0.913
 6332TIP3   OH218936   5.362   6.499   6.185
 6332TIP3    H118937   5.387   6.589   6.165
 6332TIP3    H218938   5.343   6.460   6.100
 6333TIP3   OH218939   3.553   4.272   0.709
 6333TIP3    H118940   3.460   4.290   0.697
 6333TIP3    H218941   3.595   4.357   0.695
 6334TIP3   OH218942   2.606   3.831   0.003
 6334TIP3    H118943   2.522   3.802  -0.033
 6334TIP3    H218944   2.600   3.927   0.002
 6335TIP3   OH218945   7.955   1.188   2.799
 6335TIP3    H118946   7.993   1.266   2.758
 6335TIP3    H218947   8.025   1.123   2.795
 6336TIP3   OH218948   4.459   7.435   6.656
 6336TIP3    H118949   4.485   7.352   6.616
 6336TIP3    H218950   4.539   7.488   6.656
 6337TIP3   OH218951   5.510   6.780   5.241
 6337TIP3    H118952   5.565   6.702   5.249
 6337TIP3    H218953   5.569   6.852   5.262
 6338TIP3   OH218954   7.901   4.577   2.506
 6338TIP3    H118955   7.949   4.545   2.583
 6338TIP3    H218956   7.865   4.499   2.466
 6339TIP3   OH218957   7.653   7.398   1.367
 6339TIP3    H118958   7.659   7.492   1.384
 6339TIP3    H218959   7.744   7.369   1.363
 6340TIP3   OH218960   4.114   3.460   3.991
 6340TIP3    H118961   4.198   3.449   3.944
 6340TIP3    H218962   4.091   3.371   4.018
 6341TIP3   OH218963   0.360   5.175   5.250
 6341TIP3    H118964   0.413   5.253   5.268
 6341TIP3    H218965   0.416   5.102   5.277
 6342TIP3   OH218966   6.211   3.499   3.555
 6342TIP3    H118967   6.156   3.438   3.506
 6342TIP3    H218968   6.159   3.579   3.561
 6343TIP3   OH218969   8.114   1.538   3.955
 6343TIP3    H118970   8.062   1.502   3.883
 6343TIP3    H218971   8.204   1.514   3.934
 6344TIP3   OH218972   0.074   1.030   0.866
 6344TIP3    H118973   0.113   1.071   0.789
 6344TIP3    H218974   0.127   0.952   0.881
 6345TIP3   OH218975   0.514   2.501   3.598
 6345TIP3    H118976   0.449   2.568   3.575
 6345TIP3    H218977   0.593   2.528   3.551
 6346TIP3   OH218978   2.450   4.660   5.587
 6346TIP3    H118979   2.533   4.700   5.562
 6346TIP3    H218980   2.458   4.644   5.681
 6347TIP3   OH218981   7.185   4.685   3.043
 6347TIP3    H118982   7.245   4.611   3.040
 6347TIP3    H218983   7.202   4.727   3.127
 6348TIP3   OH218984   1.663   0.380   2.580
 6348TIP3    H118985   1.708   0.396   2.663
 6348TIP3    H218986   1.715   0.427   2.515
 6349TIP3   OH218987   0.410  -0.002   3.314
 6349TIP3    H118988   0.399   0.042   3.399
 6349TIP3    H218989   0.448   0.065   3.257
 6350TIP3   OH218990   6.911   3.427   1.534
 6350TIP3    H118991   6.934   3.383   1.452
 6350TIP3    H218992   6.996   3.446   1.575
 6351TIP3   OH218993   4.752   0.567   3.749
 6351TIP3    H118994   4.840   0.555   3.714
 6351TIP3    H218995   4.739   0.662   3.749
 6352TIP3   OH218996   4.842   7.545   0.297
 6352TIP3    H118997   4.786   7.548   0.219
 6352TIP3    H218998   4.918   7.494   0.270
 6353TIP3   OH218999   4.963   4.721   5.383
 6353TIP3    H119000   4.888   4.694   5.437
 6353TIP3    H219001   5.037   4.719   5.444
 6354TIP3   OH219002   8.035   6.291   5.942
 6354TIP3    H119003   8.108   6.299   6.003
 6354TIP3    H219004   7.980   6.222   5.978
 6355TIP3   OH219005   2.123   5.882   2.199
 6355TIP3    H119006   2.075   5.908   2.277
 6355TIP3    H219007   2.188   5.819   2.230
 6356TIP3   OH219008   0.288   1.840   4.512
 6356TIP3    H119009   0.341   1.887   4.577
 6356TIP3    H219010   0.199   1.848   4.545
 6357TIP3   OH219011   3.172   3.751   6.349
 6357TIP3    H119012   3.157   3.693   6.274
 6357TIP3    H219013   3.115   3.827   6.331
 6358TIP3   OH219014   1.705   7.187   0.155
 6358TIP3    H119015   1.650   7.248   0.106
 6358TIP3    H219016   1.794   7.204   0.124
 6359TIP3   OH219017   6.564   2.678   6.558
 6359TIP3    H119018   6.549   2.623   6.481
 6359TIP3    H219019   6.629   2.631   6.609
 6360TIP3   OH219020   1.777   4.431   5.256
 6360TIP3    H119021   1.765   4.337   5.271
 6360TIP3    H219022   1.749   4.445   5.166
 6361TIP3   OH219023   0.995   6.208   1.349
 6361TIP3    H119024   1.000   6.124   1.305
 6361TIP3    H219025   0.960   6.268   1.283
 6362TIP3   OH219026   1.067   6.299   3.084
 6362TIP3    H119027   1.070   6.371   3.021
 6362TIP3    H219028   1.149   6.252   3.070
 6363TIP3   OH219029   7.275   2.231   0.883
 6363TIP3    H119030   7.307   2.242   0.972
 6363TIP3    H219031   7.339   2.277   0.829
 6364TIP3   OH219032   4.706   5.457   2.642
 6364TIP3    H119033   4.791   5.419   2.620
 6364TIP3    H219034   4.727   5.534   2.695
 6365TIP3   OH219035   1.464   1.917   0.397
 6365TIP3    H119036   1.415   1.950   0.472
 6365TIP3    H219037   1.405   1.854   0.356
 6366TIP3   OH219038   6.153   1.729   3.578
 6366TIP3    H119039   6.244   1.700   3.572
 6366TIP3    H219040   6.111   1.666   3.638
 6367TIP3   OH219041   7.014   0.555   6.161
 6367TIP3    H119042   6.951   0.610   6.206
 6367TIP3    H219043   6.965   0.517   6.088
 6368TIP3   OH219044   4.031   0.738   5.938
 6368TIP3    H119045   4.095   0.682   5.982
 6368TIP3    H219046   3.948   0.717   5.980
 6369TIP3   OH219047   1.000   7.839   2.045
 6369TIP3    H119048   1.033   7.766   1.993
 6369TIP3    H219049   0.914   7.858   2.007
 6370TIP3   OH219050   1.754   7.904   1.187
 6370TIP3    H119051   1.797   7.841   1.128
 6370TIP3    H219052   1.710   7.849   1.252
 6371TIP3   OH219053   6.610   4.726   0.117
 6371TIP3    H119054   6.534   4.668   0.124
 6371TIP3    H219055   6.679   4.671   0.081
 6372TIP3   OH219056   5.464   7.346   0.772
 6372TIP3    H119057   5.519   7.418   0.741
 6372TIP3    H219058   5.454   7.288   0.696
 6373TIP3   OH219059   4.619   0.064   3.944
 6373TIP3    H119060   4.611   0.104   4.031
 6373TIP3    H219061   4.620   0.138   3.883
 6374TIP3   OH219062   2.465   5.658   4.770
 6374TIP3    H119063   2.376   5.680   4.741
 6374TIP3    H219064   2.518   5.670   4.691
 6375TIP3   OH219065   6.719   0.326   6.871
 6375TIP3    H119066   6.772   0.362   6.800
 6375TIP3    H219067   6.655   0.269   6.827
 6376TIP3   OH219068   2.460   3.577   1.314
 6376TIP3    H119069   2.553   3.557   1.304
 6376TIP3    H219070   2.451   3.602   1.406
 6377TIP3   OH219071   0.138   2.056   2.364
 6377TIP3    H119072   0.112   2.006   2.441
 6377TIP3    H219073   0.229   2.030   2.348
 6378TIP3   OH219074   5.521   4.951   0.315
 6378TIP3    H119075   5.574   4.896   0.258
 6378TIP3    H219076   5.583   4.983   0.381
 6379TIP3   OH219077   0.757   2.187   5.507
 6379TIP3    H119078   0.686   2.251   5.496
 6379TIP3    H219079   0.720   2.118   5.561
 6380TIP3   OH219080   6.900   7.712   2.504
 6380TIP3    H119081   6.920   7.645   2.569
 6380TIP3    H219082   6.807   7.700   2.484
 6381TIP3   OH219083   3.097   0.476   6.156
 6381TIP3    H119084   3.106   0.405   6.092
 6381TIP3    H219085   3.160   0.542   6.128
 6382TIP3   OH219086   5.008   4.791   3.169
 6382TIP3    H119087   5.055   4.758   3.245
 6382TIP3    H219088   5.057   4.756   3.094
 6383TIP3   OH219089   4.081   0.239   6.117
 6383TIP3    H119090   4.058   0.159   6.069
 6383TIP3    H219091   4.023   0.239   6.193
 6384TIP3   OH219092   2.710   4.934   2.543
 6384TIP3    H119093   2.803   4.937   2.522
 6384TIP3    H219094   2.700   4.855   2.596
 6385TIP3   OH219095   1.509   7.689   6.605
 6385TIP3    H119096   1.597   7.725   6.600
 6385TIP3    H219097   1.467   7.719   6.525
 6386TIP3   OH219098   2.182   2.571   6.353
 6386TIP3    H119099   2.190   2.660   6.320
 6386TIP3    H219100   2.186   2.517   6.274
 6387TIP3   OH219101   7.470   5.098   6.564
 6387TIP3    H119102   7.506   5.040   6.631
 6387TIP3    H219103   7.389   5.056   6.536
 6388TIP3   OH219104   1.338   3.605   6.576
 6388TIP3    H119105   1.342   3.512   6.553
 6388TIP3    H219106   1.405   3.615   6.644
 6389TIP3   OH219107   2.069   1.931   6.338
 6389TIP3    H119108   2.128   1.962   6.407
 6389TIP3    H219109   2.002   1.881   6.385
 6390TIP3   OH219110   0.165   4.942   5.379
 6390TIP3    H119111   0.123   4.903   5.456
 6390TIP3    H219112   0.163   5.036   5.396
 6391TIP3   OH219113   6.065   1.612   2.193
 6391TIP3    H119114   5.989   1.670   2.197
 6391TIP3    H219115   6.137   1.668   2.167
 6392TIP3   OH219116   4.742   3.102   5.243
 6392TIP3    H119117   4.774   3.019   5.281
 6392TIP3    H219118   4.666   3.076   5.190
 6393TIP3   OH219119   2.630   6.667   4.760
 6393TIP3    H119120   2.618   6.761   4.776
 6393TIP3    H219121   2.556   6.625   4.805
 6394TIP3   OH219122   2.560   7.326   2.456
 6394TIP3    H119123   2.523   7.288   2.376
 6394TIP3    H219124   2.484   7.354   2.507
 6395TIP3   OH219125   5.441   3.539   0.181
 6395TIP3    H119126   5.470   3.532   0.090
 6395TIP3    H219127   5.452   3.451   0.217
 6396TIP3   OH219128   0.983   3.235   6.062
 6396TIP3    H119129   1.051   3.298   6.038
 6396TIP3    H219130   1.017   3.191   6.140
 6397TIP3   OH219131   2.512   2.775   0.358
 6397TIP3    H119132   2.603   2.803   0.347
 6397TIP3    H219133   2.460   2.855   0.345
 6398TIP3   OH219134   6.798   3.004   3.007
 6398TIP3    H119135   6.803   3.096   2.981
 6398TIP3    H219136   6.740   3.004   3.083
 6399TIP3   OH219137   2.891   2.526   1.850
 6399TIP3    H119138   2.840   2.456   1.809
 6399TIP3    H219139   2.966   2.481   1.889
 6400TIP3   OH219140   8.082   2.407   3.766
 6400TIP3    H119141   8.059   2.315   3.779
 6400TIP3    H219142   8.004   2.455   3.791
 6401TIP3   OH219143   3.447   0.534   6.806
 6401TIP3    H119144   3.393   0.510   6.881
 6401TIP3    H219145   3.432   0.628   6.796
 6402TIP3   OH219146   0.598   7.245   0.686
 6402TIP3    H119147   0.568   7.336   0.683
 6402TIP3    H219148   0.632   7.228   0.598
 6403TIP3   OH219149   4.888   6.604   5.738
 6403TIP3    H119150   4.885   6.662   5.662
 6403TIP3    H219151   4.926   6.658   5.807
 6404TIP3   OH219152   7.624   3.840   1.787
 6404TIP3    H119153   7.609   3.832   1.881
 6404TIP3    H219154   7.666   3.925   1.776
 6405TIP3   OH219155   1.706   4.436   1.395
 6405TIP3    H119156   1.764   4.361   1.380
 6405TIP3    H219157   1.752   4.491   1.458
 6406TIP3   OH219158   7.911   1.516   6.721
 6406TIP3    H119159   7.827   1.535   6.678
 6406TIP3    H219160   7.933   1.428   6.693
 6407TIP3   OH219161   0.339   0.511   6.172
 6407TIP3    H119162   0.397   0.435   6.177
 6407TIP3    H219163   0.286   0.494   6.094
 6408TIP3   OH219164   3.341   5.042   3.581
 6408TIP3    H119165   3.388   4.978   3.634
 6408TIP3    H219166   3.335   5.120   3.637
 6409TIP3   OH219167   0.417   7.400   3.178
 6409TIP3    H119168   0.465   7.383   3.097
 6409TIP3    H219169   0.362   7.323   3.190
 6410TIP3   OH219170   4.212   7.461   6.559
 6410TIP3    H119171   4.301   7.457   6.593
 6410TIP3    H219172   4.191   7.554   6.555
 6411TIP3   OH219173   4.327   0.032   0.814
 6411TIP3    H119174   4.385   0.068   0.881
 6411TIP3    H219175   4.251   0.000   0.863
 6412TIP3   OH219176   2.760   3.995   2.599
 6412TIP3    H119177   2.717   3.916   2.567
 6412TIP3    H219178   2.850   3.987   2.568
 6413TIP3   OH219179   3.587   7.071   4.491
 6413TIP3    H119180   3.513   7.077   4.552
 6413TIP3    H219181   3.663   7.097   4.543
 6414TIP3   OH219182   0.554   7.529   4.485
 6414TIP3    H119183   0.512   7.511   4.401
 6414TIP3    H219184   0.505   7.602   4.521
 6415TIP3   OH219185   1.641   7.579   5.781
 6415TIP3    H119186   1.566   7.631   5.754
 6415TIP3    H219187   1.603   7.504   5.827
 6416TIP3   OH219188   3.483   1.296   2.306
 6416TIP3    H119189   3.565   1.249   2.319
 6416TIP3    H219190   3.421   1.228   2.280
 6417TIP3   OH219191   8.097   4.532   1.429
 6417TIP3    H119192   8.088   4.452   1.481
 6417TIP3    H219193   8.023   4.530   1.368
 6418TIP3   OH219194   5.456   3.721   2.533
 6418TIP3    H119195   5.438   3.647   2.475
 6418TIP3    H219196   5.435   3.689   2.621
 6419TIP3   OH219197   2.954   0.321   1.793
 6419TIP3    H119198   2.871   0.321   1.747
 6419TIP3    H219199   2.989   0.409   1.778
 6420TIP3   OH219200   2.852   0.597   2.350
 6420TIP3    H119201   2.904   0.672   2.320
 6420TIP3    H219202   2.916   0.540   2.394
 6421TIP3   OH219203   2.466   2.133   2.170
 6421TIP3    H119204   2.443   2.215   2.213
 6421TIP3    H219205   2.468   2.068   2.241
 6422TIP3   OH219206   1.612   5.435   0.242
 6422TIP3    H119207   1.598   5.526   0.215
 6422TIP3    H219208   1.554   5.423   0.317
 6423TIP3   OH219209   6.980   6.505   0.346
 6423TIP3    H119210   6.918   6.445   0.388
 6423TIP3    H219211   6.929   6.546   0.275
 6424TIP3   OH219212   3.742   5.004   0.583
 6424TIP3    H119213   3.730   4.978   0.674
 6424TIP3    H219214   3.761   4.923   0.537
 6425TIP3   OH219215   3.326   3.867   1.535
 6425TIP3    H119216   3.232   3.855   1.523
 6425TIP3    H219217   3.364   3.846   1.449
 6426TIP3   OH219218   6.580   1.648   5.654
 6426TIP3    H119219   6.606   1.693   5.573
 6426TIP3    H219220   6.486   1.633   5.643
 6427TIP3   OH219221   5.077   7.681   2.004
 6427TIP3    H119222   5.107   7.677   1.913
 6427TIP3    H219223   5.031   7.764   2.010
 6428TIP3   OH219224   7.203   2.730   1.612
 6428TIP3    H119225   7.124   2.757   1.565
 6428TIP3    H219226   7.204   2.635   1.605
 6429TIP3   OH219227   0.992   3.393   0.455
 6429TIP3    H119228   1.030   3.309   0.429
 6429TIP3    H219229   0.997   3.394   0.550
 6430TIP3   OH219230   1.610   0.539   3.389
 6430TIP3    H119231   1.676   0.489   3.437
 6430TIP3    H219232   1.629   0.521   3.297
 6431TIP3   OH219233   0.143   2.961   2.026
 6431TIP3    H119234   0.091   3.034   1.992
 6431TIP3    H219235   0.104   2.883   1.986
 6432TIP3   OH219236   0.433   1.881   0.210
 6432TIP3    H119237   0.429   1.885   0.305
 6432TIP3    H219238   0.527   1.886   0.189
 6433TIP3   OH219239   6.215   0.116   2.826
 6433TIP3    H119240   6.258   0.075   2.902
 6433TIP3    H219241   6.125   0.085   2.830
 6434TIP3   OH219242   2.399   6.913   3.593
 6434TIP3    H119243   2.444   6.842   3.638
 6434TIP3    H219244   2.387   6.881   3.503
 6435TIP3   OH219245   0.838   0.642   3.132
 6435TIP3    H119246   0.761   0.605   3.174
 6435TIP3    H219247   0.877   0.570   3.083
 6436TIP3   OH219248   2.447   4.787   1.260
 6436TIP3    H119249   2.391   4.722   1.301
 6436TIP3    H219250   2.443   4.863   1.319
 6437TIP3   OH219251   6.194   6.263   5.687
 6437TIP3    H119252   6.171   6.170   5.690
 6437TIP3    H219253   6.278   6.266   5.643
 6438TIP3   OH219254   2.942   6.359   5.283
 6438TIP3    H119255   2.913   6.269   5.268
 6438TIP3    H219256   2.874   6.413   5.243
 6439TIP3   OH219257   4.840   5.714   0.316
 6439TIP3    H119258   4.778   5.685   0.382
 6439TIP3    H219259   4.807   5.677   0.234
 6440TIP3   OH219260   4.852   7.883   6.427
 6440TIP3    H119261   4.771   7.839   6.403
 6440TIP3    H219262   4.921   7.819   6.410
 6441TIP3   OH219263   8.041   3.573   5.124
 6441TIP3    H119264   8.032   3.479   5.135
 6441TIP3    H219265   8.064   3.585   5.032
 6442TIP3   OH219266   6.205   0.928   4.536
 6442TIP3    H119267   6.250   0.934   4.452
 6442TIP3    H219268   6.182   1.019   4.557
 6443TIP3   OH219269   3.681   1.550   5.528
 6443TIP3    H119270   3.729   1.626   5.495
 6443TIP3    H219271   3.619   1.588   5.591
 6444TIP3   OH219272   6.641   3.975   1.765
 6444TIP3    H119273   6.639   3.910   1.835
 6444TIP3    H219274   6.639   3.923   1.685
 6445TIP3   OH219275   0.168   3.104   2.688
 6445TIP3    H119276   0.253   3.144   2.668
 6445TIP3    H219277   0.176   3.014   2.658
 6446TIP3   OH219278   3.423   6.423   5.411
 6446TIP3    H119279   3.444   6.506   5.367
 6446TIP3    H219280   3.358   6.381   5.355
 6447TIP3   OH219281   5.224   2.993   3.253
 6447TIP3    H119282   5.300   2.998   3.194
 6447TIP3    H219283   5.260   2.962   3.336
 6448TIP3   OH219284   6.972   0.454   0.768
 6448TIP3    H119285   6.952   0.365   0.798
 6448TIP3    H219286   6.920   0.465   0.689
 6449TIP3   OH219287   4.497   1.265   2.451
 6449TIP3    H119288   4.540   1.349   2.436
 6449TIP3    H219289   4.434   1.257   2.379
 6450TIP3   OH219290   7.457   4.335   2.453
 6450TIP3    H119291   7.440   4.348   2.546
 6450TIP3    H219292   7.378   4.367   2.410
 6451TIP3   OH219293   2.525   5.899   2.345
 6451TIP3    H119294   2.472   5.840   2.398
 6451TIP3    H219295   2.466   5.971   2.322
 6452TIP3   OH219296   8.130   7.802   2.929
 6452TIP3    H119297   8.202   7.739   2.938
 6452TIP3    H219298   8.172   7.885   2.909
 6453TIP3   OH219299   7.272   0.819   5.707
 6453TIP3    H119300   7.237   0.896   5.752
 6453TIP3    H219301   7.258   0.837   5.614
 6454TIP3   OH219302   2.578   7.751   2.635
 6454TIP3    H119303   2.553   7.667   2.673
 6454TIP3    H219304   2.575   7.813   2.708
 6455TIP3   OH219305   0.567   4.584   0.868
 6455TIP3    H119306   0.602   4.656   0.816
 6455TIP3    H219307   0.473   4.587   0.854
 6456TIP3   OH219308   0.484   2.797   2.307
 6456TIP3    H119309   0.480   2.714   2.259
 6456TIP3    H219310   0.397   2.834   2.299
 6457TIP3   OH219311   1.653   3.247   3.735
 6457TIP3    H119312   1.703   3.314   3.689
 6457TIP3    H219313   1.693   3.164   3.708
 6458TIP3   OH219314   5.047   4.906   1.398
 6458TIP3    H119315   5.060   4.812   1.409
 6458TIP3    H219316   5.035   4.940   1.487
 6459TIP3   OH219317   2.148   3.524   4.165
 6459TIP3    H119318   2.095   3.453   4.130
 6459TIP3    H219319   2.239   3.495   4.154
 6460TIP3   OH219320   6.388   2.210   4.019
 6460TIP3    H119321   6.349   2.141   3.965
 6460TIP3    H219322   6.465   2.238   3.970
 6461TIP3   OH219323   6.676   4.115   3.088
 6461TIP3    H119324   6.689   4.022   3.068
 6461TIP3    H219325   6.661   4.117   3.183
 6462TIP3   OH219326   3.589   4.362   5.841
 6462TIP3    H119327   3.591   4.274   5.804
 6462TIP3    H219328   3.560   4.350   5.931
 6463TIP3   OH219329   3.557   5.426   4.813
 6463TIP3    H119330   3.500   5.385   4.877
 6463TIP3    H219331   3.510   5.419   4.730
 6464TIP3   OH219332   7.848   0.072   0.270
 6464TIP3    H119333   7.905   0.023   0.328
 6464TIP3    H219334   7.907   0.133   0.225
 6465TIP3   OH219335   3.379   0.833   5.200
 6465TIP3    H119336   3.449   0.777   5.233
 6465TIP3    H219337   3.396   0.918   5.242
 6466TIP3   OH219338   5.884   0.181   5.450
 6466TIP3    H119339   5.965   0.130   5.454
 6466TIP3    H219340   5.857   0.190   5.541
 6467TIP3   OH219341   7.237   5.705   5.341
 6467TIP3    H119342   7.211   5.625   5.296
 6467TIP3    H219343   7.233   5.682   5.434
 6468TIP3   OH219344   7.621   0.747   1.339
 6468TIP3    H119345   7.702   0.696   1.340
 6468TIP3    H219346   7.588   0.742   1.429
 6469TIP3   OH219347   7.540   4.156   3.102
 6469TIP3    H119348   7.627   4.186   3.127
 6469TIP3    H219349   7.555   4.092   3.033
 6470TIP3   OH219350   7.657   1.776   5.259
 6470TIP3    H119351   7.735   1.776   5.203
 6470TIP3    H219352   7.591   1.821   5.208
 6471TIP3   OH219353   0.422   7.142   2.495
 6471TIP3    H119354   0.339   7.186   2.516
 6471TIP3    H219355   0.427   7.070   2.557
 6472TIP3   OH219356   4.905   7.112   1.627
 6472TIP3    H119357   4.930   7.022   1.606
 6472TIP3    H219358   4.827   7.103   1.682
 6473TIP3   OH219359   3.724   2.946   5.150
 6473TIP3    H119360   3.765   3.029   5.176
 6473TIP3    H219361   3.776   2.916   5.075
 6474TIP3   OH219362   4.000   7.630   4.690
 6474TIP3    H119363   3.969   7.560   4.747
 6474TIP3    H219364   3.929   7.695   4.689
 6475TIP3   OH219365   4.441   7.175   5.493
 6475TIP3    H119366   4.438   7.205   5.402
 6475TIP3    H219367   4.432   7.255   5.545
 6476TIP3   OH219368   2.812   3.783   3.779
 6476TIP3    H119369   2.808   3.716   3.711
 6476TIP3    H219370   2.893   3.765   3.827
 6477TIP3   OH219371   1.174   1.488   6.578
 6477TIP3    H119372   1.232   1.433   6.630
 6477TIP3    H219373   1.105   1.428   6.548
 6478TIP3   OH219374   7.238   4.196   3.994
 6478TIP3    H119375   7.227   4.133   3.922
 6478TIP3    H219376   7.237   4.282   3.952
 6479TIP3   OH219377   7.911   1.006   2.256
 6479TIP3    H119378   7.888   0.971   2.342
 6479TIP3    H219379   7.915   1.101   2.268
 6480TIP3   OH219380   3.680   3.170   0.175
 6480TIP3    H119381   3.665   3.136   0.086
 6480TIP3    H219382   3.748   3.113   0.211
 6481TIP3   OH219383   1.701   2.441   2.803
 6481TIP3    H119384   1.773   2.453   2.741
 6481TIP3    H219385   1.623   2.467   2.754
 6482TIP3   OH219386   5.095   3.676   3.351
 6482TIP3    H119387   5.001   3.685   3.365
 6482TIP3    H219388   5.135   3.724   3.423
 6483TIP3   OH219389   6.257   3.246   4.570
 6483TIP3    H119390   6.319   3.192   4.619
 6483TIP3    H219391   6.222   3.307   4.636
 6484TIP3   OH219392   5.251   5.632   2.231
 6484TIP3    H119393   5.230   5.725   2.216
 6484TIP3    H219394   5.342   5.623   2.203
 6485TIP3   OH219395   8.206   2.833   0.358
 6485TIP3    H119396   8.175   2.776   0.428
 6485TIP3    H219397   8.127   2.867   0.317
 6486TIP3   OH219398   2.609   4.789   6.650
 6486TIP3    H119399   2.682   4.773   6.710
 6486TIP3    H219400   2.591   4.704   6.610
 6487TIP3   OH219401   2.199   4.900   1.222
 6487TIP3    H119402   2.289   4.871   1.205
 6487TIP3    H219403   2.192   4.900   1.318
 6488TIP3   OH219404   7.392   0.960   1.101
 6488TIP3    H119405   7.377   1.042   1.054
 6488TIP3    H219406   7.304   0.931   1.127
 6489TIP3   OH219407   7.891   3.699   2.782
 6489TIP3    H119408   7.861   3.787   2.802
 6489TIP3    H219409   7.812   3.645   2.786
 6490TIP3   OH219410   2.712   2.088   2.006
 6490TIP3    H119411   2.625   2.105   2.041
 6490TIP3    H219412   2.742   2.011   2.054
 6491TIP3   OH219413   3.785   5.605   0.502
 6491TIP3    H119414   3.752   5.695   0.499
 6491TIP3    H219415   3.877   5.614   0.528
 6492TIP3   OH219416   5.946   2.914   5.606
 6492TIP3    H119417   5.974   2.999   5.641
 6492TIP3    H219418   5.855   2.929   5.580
 6493TIP3   OH219419   8.295   5.010   0.171
 6493TIP3    H119420   8.316   4.946   0.239
 6493TIP3    H219421   8.375   5.060   0.159
 6494TIP3   OH219422   1.813   2.539   3.529
 6494TIP3    H119423   1.718   2.545   3.521
 6494TIP3    H219424   1.835   2.602   3.597
 6495TIP3   OH219425   7.540   0.608   6.550
 6495TIP3    H119426   7.499   0.669   6.610
 6495TIP3    H219427   7.469   0.578   6.493
 6496TIP3   OH219428   5.183   1.135   5.531
 6496TIP3    H119429   5.156   1.072   5.598
 6496TIP3    H219430   5.224   1.081   5.463
 6497TIP3   OH219431   3.338   2.855   5.798
 6497TIP3    H119432   3.355   2.795   5.871
 6497TIP3    H219433   3.248   2.886   5.813
 6498TIP3   OH219434   6.300   7.625   6.470
 6498TIP3    H119435   6.238   7.557   6.440
 6498TIP3    H219436   6.386   7.586   6.457
 6499TIP3   OH219437   4.510   1.972   0.485
 6499TIP3    H119438   4.544   1.888   0.515
 6499TIP3    H219439   4.425   1.953   0.447
 6500TIP3   OH219440   6.332   6.901   0.793
 6500TIP3    H119441   6.349   6.983   0.746
 6500TIP3    H219442   6.415   6.880   0.835
 6501TIP3   OH219443   7.232   6.011   0.379
 6501TIP3    H119444   7.222   5.917   0.398
 6501TIP3    H219445   7.265   6.049   0.460
 6502TIP3   OH219446   3.800   4.539   6.687
 6502TIP3    H119447   3.842   4.574   6.765
 6502TIP3    H219448   3.836   4.450   6.678
 6503TIP3   OH219449   2.290   5.942   1.313
 6503TIP3    H119450   2.357   5.963   1.249
 6503TIP3    H219451   2.284   6.020   1.368
 6504TIP3   OH219452   7.076   0.081   3.118
 6504TIP3    H119453   7.005   0.142   3.099
 6504TIP3    H219454   7.155   0.130   3.096
 6505TIP3   OH219455   7.291   5.254   4.104
 6505TIP3    H119456   7.374   5.289   4.135
 6505TIP3    H219457   7.297   5.257   4.008
 6506TIP3   OH219458   6.237   6.200   3.572
 6506TIP3    H119459   6.316   6.215   3.624
 6506TIP3    H219460   6.219   6.107   3.580
 6507TIP3   OH219461   1.288   4.760   1.924
 6507TIP3    H119462   1.250   4.800   2.002
 6507TIP3    H219463   1.274   4.824   1.854
 6508TIP3   OH219464   5.698   6.108   6.629
 6508TIP3    H119465   5.737   6.081   6.712
 6508TIP3    H219466   5.730   6.197   6.614
 6509TIP3   OH219467   0.152   3.091   6.099
 6509TIP3    H119468   0.119   3.005   6.072
 6509TIP3    H219469   0.228   3.071   6.153
 6510TIP3   OH219470   2.297   1.158   6.827
 6510TIP3    H119471   2.353   1.195   6.758
 6510TIP3    H219472   2.347   1.084   6.861
 6511TIP3   OH219473   1.293   5.958   0.394
 6511TIP3    H119474   1.252   5.991   0.474
 6511TIP3    H219475   1.386   5.955   0.414
 6512TIP3   OH219476   8.084   2.106   5.571
 6512TIP3    H119477   8.041   2.036   5.621
 6512TIP3    H219478   8.022   2.179   5.576
 6513TIP3   OH219479   0.214   3.870   5.518
 6513TIP3    H119480   0.305   3.889   5.496
 6513TIP3    H219481   0.217   3.795   5.576
 6514TIP3   OH219482   0.212   7.571   1.410
 6514TIP3    H119483   0.267   7.548   1.485
 6514TIP3    H219484   0.154   7.639   1.444
 6515TIP3   OH219485   6.123   4.197   5.843
 6515TIP3    H119486   6.172   4.125   5.882
 6515TIP3    H219487   6.088   4.160   5.762
 6516TIP3   OH219488   4.434   3.878   0.705
 6516TIP3    H119489   4.426   3.901   0.613
 6516TIP3    H219490   4.359   3.821   0.722
 6517TIP3   OH219491   3.981   6.440   1.828
 6517TIP3    H119492   3.992   6.433   1.922
 6517TIP3    H219493   3.895   6.481   1.817
 6518TIP3   OH219494   3.249   3.966   6.616
 6518TIP3    H119495   3.254   3.870   6.613
 6518TIP3    H219496   3.333   3.994   6.651
 6519TIP3   OH219497   6.609   3.464   3.087
 6519TIP3    H119498   6.586   3.521   3.160
 6519TIP3    H219499   6.682   3.507   3.044
 6520TIP3   OH219500   3.805   0.036   0.343
 6520TIP3    H119501   3.748   0.092   0.290
 6520TIP3    H219502   3.745  -0.010   0.402
 6521TIP3   OH219503   1.059   7.267   5.977
 6521TIP3    H119504   1.060   7.184   5.931
 6521TIP3    H219505   1.033   7.245   6.066
 6522TIP3   OH219506   2.866   2.176   0.236
 6522TIP3    H119507   2.876   2.186   0.331
 6522TIP3    H219508   2.815   2.252   0.209
 6523TIP3   OH219509   2.938   4.650   2.356
 6523TIP3    H119510   2.974   4.691   2.434
 6523TIP3    H219511   3.000   4.580   2.335
 6524TIP3   OH219512   2.528   0.319   3.034
 6524TIP3    H119513   2.457   0.369   2.993
 6524TIP3    H219514   2.491   0.291   3.118
 6525TIP3   OH219515   6.644   7.564   2.154
 6525TIP3    H119516   6.694   7.507   2.212
 6525TIP3    H219517   6.555   7.562   2.189
 6526TIP3   OH219518   3.956   1.489   1.189
 6526TIP3    H119519   3.997   1.456   1.269
 6526TIP3    H219520   3.869   1.448   1.188
 6527TIP3   OH219521   3.620   1.102   0.941
 6527TIP3    H119522   3.683   1.035   0.913
 6527TIP3    H219523   3.583   1.135   0.859
 6528TIP3   OH219524   7.378   7.734   0.906
 6528TIP3    H119525   7.472   7.722   0.898
 6528TIP3    H219526   7.340   7.682   0.835
 6529TIP3   OH219527   5.714   3.780   2.208
 6529TIP3    H119528   5.684   3.724   2.279
 6529TIP3    H219529   5.785   3.832   2.246
 6530TIP3   OH219530   0.261   7.835   2.562
 6530TIP3    H119531   0.291   7.798   2.479
 6530TIP3    H219532   0.225   7.760   2.610
 6531TIP3   OH219533   2.735   0.266   4.608
 6531TIP3    H119534   2.659   0.317   4.583
 6531TIP3    H219535   2.803   0.293   4.546
 6532TIP3   OH219536   2.035   7.508   6.692
 6532TIP3    H119537   2.068   7.552   6.770
 6532TIP3    H219538   2.086   7.427   6.688
 6533TIP3   OH219539   6.357   6.905   5.158
 6533TIP3    H119540   6.433   6.847   5.153
 6533TIP3    H219541   6.355   6.933   5.250
 6534TIP3   OH219542   4.497   0.941   5.039
 6534TIP3    H119543   4.434   0.950   5.110
 6534TIP3    H219544   4.444   0.939   4.959
 6535TIP3   OH219545   6.188   2.780   5.749
 6535TIP3    H119546   6.174   2.842   5.821
 6535TIP3    H219547   6.130   2.707   5.768
 6536TIP3   OH219548   1.157   6.608   4.659
 6536TIP3    H119549   1.093   6.585   4.726
 6536TIP3    H219550   1.220   6.664   4.704
 6537TIP3   OH219551   6.106   3.953   0.781
 6537TIP3    H119552   6.049   4.008   0.836
 6537TIP3    H219553   6.076   3.969   0.692
 6538TIP3   OH219554   2.179   3.299   0.390
 6538TIP3    H119555   2.129   3.246   0.328
 6538TIP3    H219556   2.154   3.389   0.369
 6539TIP3   OH219557   7.290   3.842   4.186
 6539TIP3    H119558   7.227   3.908   4.158
 6539TIP3    H219559   7.257   3.760   4.148
 6540TIP3   OH219560   7.294   0.168   5.030
 6540TIP3    H119561   7.328   0.201   5.114
 6540TIP3    H219562   7.281   0.074   5.045
 6541TIP3   OH219563   5.343   5.385   1.697
 6541TIP3    H119564   5.409   5.453   1.685
 6541TIP3    H219565   5.260   5.429   1.684
 6542TIP3   OH219566   4.382   4.855   4.124
 6542TIP3    H119567   4.298   4.883   4.088
 6542TIP3    H219568   4.378   4.880   4.216
 6543TIP3   OH219569   4.169   0.483   2.988
 6543TIP3    H119570   4.092   0.505   3.039
 6543TIP3    H219571   4.213   0.567   2.973
 6544TIP3   OH219572   4.819   4.319   4.972
 6544TIP3    H119573   4.792   4.298   4.883
 6544TIP3    H219574   4.906   4.357   4.962
 6545TIP3   OH219575   6.736   1.387   6.776
 6545TIP3    H119576   6.761   1.431   6.857
 6545TIP3    H219577   6.728   1.295   6.799
 6546TIP3   OH219578   2.223   3.742   5.173
 6546TIP3    H119579   2.214   3.825   5.221
 6546TIP3    H219580   2.181   3.759   5.088
 6547TIP3   OH219581   3.201   1.040   1.057
 6547TIP3    H119582   3.271   0.979   1.081
 6547TIP3    H219583   3.180   1.086   1.138
 6548TIP3   OH219584   7.734   7.725   3.740
 6548TIP3    H119585   7.642   7.705   3.726
 6548TIP3    H219586   7.776   7.707   3.656
 6549TIP3   OH219587   5.164   3.389   0.486
 6549TIP3    H119588   5.253   3.413   0.511
 6549TIP3    H219589   5.167   3.377   0.391
 6550TIP3   OH219590   8.002   6.712   2.938
 6550TIP3    H119591   7.919   6.712   2.986
 6550TIP3    H219592   8.016   6.620   2.915
 6551TIP3   OH219593   3.941   6.719   1.741
 6551TIP3    H119594   4.020   6.667   1.751
 6551TIP3    H219595   3.969   6.810   1.753
 6552TIP3   OH219596   7.675   0.423   4.157
 6552TIP3    H119597   7.632   0.371   4.090
 6552TIP3    H219598   7.762   0.442   4.121
 6553TIP3   OH219599  -0.072   6.178   0.018
 6553TIP3    H119600  -0.050   6.108   0.079
 6553TIP3    H219601   0.008   6.190  -0.034
 6554TIP3   OH219602   7.453   3.447   6.249
 6554TIP3    H119603   7.496   3.387   6.188
 6554TIP3    H219604   7.514   3.520   6.258
 6555TIP3   OH219605   7.537   3.699   3.562
 6555TIP3    H119606   7.552   3.692   3.656
 6555TIP3    H219607   7.451   3.742   3.554
 6556TIP3   OH219608   4.618   0.401   2.202
 6556TIP3    H119609   4.536   0.450   2.197
 6556TIP3    H219610   4.649   0.415   2.291
 6557TIP3   OH219611   5.692   6.440   5.671
 6557TIP3    H119612   5.739   6.392   5.739
 6557TIP3    H219613   5.744   6.519   5.657
 6558TIP3   OH219614   0.565   0.713   0.821
 6558TIP3    H119615   0.638   0.703   0.759
 6558TIP3    H219616   0.551   0.625   0.856
 6559TIP3   OH219617   2.594   2.510   0.351
 6559TIP3    H119618   2.645   2.500   0.431
 6559TIP3    H219619   2.548   2.593   0.361
 6560TIP3   OH219620   7.603   4.678   3.427
 6560TIP3    H119621   7.631   4.754   3.377
 6560TIP3    H219622   7.621   4.603   3.370
 6561TIP3   OH219623   5.902   1.569   4.368
 6561TIP3    H119624   5.841   1.573   4.295
 6561TIP3    H219625   5.988   1.562   4.327
 6562TIP3   OH219626   2.815   6.248   4.706
 6562TIP3    H119627   2.872   6.173   4.686
 6562TIP3    H219628   2.874   6.312   4.745
 6563TIP3   OH219629   4.227   3.066   0.915
 6563TIP3    H119630   4.282   3.078   0.838
 6563TIP3    H219631   4.143   3.105   0.891
 6564TIP3   OH219632   7.540   0.724   4.599
 6564TIP3    H119633   7.514   0.709   4.508
 6564TIP3    H219634   7.595   0.803   4.595
 6565TIP3   OH219635   3.240   4.400   0.495
 6565TIP3    H119636   3.182   4.330   0.465
 6565TIP3    H219637   3.298   4.417   0.421
 6566TIP3   OH219638   0.436   5.453   3.385
 6566TIP3    H119639   0.517   5.499   3.407
 6566TIP3    H219640   0.453   5.361   3.407
 6567TIP3   OH219641   0.184   0.414   4.832
 6567TIP3    H119642   0.088   0.412   4.834
 6567TIP3    H219643   0.207   0.389   4.743
 6568TIP3   OH219644   2.931   1.065   0.930
 6568TIP3    H119645   2.885   1.129   0.983
 6568TIP3    H219646   3.017   1.058   0.970
 6569TIP3   OH219647   6.272   6.763   2.828
 6569TIP3    H119648   6.328   6.792   2.900
 6569TIP3    H219649   6.281   6.668   2.827
 6570TIP3   OH219650   0.123   0.032   4.309
 6570TIP3    H119651   0.108   0.008   4.217
 6570TIP3    H219652   0.214   0.063   4.311
 6571TIP3   OH219653   4.277   1.563   6.263
 6571TIP3    H119654   4.291   1.472   6.288
 6571TIP3    H219655   4.345   1.612   6.309
 6572TIP3   OH219656   0.730   2.020   1.134
 6572TIP3    H119657   0.690   2.000   1.049
 6572TIP3    H219658   0.753   1.935   1.171
 6573TIP3   OH219659   4.786   2.854   5.449
 6573TIP3    H119660   4.876   2.830   5.472
 6573TIP3    H219661   4.734   2.833   5.526
 6574TIP3   OH219662   2.885   3.001   0.437
 6574TIP3    H119663   2.878   2.973   0.346
 6574TIP3    H219664   2.794   3.019   0.464
 6575TIP3   OH219665   1.888   1.604   2.480
 6575TIP3    H119666   1.935   1.527   2.449
 6575TIP3    H219667   1.805   1.602   2.434
 6576TIP3   OH219668   5.196   4.788   2.496
 6576TIP3    H119669   5.288   4.790   2.470
 6576TIP3    H219670   5.149   4.832   2.425
 6577TIP3   OH219671   1.315   7.323   0.751
 6577TIP3    H119672   1.302   7.313   0.845
 6577TIP3    H219673   1.238   7.283   0.711
 6578TIP3   OH219674   4.332   3.037   3.296
 6578TIP3    H119675   4.249   2.993   3.317
 6578TIP3    H219676   4.396   2.965   3.291
 6579TIP3   OH219677   6.984   7.679   6.112
 6579TIP3    H119678   7.014   7.748   6.171
 6579TIP3    H219679   6.969   7.604   6.169
 6580TIP3   OH219680   3.879   0.969   3.133
 6580TIP3    H119681   3.859   1.053   3.091
 6580TIP3    H219682   3.975   0.963   3.128
 6581TIP3   OH219683   2.766   0.405   2.844
 6581TIP3    H119684   2.716   0.448   2.914
 6581TIP3    H219685   2.754   0.312   2.861
 6582TIP3   OH219686   1.064   0.988   5.804
 6582TIP3    H119687   1.100   1.071   5.774
 6582TIP3    H219688   1.125   0.958   5.871
 6583TIP3   OH219689   0.843   7.466   4.540
 6583TIP3    H119690   0.817   7.458   4.632
 6583TIP3    H219691   0.764   7.493   4.495
 6584TIP3   OH219692   1.208   2.173   3.743
 6584TIP3    H119693   1.264   2.182   3.665
 6584TIP3    H219694   1.183   2.262   3.765
 6585TIP3   OH219695   6.225   4.246   5.399
 6585TIP3    H119696   6.281   4.286   5.465
 6585TIP3    H219697   6.138   4.247   5.437
 6586TIP3   OH219698   0.322   7.268   5.967
 6586TIP3    H119699   0.385   7.314   6.023
 6586TIP3    H219700   0.351   7.289   5.878
 6587TIP3   OH219701   5.389   1.334   5.679
 6587TIP3    H119702   5.354   1.353   5.766
 6587TIP3    H219703   5.315   1.297   5.631
 6588TIP3   OH219704   0.796   1.554   0.875
 6588TIP3    H119705   0.717   1.515   0.912
 6588TIP3    H219706   0.769   1.585   0.788
 6589TIP3   OH219707   4.400   3.203   1.176
 6589TIP3    H119708   4.373   3.293   1.190
 6589TIP3    H219709   4.435   3.201   1.087
 6590TIP3   OH219710   2.471   1.710   5.310
 6590TIP3    H119711   2.407   1.780   5.296
 6590TIP3    H219712   2.516   1.702   5.226
 6591TIP3   OH219713   6.954   5.335   0.194
 6591TIP3    H119714   6.924   5.405   0.252
 6591TIP3    H219715   6.899   5.341   0.117
 6592TIP3   OH219716   1.965   1.719   3.730
 6592TIP3    H119717   1.980   1.691   3.820
 6592TIP3    H219718   1.920   1.645   3.688
 6593TIP3   OH219719   7.134   4.989   3.193
 6593TIP3    H119720   7.042   4.970   3.174
 6593TIP3    H219721   7.135   5.081   3.220
 6594TIP3   OH219722   0.078   0.362   5.735
 6594TIP3    H119723   0.020   0.287   5.750
 6594TIP3    H219724   0.019   0.437   5.728
 6595TIP3   OH219725   4.433   3.708   6.399
 6595TIP3    H119726   4.487   3.781   6.370
 6595TIP3    H219727   4.357   3.710   6.341
 6596TIP3   OH219728   7.892   2.437   5.846
 6596TIP3    H119729   7.814   2.402   5.803
 6596TIP3    H219730   7.867   2.525   5.874
 6597TIP3   OH219731   4.482   3.757   3.196
 6597TIP3    H119732   4.542   3.737   3.124
 6597TIP3    H219733   4.440   3.839   3.170
 6598TIP3   OH219734   6.219   6.574   0.768
 6598TIP3    H119735   6.235   6.592   0.860
 6598TIP3    H219736   6.153   6.504   0.768
 6599TIP3   OH219737   4.685   5.124   1.407
 6599TIP3    H119738   4.767   5.165   1.435
 6599TIP3    H219739   4.712   5.045   1.361
 6600TIP3   OH219740   2.377   2.342   0.515
 6600TIP3    H119741   2.438   2.414   0.528
 6600TIP3    H219742   2.423   2.282   0.457
 6601TIP3   OH219743   2.989   4.202   0.564
 6601TIP3    H119744   3.024   4.146   0.494
 6601TIP3    H219745   2.924   4.257   0.520
 6602TIP3   OH219746   8.273   4.682   3.752
 6602TIP3    H119747   8.220   4.684   3.832
 6602TIP3    H219748   8.361   4.658   3.782
 6603TIP3   OH219749   7.194   7.087   5.282
 6603TIP3    H119750   7.228   6.999   5.299
 6603TIP3    H219751   7.151   7.080   5.197
 6604TIP3   OH219752   6.076   6.934   0.673
 6604TIP3    H119753   6.165   6.901   0.690
 6604TIP3    H219754   6.030   6.860   0.634
 6605TIP3   OH219755   2.087   3.478   2.425
 6605TIP3    H119756   2.154   3.525   2.374
 6605TIP3    H219757   2.008   3.486   2.371
 6606TIP3   OH219758   4.347   7.821   1.335
 6606TIP3    H119759   4.361   7.845   1.243
 6606TIP3    H219760   4.277   7.756   1.333
 6607TIP3   OH219761   4.586   7.146   2.592
 6607TIP3    H119762   4.674   7.124   2.560
 6607TIP3    H219763   4.597   7.155   2.687
 6608TIP3   OH219764   3.717   3.136   6.655
 6608TIP3    H119765   3.693   3.216   6.608
 6608TIP3    H219766   3.783   3.095   6.599
 6609TIP3   OH219767   2.376   7.661   2.303
 6609TIP3    H119768   2.313   7.706   2.359
 6609TIP3    H219769   2.383   7.573   2.342
 6610TIP3   OH219770   6.704   0.370   1.361
 6610TIP3    H119771   6.667   0.325   1.285
 6610TIP3    H219772   6.709   0.462   1.334
 6611TIP3   OH219773   3.371   5.657   4.725
 6611TIP3    H119774   3.444   5.677   4.784
 6611TIP3    H219775   3.312   5.732   4.735
 6612TIP3   OH219776   3.078   7.266   2.744
 6612TIP3    H119777   3.055   7.185   2.698
 6612TIP3    H219778   3.098   7.238   2.833
 6613TIP3   OH219779   7.212   1.596   5.461
 6613TIP3    H119780   7.215   1.692   5.458
 6613TIP3    H219781   7.233   1.575   5.552
 6614TIP3   OH219782   4.751   5.021   2.296
 6614TIP3    H119783   4.829   5.062   2.257
 6614TIP3    H219784   4.681   5.084   2.279
 6615TIP3   OH219785   7.791   5.255   6.476
 6615TIP3    H119786   7.751   5.257   6.563
 6615TIP3    H219787   7.797   5.347   6.450
 6616TIP3   OH219788   4.955   6.965   0.706
 6616TIP3    H119789   4.964   6.881   0.751
 6616TIP3    H219790   4.944   6.942   0.613
 6617TIP3   OH219791   8.191   0.351   2.466
 6617TIP3    H119792   8.128   0.368   2.396
 6617TIP3    H219793   8.256   0.293   2.425
 6618TIP3   OH219794   0.238   4.877   6.254
 6618TIP3    H119795   0.308   4.937   6.278
 6618TIP3    H219796   0.273   4.827   6.181
 6619TIP3   OH219797   8.276   6.950   0.317
 6619TIP3    H119798   8.220   6.939   0.394
 6619TIP3    H219799   8.219   6.989   0.251
 6620TIP3   OH219800   5.848   7.528   0.511
 6620TIP3    H119801   5.866   7.582   0.435
 6620TIP3    H219802   5.927   7.476   0.524
 6621TIP3   OH219803   1.342   6.943   1.792
 6621TIP3    H119804   1.311   6.861   1.831
 6621TIP3    H219805   1.263   6.989   1.765
 6622TIP3   OH219806   2.644   5.036   2.034
 6622TIP3    H119807   2.553   5.052   2.011
 6622TIP3    H219808   2.678   5.123   2.056
 6623TIP3   OH219809   3.662   6.704   2.142
 6623TIP3    H119810   3.693   6.781   2.189
 6623TIP3    H219811   3.597   6.665   2.200
 6624TIP3   OH219812   6.281   3.311   5.422
 6624TIP3    H119813   6.266   3.395   5.465
 6624TIP3    H219814   6.354   3.327   5.362
 6625TIP3   OH219815   1.728   0.429   3.139
 6625TIP3    H119816   1.796   0.458   3.199
 6625TIP3    H219817   1.749   0.337   3.121
 6626TIP3   OH219818   5.239   7.832   5.950
 6626TIP3    H119819   5.239   7.810   5.857
 6626TIP3    H219820   5.154   7.802   5.982
 6627TIP3   OH219821   7.438   3.933   3.900
 6627TIP3    H119822   7.353   3.963   3.870
 6627TIP3    H219823   7.500   4.000   3.868
 6628TIP3   OH219824   6.223   0.360   5.165
 6628TIP3    H119825   6.216   0.414   5.086
 6628TIP3    H219826   6.133   0.342   5.190
 6629TIP3   OH219827   8.313   2.717   1.439
 6629TIP3    H119828   8.330   2.625   1.461
 6629TIP3    H219829   8.386   2.764   1.477
 6630TIP3   OH219830   0.243   5.575  -0.002
 6630TIP3    H119831   0.213   5.604   0.084
 6630TIP3    H219832   0.306   5.642  -0.029
 6631TIP3   OH219833   6.963   5.668   4.769
 6631TIP3    H119834   7.052   5.702   4.779
 6631TIP3    H219835   6.908   5.733   4.813
 6632TIP3   OH219836   2.072   4.048   0.137
 6632TIP3    H119837   2.021   4.102   0.077
 6632TIP3    H219838   2.105   4.109   0.203
 6633TIP3   OH219839   0.854   2.670   5.873
 6633TIP3    H119840   0.896   2.695   5.791
 6633TIP3    H219841   0.925   2.639   5.929
 6634TIP3   OH219842   4.835   2.203   2.332
 6634TIP3    H119843   4.812   2.295   2.337
 6634TIP3    H219844   4.766   2.163   2.279
 6635TIP3   OH219845   3.314   4.345   3.938
 6635TIP3    H119846   3.341   4.343   3.846
 6635TIP3    H219847   3.219   4.356   3.934
 6636TIP3   OH219848   2.982   0.962   1.280
 6636TIP3    H119849   3.047   1.031   1.295
 6636TIP3    H219850   3.033   0.886   1.253
 6637TIP3   OH219851   3.582   3.635   1.620
 6637TIP3    H119852   3.605   3.544   1.600
 6637TIP3    H219853   3.524   3.662   1.549
 6638TIP3   OH219854   8.335   2.443   5.879
 6638TIP3    H119855   8.393   2.377   5.839
 6638TIP3    H219856   8.386   2.478   5.952
 6639TIP3   OH219857   6.738   4.570   5.206
 6639TIP3    H119858   6.679   4.579   5.131
 6639TIP3    H219859   6.679   4.565   5.282
 6640TIP3   OH219860   1.527   6.730   3.866
 6640TIP3    H119861   1.463   6.782   3.914
 6640TIP3    H219862   1.512   6.753   3.774
 6641TIP3   OH219863   1.059   1.042   1.872
 6641TIP3    H119864   1.117   1.106   1.831
 6641TIP3    H219865   1.103   1.020   1.954
 6642TIP3   OH219866   8.071   4.181   6.533
 6642TIP3    H119867   8.109   4.199   6.447
 6642TIP3    H219868   8.132   4.221   6.595
 6643TIP3   OH219869   4.047   2.711   1.036
 6643TIP3    H119870   4.098   2.727   1.115
 6643TIP3    H219871   3.989   2.787   1.029
 6644TIP3   OH219872   7.401  -0.011   4.454
 6644TIP3    H119873   7.376   0.080   4.467
 6644TIP3    H219874   7.453  -0.010   4.374
 6645TIP3   OH219875   1.439   5.437   2.663
 6645TIP3    H119876   1.391   5.354   2.657
 6645TIP3    H219877   1.485   5.445   2.580
 6646TIP3   OH219878   0.836   4.684   4.592
 6646TIP3    H119879   0.931   4.675   4.594
 6646TIP3    H219880   0.808   4.654   4.679
 6647TIP3   OH219881   1.922   1.296   1.865
 6647TIP3    H119882   1.844   1.320   1.915
 6647TIP3    H219883   1.890   1.280   1.776
 6648TIP3   OH219884   4.571   4.665   0.157
 6648TIP3    H119885   4.482   4.643   0.130
 6648TIP3    H219886   4.580   4.758   0.136
 6649TIP3   OH219887   1.790   5.605   5.694
 6649TIP3    H119888   1.752   5.522   5.665
 6649TIP3    H219889   1.779   5.664   5.619
 6650TIP3   OH219890   5.560   3.792   0.227
 6650TIP3    H119891   5.620   3.802   0.152
 6650TIP3    H219892   5.539   3.699   0.228
 6651TIP3   OH219893   2.462   2.097   6.181
 6651TIP3    H119894   2.388   2.098   6.121
 6651TIP3    H219895   2.460   2.183   6.223
 6652TIP3   OH219896   2.925   6.329   3.194
 6652TIP3    H119897   2.874   6.252   3.172
 6652TIP3    H219898   2.956   6.312   3.283
 6653TIP3   OH219899   5.739   2.431   0.557
 6653TIP3    H119900   5.690   2.404   0.635
 6653TIP3    H219901   5.682   2.408   0.484
 6654TIP3   OH219902   0.558   0.680   6.444
 6654TIP3    H119903   0.644   0.703   6.478
 6654TIP3    H219904   0.517   0.629   6.514
 6655TIP3   OH219905   6.758   4.889   0.611
 6655TIP3    H119906   6.669   4.922   0.625
 6655TIP3    H219907   6.815   4.952   0.655
 6656TIP3   OH219908   6.589   7.007   3.535
 6656TIP3    H119909   6.497   7.013   3.557
 6656TIP3    H219910   6.618   6.925   3.576
 6657TIP3   OH219911   4.823   1.177   0.672
 6657TIP3    H119912   4.736   1.189   0.710
 6657TIP3    H219913   4.807   1.159   0.580
 6658TIP3   OH219914   0.335   0.630   1.576
 6658TIP3    H119915   0.312   0.647   1.485
 6658TIP3    H219916   0.430   0.640   1.579
 6659TIP3   OH219917   0.206   7.009   0.549
 6659TIP3    H119918   0.291   6.968   0.535
 6659TIP3    H219919   0.222   7.103   0.541
 6660TIP3   OH219920   5.282   0.587   1.718
 6660TIP3    H119921   5.253   0.546   1.800
 6660TIP3    H219922   5.330   0.665   1.747
 6661TIP3   OH219923   1.786   2.519   1.541
 6661TIP3    H119924   1.745   2.547   1.622
 6661TIP3    H219925   1.782   2.423   1.544
 6662TIP3   OH219926   0.455   2.955   6.671
 6662TIP3    H119927   0.512   2.966   6.747
 6662TIP3    H219928   0.489   2.877   6.627
 6663TIP3   OH219929   8.222   7.519   2.319
 6663TIP3    H119930   8.206   7.431   2.285
 6663TIP3    H219931   8.154   7.532   2.386
 6664TIP3   OH219932   4.908   1.700   4.726
 6664TIP3    H119933   4.882   1.623   4.777
 6664TIP3    H219934   4.984   1.671   4.677
 6665TIP3   OH219935   2.324   4.711   0.439
 6665TIP3    H119936   2.396   4.692   0.380
 6665TIP3    H219937   2.355   4.784   0.492
 6666TIP3   OH219938   7.262   1.883   2.111
 6666TIP3    H119939   7.247   1.954   2.173
 6666TIP3    H219940   7.292   1.925   2.031
 6667TIP3   OH219941   4.571   5.279   3.666
 6667TIP3    H119942   4.566   5.183   3.661
 6667TIP3    H219943   4.650   5.296   3.717
 6668TIP3   OH219944   2.143   7.586   5.892
 6668TIP3    H119945   2.222   7.608   5.843
 6668TIP3    H219946   2.168   7.510   5.945
 6669TIP3   OH219947   2.992   4.322   3.446
 6669TIP3    H119948   3.006   4.228   3.432
 6669TIP3    H219949   3.059   4.364   3.392
 6670TIP3   OH219950   7.893   3.968   1.088
 6670TIP3    H119951   7.958   3.897   1.085
 6670TIP3    H219952   7.847   3.955   1.171
 6671TIP3   OH219953   2.309   4.654   5.041
 6671TIP3    H119954   2.226   4.668   5.088
 6671TIP3    H219955   2.375   4.693   5.098
 6672TIP3   OH219956   0.385   3.201   0.692
 6672TIP3    H119957   0.305   3.156   0.665
 6672TIP3    H219958   0.416   3.244   0.613
 6673TIP3   OH219959   2.338   5.812   3.823
 6673TIP3    H119960   2.291   5.894   3.809
 6673TIP3    H219961   2.279   5.744   3.789
 6674TIP3   OH219962   3.062   5.854   6.360
 6674TIP3    H119963   3.037   5.946   6.366
 6674TIP3    H219964   3.066   5.825   6.451
 6675TIP3   OH219965   5.066   1.458   2.950
 6675TIP3    H119966   5.017   1.462   3.032
 6675TIP3    H219967   5.157   1.444   2.977
 6676TIP3   OH219968   0.008   1.719   5.527
 6676TIP3    H119969  -0.025   1.781   5.462
 6676TIP3    H219970   0.082   1.764   5.568
 6677TIP3   OH219971   4.827   7.234   0.405
 6677TIP3    H119972   4.880   7.155   0.391
 6677TIP3    H219973   4.754   7.205   0.461
 6678TIP3   OH219974   4.365   0.600   1.898
 6678TIP3    H119975   4.323   0.518   1.920
 6678TIP3    H219976   4.352   0.656   1.974
 6679TIP3   OH219977   5.280   6.407   5.435
 6679TIP3    H119978   5.195   6.362   5.435
 6679TIP3    H219979   5.260   6.497   5.458
 6680TIP3   OH219980   1.944   7.879   3.399
 6680TIP3    H119981   2.006   7.806   3.394
 6680TIP3    H219982   1.877   7.857   3.335
 6681TIP3   OH219983   6.107   0.749   0.951
 6681TIP3    H119984   6.045   0.778   0.884
 6681TIP3    H219985   6.065   0.674   0.992
 6682TIP3   OH219986   5.137   5.446   2.413
 6682TIP3    H119987   5.191   5.502   2.357
 6682TIP3    H219988   5.195   5.422   2.485
 6683TIP3   OH219989   2.447   7.924   0.333
 6683TIP3    H119990   2.510   7.906   0.403
 6683TIP3    H219991   2.454   7.849   0.274
 6684TIP3   OH219992   5.426   0.886   0.919
 6684TIP3    H119993   5.403   0.935   0.840
 6684TIP3    H219994   5.343   0.866   0.960
 6685TIP3   OH219995   2.513   2.721   1.925
 6685TIP3    H119996   2.468   2.644   1.960
 6685TIP3    H219997   2.533   2.697   1.835
 6686TIP3   OH219998   5.812   3.210   6.608
 6686TIP3    H119999   5.879   3.271   6.577
 6686TIP3    H220000   5.813   3.139   6.543
 6687TIP3   OH220001   1.284   1.514   3.264
 6687TIP3    H120002   1.254   1.566   3.338
 6687TIP3    H220003   1.373   1.488   3.287
 6688TIP3   OH220004   5.485   2.987   0.241
 6688TIP3    H120005   5.540   2.992   0.319
 6688TIP3    H220006   5.423   2.916   0.259
 6689TIP3   OH220007   5.440   5.239   1.990
 6689TIP3    H120008   5.397   5.203   2.067
 6689TIP3    H220009   5.369   5.283   1.942
 6690TIP3   OH220010   7.750   0.501   1.349
 6690TIP3    H120011   7.709   0.496   1.263
 6690TIP3    H220012   7.823   0.439   1.344
 6691TIP3   OH220013   4.311   0.100   0.204
 6691TIP3    H120014   4.301   0.089   0.109
 6691TIP3    H220015   4.258   0.178   0.225
 6692TIP3   OH220016   0.100   1.688  -0.009
 6692TIP3    H120017   0.076   1.623   0.056
 6692TIP3    H220018   0.195   1.693  -0.004
 6693TIP3   OH220019   4.939   6.781   6.632
 6693TIP3    H120020   5.008   6.787   6.566
 6693TIP3    H220021   4.898   6.696   6.616
 6694TIP3   OH220022   2.806   1.950   2.590
 6694TIP3    H120023   2.717   1.925   2.616
 6694TIP3    H220024   2.856   1.869   2.595
 6695TIP3   OH220025   3.779   4.322   2.966
 6695TIP3    H120026   3.747   4.288   2.882
 6695TIP3    H220027   3.780   4.417   2.955
 6696TIP3   OH220028   1.546   5.787   1.707
 6696TIP3    H120029   1.533   5.824   1.794
 6696TIP3    H220030   1.563   5.694   1.723
 6697TIP3   OH220031   5.540   0.521   1.392
 6697TIP3    H120032   5.588   0.520   1.475
 6697TIP3    H220033   5.518   0.430   1.376
 6698TIP3   OH220034   6.475   6.668   0.696
 6698TIP3    H120035   6.461   6.760   0.674
 6698TIP3    H220036   6.397   6.642   0.745
 6699TIP3   OH220037   7.789   2.482   2.734
 6699TIP3    H120038   7.732   2.515   2.666
 6699TIP3    H220039   7.762   2.391   2.746
 6700TIP3   OH220040   0.236   7.147   4.014
 6700TIP3    H120041   0.264   7.165   3.924
 6700TIP3    H220042   0.268   7.059   4.032
 6701TIP3   OH220043   1.114   3.400   0.040
 6701TIP3    H120044   1.175   3.372   0.108
 6701TIP3    H220045   1.035   3.348   0.055
 6702TIP3   OH220046   2.625   3.538   2.935
 6702TIP3    H120047   2.641   3.569   3.024
 6702TIP3    H220048   2.711   3.541   2.893
 6703TIP3   OH220049   6.204   0.146   4.454
 6703TIP3    H120050   6.202   0.181   4.365
 6703TIP3    H220051   6.140   0.075   4.453
 6704TIP3   OH220052   0.497   7.648   2.638
 6704TIP3    H120053   0.572   7.682   2.590
 6704TIP3    H220054   0.436   7.621   2.569
 6705TIP3   OH220055   6.226   5.324   0.639
 6705TIP3    H120056   6.296   5.389   0.644
 6705TIP3    H220057   6.244   5.274   0.559
 6706TIP3   OH220058   8.258   6.667   0.187
 6706TIP3    H120059   8.277   6.756   0.159
 6706TIP3    H220060   8.257   6.616   0.106
 6707TIP3   OH220061   4.629   1.755   5.707
 6707TIP3    H120062   4.612   1.754   5.613
 6707TIP3    H220063   4.575   1.827   5.740
 6708TIP3   OH220064   6.836   4.296   2.580
 6708TIP3    H120065   6.825   4.227   2.515
 6708TIP3    H220066   6.851   4.375   2.528
 6709TIP3   OH220067   5.933   3.035   4.595
 6709TIP3    H120068   5.995   3.000   4.531
 6709TIP3    H220069   5.982   3.038   4.677
 6710TIP3   OH220070   1.857   6.086   6.599
 6710TIP3    H120071   1.929   6.022   6.604
 6710TIP3    H220072   1.884   6.149   6.533
 6711TIP3   OH220073   7.071   5.078   1.315
 6711TIP3    H120074   7.061   5.038   1.401
 6711TIP3    H220075   7.157   5.120   1.318
 6712TIP3   OH220076   3.601   5.224   2.508
 6712TIP3    H120077   3.529   5.163   2.495
 6712TIP3    H220078   3.671   5.191   2.452
 6713TIP3   OH220079   3.070   1.408   0.668
 6713TIP3    H120080   3.108   1.341   0.725
 6713TIP3    H220081   3.145   1.451   0.628
 6714TIP3   OH220082   2.638   7.193   4.572
 6714TIP3    H120083   2.647   7.112   4.523
 6714TIP3    H220084   2.624   7.260   4.505
 6715TIP3   OH220085   3.037   7.839   3.202
 6715TIP3    H120086   3.097   7.912   3.221
 6715TIP3    H220087   2.994   7.864   3.120
 6716TIP3   OH220088   0.280   7.930   1.826
 6716TIP3    H120089   0.202   7.945   1.879
 6716TIP3    H220090   0.256   7.859   1.766
 6717TIP3   OH220091   4.384   4.870   4.413
 6717TIP3    H120092   4.377   4.919   4.495
 6717TIP3    H220093   4.474   4.836   4.413
 6718TIP3   OH220094   5.152   5.796   4.170
 6718TIP3    H120095   5.108   5.879   4.193
 6718TIP3    H220096   5.085   5.746   4.123
 6719TIP3   OH220097   1.523   3.169   0.911
 6719TIP3    H120098   1.442   3.117   0.906
 6719TIP3    H220099   1.537   3.183   1.004
 6720TIP3   OH220100   7.523   4.269   6.274
 6720TIP3    H120101   7.442   4.234   6.238
 6720TIP3    H220102   7.537   4.351   6.226
 6721TIP3   OH220103   2.192   4.788   2.611
 6721TIP3    H120104   2.187   4.702   2.654
 6721TIP3    H220105   2.109   4.795   2.564
 6722TIP3   OH220106   4.870   3.317   1.305
 6722TIP3    H120107   4.865   3.407   1.271
 6722TIP3    H220108   4.778   3.290   1.311
 6723TIP3   OH220109   8.330   5.970   4.422
 6723TIP3    H120110   8.246   5.935   4.392
 6723TIP3    H220111   8.393   5.943   4.355
 6724TIP3   OH220112   0.995   1.751   1.346
 6724TIP3    H120113   0.929   1.716   1.286
 6724TIP3    H220114   0.944   1.796   1.414
 6725TIP3   OH220115   6.499   7.672   2.672
 6725TIP3    H120116   6.560   7.629   2.612
 6725TIP3    H220117   6.555   7.725   2.730
 6726TIP3   OH220118   3.356   1.467   2.931
 6726TIP3    H120119   3.429   1.506   2.884
 6726TIP3    H220120   3.293   1.444   2.863
 6727TIP3   OH220121   4.298   2.725   2.316
 6727TIP3    H120122   4.380   2.725   2.365
 6727TIP3    H220123   4.313   2.786   2.244
 6728TIP3   OH220124   6.114   3.081   0.405
 6728TIP3    H120125   6.199   3.126   0.404
 6728TIP3    H220126   6.074   3.108   0.488
 6729TIP3   OH220127   4.711   5.107   1.737
 6729TIP3    H120128   4.624   5.130   1.706
 6729TIP3    H220129   4.756   5.191   1.747
 6730TIP3   OH220130   7.824   6.600   0.470
 6730TIP3    H120131   7.913   6.617   0.440
 6730TIP3    H220132   7.825   6.508   0.497
 6731TIP3   OH220133   3.254   3.469   4.977
 6731TIP3    H120134   3.189   3.444   5.043
 6731TIP3    H220135   3.314   3.528   5.023
 6732TIP3   OH220136   8.363   0.986   5.552
 6732TIP3    H120137   8.423   0.935   5.608
 6732TIP3    H220138   8.334   0.924   5.485
 6733TIP3   OH220139   5.840   5.926   1.194
 6733TIP3    H120140   5.829   5.955   1.104
 6733TIP3    H220141   5.871   6.004   1.241
 6734TIP3   OH220142   5.780   0.515   6.150
 6734TIP3    H120143   5.736   0.559   6.078
 6734TIP3    H220144   5.743   0.427   6.151
 6735TIP3   OH220145   3.491   6.350   2.376
 6735TIP3    H120146   3.528   6.268   2.408
 6735TIP3    H220147   3.560   6.388   2.322
 6736TIP3   OH220148   3.105   1.374   3.180
 6736TIP3    H120149   3.174   1.325   3.137
 6736TIP3    H220150   3.124   1.466   3.160
 6737TIP3   OH220151   3.405   4.892   0.802
 6737TIP3    H120152   3.404   4.820   0.739
 6737TIP3    H220153   3.365   4.855   0.881
 6738TIP3   OH220154   5.587   1.697   5.149
 6738TIP3    H120155   5.664   1.722   5.098
 6738TIP3    H220156   5.549   1.623   5.101
 6739TIP3   OH220157   0.441   7.127   1.224
 6739TIP3    H120158   0.418   7.049   1.175
 6739TIP3    H220159   0.415   7.107   1.314
 6740TIP3   OH220160   6.124   2.211   3.310
 6740TIP3    H120161   6.049   2.221   3.369
 6740TIP3    H220162   6.200   2.229   3.365
 6741TIP3   OH220163   3.958   2.082   3.066
 6741TIP3    H120164   4.005   2.143   3.009
 6741TIP3    H220165   4.025   2.018   3.091
 6742TIP3   OH220166   6.872   2.543   5.875
 6742TIP3    H120167   6.842   2.469   5.929
 6742TIP3    H220168   6.814   2.542   5.799
 6743TIP3   OH220169   4.905   5.903   6.319
 6743TIP3    H120170   4.989   5.887   6.362
 6743TIP3    H220171   4.920   5.882   6.227
 6744TIP3   OH220172   5.918   3.106   0.214
 6744TIP3    H120173   6.001   3.105   0.261
 6744TIP3    H220174   5.877   3.023   0.236
 6745TIP3   OH220175   5.904   1.234   5.321
 6745TIP3    H120176   5.895   1.188   5.238
 6745TIP3    H220177   5.839   1.305   5.316
 6746TIP3   OH220178   6.895   2.416   2.600
 6746TIP3    H120179   6.988   2.436   2.602
 6746TIP3    H220180   6.863   2.460   2.522
 6747TIP3   OH220181   6.392   2.238   3.177
 6747TIP3    H120182   6.390   2.256   3.271
 6747TIP3    H220183   6.429   2.317   3.138
 6748TIP3   OH220184   6.631   4.668   1.673
 6748TIP3    H120185   6.569   4.674   1.746
 6748TIP3    H220186   6.580   4.693   1.596
 6749TIP3   OH220187   7.466   4.266   1.504
 6749TIP3    H120188   7.488   4.359   1.497
 6749TIP3    H220189   7.464   4.235   1.414
 6750TIP3   OH220190   6.557   3.949   4.238
 6750TIP3    H120191   6.484   4.008   4.219
 6750TIP3    H220192   6.630   3.985   4.189
 6751TIP3   OH220193   4.557   5.242   1.194
 6751TIP3    H120194   4.581   5.216   1.283
 6751TIP3    H220195   4.640   5.249   1.147
 6752TIP3   OH220196   0.867   6.149   6.024
 6752TIP3    H120197   0.962   6.138   6.019
 6752TIP3    H220198   0.838   6.079   6.082
 6753TIP3   OH220199   3.698   7.754   3.034
 6753TIP3    H120200   3.638   7.697   2.986
 6753TIP3    H220201   3.719   7.705   3.114
 6754TIP3   OH220202   5.594   4.219   1.705
 6754TIP3    H120203   5.537   4.221   1.629
 6754TIP3    H220204   5.607   4.312   1.728
 6755TIP3   OH220205   2.211   6.656   6.002
 6755TIP3    H120206   2.156   6.579   6.018
 6755TIP3    H220207   2.294   6.620   5.970
 6756TIP3   OH220208   0.372   4.612   5.349
 6756TIP3    H120209   0.400   4.704   5.353
 6756TIP3    H220210   0.452   4.563   5.330
 6757TIP3   OH220211   7.331   5.662   3.766
 6757TIP3    H120212   7.271   5.589   3.754
 6757TIP3    H220213   7.367   5.649   3.854
 6758TIP3   OH220214   4.125   7.758   2.792
 6758TIP3    H120215   4.216   7.729   2.786
 6758TIP3    H220216   4.076   7.687   2.751
 6759TIP3   OH220217   1.034   0.247   5.098
 6759TIP3    H120218   1.053   0.307   5.171
 6759TIP3    H220219   1.014   0.164   5.140
 6760TIP3   OH220220   0.977   0.255   1.270
 6760TIP3    H120221   0.974   0.167   1.307
 6760TIP3    H220222   1.030   0.305   1.332
 6761TIP3   OH220223   3.522   6.318   0.097
 6761TIP3    H120224   3.444   6.313   0.042
 6761TIP3    H220225   3.510   6.249   0.163
 6762TIP3   OH220226   6.488   4.655   3.428
 6762TIP3    H120227   6.516   4.719   3.494
 6762TIP3    H220228   6.417   4.700   3.381
 6763TIP3   OH220229   8.032   6.869   4.257
 6763TIP3    H120230   8.083   6.885   4.337
 6763TIP3    H220231   7.944   6.897   4.279
 6764TIP3   OH220232   4.186   5.084   4.547
 6764TIP3    H120233   4.101   5.044   4.526
 6764TIP3    H220234   4.202   5.059   4.638
 6765TIP3   OH220235   6.421   3.789   1.167
 6765TIP3    H120236   6.358   3.790   1.095
 6765TIP3    H220237   6.429   3.881   1.193
 6766TIP3   OH220238   0.431   4.379   3.046
 6766TIP3    H120239   0.456   4.426   2.966
 6766TIP3    H220240   0.515   4.354   3.086
 6767TIP3   OH220241   7.518   2.534   4.013
 6767TIP3    H120242   7.478   2.471   3.952
 6767TIP3    H220243   7.445   2.570   4.063
 6768TIP3   OH220244   5.470   3.085   3.118
 6768TIP3    H120245   5.483   3.065   3.025
 6768TIP3    H220246   5.558   3.101   3.152
 6769TIP3   OH220247   4.835   7.674  -0.024
 6769TIP3    H120248   4.836   7.579  -0.011
 6769TIP3    H220249   4.902   7.707   0.036
 6770TIP3   OH220250   2.722   5.731   5.617
 6770TIP3    H120251   2.691   5.776   5.696
 6770TIP3    H220252   2.705   5.638   5.634
 6771TIP3   OH220253   2.504   6.008   1.169
 6771TIP3    H120254   2.565   6.079   1.187
 6771TIP3    H220255   2.555   5.928   1.182
 6772TIP3   OH220256   2.199   1.326   3.531
 6772TIP3    H120257   2.203   1.379   3.611
 6772TIP3    H220258   2.160   1.383   3.466
 6773TIP3   OH220259   0.315   5.326   2.825
 6773TIP3    H120260   0.318   5.245   2.877
 6773TIP3    H220261   0.297   5.395   2.889
 6774TIP3   OH220262   6.547   7.509   5.886
 6774TIP3    H120263   6.578   7.465   5.966
 6774TIP3    H220264   6.564   7.602   5.902
 6775TIP3   OH220265   1.549   7.269   2.540
 6775TIP3    H120266   1.591   7.268   2.626
 6775TIP3    H220267   1.464   7.311   2.555
 6776TIP3   OH220268   6.561   7.297   4.146
 6776TIP3    H120269   6.525   7.370   4.197
 6776TIP3    H220270   6.539   7.219   4.197
 6777TIP3   OH220271   7.992   7.689   4.854
 6777TIP3    H120272   7.977   7.761   4.792
 6777TIP3    H220273   7.910   7.639   4.852
 6778TIP3   OH220274   1.442   5.038   4.218
 6778TIP3    H120275   1.485   5.060   4.136
 6778TIP3    H220276   1.416   4.946   4.207
 6779TIP3   OH220277   6.825   0.428   0.519
 6779TIP3    H120278   6.895   0.459   0.461
 6779TIP3    H220279   6.773   0.369   0.463
 6780TIP3   OH220280   0.998   6.027   6.435
 6780TIP3    H120281   0.908   6.042   6.464
 6780TIP3    H220282   1.021   5.941   6.471
 6781TIP3   OH220283   6.100   5.585   5.979
 6781TIP3    H120284   6.146   5.595   6.062
 6781TIP3    H220285   6.101   5.491   5.961
 6782TIP3   OH220286   1.412   0.250   0.188
 6782TIP3    H120287   1.500   0.214   0.174
 6782TIP3    H220288   1.423   0.309   0.263
 6783TIP3   OH220289   2.629   1.318   0.686
 6783TIP3    H120290   2.634   1.352   0.775
 6783TIP3    H220291   2.608   1.394   0.632
 6784TIP3   OH220292   4.255   2.579   3.871
 6784TIP3    H120293   4.185   2.597   3.808
 6784TIP3    H220294   4.277   2.487   3.855
 6785TIP3   OH220295   1.969   3.179   0.242
 6785TIP3    H120296   2.006   3.196   0.156
 6785TIP3    H220297   1.992   3.088   0.260
 6786TIP3   OH220298   7.720   2.853   4.683
 6786TIP3    H120299   7.809   2.818   4.689
 6786TIP3    H220300   7.724   2.938   4.726
 6787TIP3   OH220301   1.712   4.124   6.806
 6787TIP3    H120302   1.663   4.048   6.838
 6787TIP3    H220303   1.771   4.089   6.740
 6788TIP3   OH220304   4.236   5.596   6.403
 6788TIP3    H120305   4.202   5.524   6.351
 6788TIP3    H220306   4.234   5.671   6.344
 6789TIP3   OH220307   5.642   3.921   6.393
 6789TIP3    H120308   5.548   3.901   6.388
 6789TIP3    H220309   5.647   4.015   6.374
 6790TIP3   OH220310   1.920   1.549   4.788
 6790TIP3    H120311   1.899   1.588   4.704
 6790TIP3    H220312   1.943   1.624   4.844
 6791TIP3   OH220313   7.505   7.115   4.727
 6791TIP3    H120314   7.556   7.044   4.687
 6791TIP3    H220315   7.424   7.073   4.756
 6792TIP3   OH220316   2.783   0.780   4.122
 6792TIP3    H120317   2.805   0.790   4.215
 6792TIP3    H220318   2.790   0.869   4.086
 6793TIP3   OH220319   4.651   6.439   6.789
 6793TIP3    H120320   4.628   6.495   6.863
 6793TIP3    H220321   4.571   6.391   6.769
 6794TIP3   OH220322   1.185   3.452   1.210
 6794TIP3    H120323   1.240   3.529   1.220
 6794TIP3    H220324   1.120   3.477   1.144
 6795TIP3   OH220325   7.658   2.370   5.710
 6795TIP3    H120326   7.566   2.393   5.723
 6795TIP3    H220327   7.655   2.298   5.646
 6796TIP3   OH220328   6.917   2.083   6.348
 6796TIP3    H120329   6.950   2.023   6.281
 6796TIP3    H220330   6.831   2.111   6.315
 6797TIP3   OH220331   5.415   3.575   5.037
 6797TIP3    H120332   5.414   3.543   5.128
 6797TIP3    H220333   5.461   3.507   4.988
 6798TIP3   OH220334   4.608   7.231   3.177
 6798TIP3    H120335   4.619   7.314   3.223
 6798TIP3    H220336   4.696   7.194   3.172
 6799TIP3   OH220337   0.186   0.668   3.139
 6799TIP3    H120338   0.203   0.720   3.217
 6799TIP3    H220339   0.272   0.630   3.117
 6800TIP3   OH220340   3.007   1.932   2.976
 6800TIP3    H120341   2.972   1.843   2.975
 6800TIP3    H220342   3.102   1.920   2.969
 6801TIP3   OH220343   7.682   2.752   3.039
 6801TIP3    H120344   7.767   2.797   3.046
 6801TIP3    H220345   7.679   2.696   3.117
 6802TIP3   OH220346   1.045   6.799   4.457
 6802TIP3    H120347   0.955   6.787   4.488
 6802TIP3    H220348   1.096   6.736   4.508
 6803TIP3   OH220349   0.509   1.942   0.484
 6803TIP3    H120350   0.512   2.029   0.445
 6803TIP3    H220351   0.601   1.913   0.483
 6804TIP3   OH220352   3.430   2.956   0.668
 6804TIP3    H120353   3.344   2.918   0.653
 6804TIP3    H220354   3.478   2.941   0.587
 6805TIP3   OH220355   5.608   4.746   0.127
 6805TIP3    H120356   5.623   4.785   0.041
 6805TIP3    H220357   5.654   4.662   0.124
 6806TIP3   OH220358   7.728   3.216   5.504
 6806TIP3    H120359   7.677   3.143   5.539
 6806TIP3    H220360   7.808   3.176   5.471
 6807TIP3   OH220361   5.532   0.364   5.918
 6807TIP3    H120362   5.608   0.313   5.945
 6807TIP3    H220363   5.486   0.307   5.856
 6808TIP3   OH220364   1.585   4.155   6.510
 6808TIP3    H120365   1.546   4.155   6.423
 6808TIP3    H220366   1.666   4.205   6.501
 6809TIP3   OH220367   3.665   1.128   6.078
 6809TIP3    H120368   3.617   1.189   6.134
 6809TIP3    H220369   3.614   1.126   5.996
 6810TIP3   OH220370   1.442   2.053   3.279
 6810TIP3    H120371   1.452   2.078   3.371
 6810TIP3    H220372   1.368   2.106   3.248
 6811TIP3   OH220373   3.371   5.263   4.711
 6811TIP3    H120374   3.306   5.241   4.777
 6811TIP3    H220375   3.325   5.252   4.627
 6812TIP3   OH220376   0.829   1.017   4.747
 6812TIP3    H120377   0.774   0.971   4.683
 6812TIP3    H220378   0.807   0.977   4.831
 6813TIP3   OH220379   1.608   5.551   3.928
 6813TIP3    H120380   1.647   5.624   3.975
 6813TIP3    H220381   1.631   5.473   3.979
 6814TIP3   OH220382   6.511   2.730   0.932
 6814TIP3    H120383   6.449   2.679   0.880
 6814TIP3    H220384   6.478   2.820   0.928
 6815TIP3   OH220385   5.748   6.068   2.245
 6815TIP3    H120386   5.773   6.096   2.333
 6815TIP3    H220387   5.769   6.143   2.189
 6816TIP3   OH220388   0.111   5.377   3.138
 6816TIP3    H120389   0.133   5.285   3.120
 6816TIP3    H220390   0.104   5.417   3.051
 6817TIP3   OH220391   7.533   2.771   2.089
 6817TIP3    H120392   7.562   2.765   1.998
 6817TIP3    H220393   7.442   2.741   2.086
 6818TIP3   OH220394   3.023   2.996   5.096
 6818TIP3    H120395   3.078   2.959   5.164
 6818TIP3    H220396   2.992   2.921   5.045
 6819TIP3   OH220397   4.213   0.866   4.292
 6819TIP3    H120398   4.150   0.827   4.352
 6819TIP3    H220399   4.160   0.903   4.222
 6820TIP3   OH220400   4.332   3.367   2.800
 6820TIP3    H120401   4.262   3.421   2.836
 6820TIP3    H220402   4.386   3.427   2.749
 6821TIP3   OH220403   2.669   1.219   4.959
 6821TIP3    H120404   2.712   1.146   4.914
 6821TIP3    H220405   2.639   1.181   5.042
 6822TIP3   OH220406   4.380   4.502   5.182
 6822TIP3    H120407   4.443   4.497   5.254
 6822TIP3    H220408   4.295   4.482   5.222
 6823TIP3   OH220409   8.211   6.112   0.608
 6823TIP3    H120410   8.129   6.161   0.618
 6823TIP3    H220411   8.276   6.178   0.586
 6824TIP3   OH220412   8.319   5.095   3.758
 6824TIP3    H120413   8.329   5.015   3.706
 6824TIP3    H220414   8.230   5.091   3.792
 6825TIP3   OH220415   2.272   7.232   2.840
 6825TIP3    H120416   2.223   7.150   2.829
 6825TIP3    H220417   2.205   7.299   2.848
 6826TIP3   OH220418   1.309   5.757   2.394
 6826TIP3    H120419   1.327   5.741   2.302
 6826TIP3    H220420   1.329   5.850   2.407
 6827TIP3   OH220421   4.461   2.880   4.284
 6827TIP3    H120422   4.551   2.853   4.269
 6827TIP3    H220423   4.465   2.933   4.364
 6828TIP3   OH220424   0.890   4.671   5.194
 6828TIP3    H120425   0.847   4.586   5.181
 6828TIP3    H220426   0.819   4.730   5.221
 6829TIP3   OH220427   1.219   5.398   2.389
 6829TIP3    H120428   1.148   5.418   2.450
 6829TIP3    H220429   1.250   5.311   2.415
 6830TIP3   OH220430   4.382   3.111   0.689
 6830TIP3    H120431   4.321   3.179   0.660
 6830TIP3    H220432   4.415   3.072   0.608
 6831TIP3   OH220433   3.989   3.214   4.077
 6831TIP3    H120434   3.895   3.196   4.075
 6831TIP3    H220435   4.025   3.163   4.005
 6832TIP3   OH220436   0.951   1.579   2.265
 6832TIP3    H120437   0.916   1.492   2.245
 6832TIP3    H220438   0.951   1.584   2.361
 6833TIP3   OH220439   4.673   1.351   1.232
 6833TIP3    H120440   4.671   1.310   1.319
 6833TIP3    H220441   4.753   1.318   1.192
 6834TIP3   OH220442   3.645   7.823   5.105
 6834TIP3    H120443   3.733   7.853   5.127
 6834TIP3    H220444   3.587   7.877   5.158
 6835TIP3   OH220445   3.185   7.293   0.934
 6835TIP3    H120446   3.103   7.272   0.978
 6835TIP3    H220447   3.237   7.338   1.001
 6836TIP3   OH220448   7.387   3.175   5.375
 6836TIP3    H120449   7.395   3.138   5.287
 6836TIP3    H220450   7.407   3.268   5.364
 6837TIP3   OH220451   6.761   6.704   3.031
 6837TIP3    H120452   6.832   6.757   3.066
 6837TIP3    H220453   6.727   6.755   2.957
 6838TIP3   OH220454   3.865   2.926   1.197
 6838TIP3    H120455   3.917   2.996   1.157
 6838TIP3    H220456   3.830   2.965   1.277
 6839TIP3   OH220457   1.353   5.378   3.504
 6839TIP3    H120458   1.335   5.395   3.596
 6839TIP3    H220459   1.449   5.379   3.497
 6840TIP3   OH220460   0.135   6.847   1.854
 6840TIP3    H120461   0.201   6.781   1.833
 6840TIP3    H220462   0.065   6.833   1.789
 6841TIP3   OH220463   2.296   5.681   2.273
 6841TIP3    H120464   2.349   5.667   2.351
 6841TIP3    H220465   2.356   5.663   2.200
 6842TIP3   OH220466   0.281   5.881   4.402
 6842TIP3    H120467   0.293   5.976   4.415
 6842TIP3    H220468   0.358   5.842   4.443
 6843TIP3   OH220469   3.751   0.555   6.683
 6843TIP3    H120470   3.701   0.630   6.650
 6843TIP3    H220471   3.685   0.493   6.713
 6844TIP3   OH220472   0.516   6.866   0.095
 6844TIP3    H120473   0.479   6.919   0.024
 6844TIP3    H220474   0.472   6.782   0.086
 6845TIP3   OH220475   1.623   3.609   3.919
 6845TIP3    H120476   1.659   3.673   3.980
 6845TIP3    H220477   1.528   3.613   3.932
 6846TIP3   OH220478   6.860   7.185   6.219
 6846TIP3    H120479   6.907   7.181   6.136
 6846TIP3    H220480   6.859   7.095   6.251
 6847TIP3   OH220481   4.179   0.031   3.258
 6847TIP3    H120482   4.096   0.028   3.210
 6847TIP3    H220483   4.202   0.124   3.259
 6848TIP3   OH220484   7.873   4.758   3.093
 6848TIP3    H120485   7.931   4.830   3.122
 6848TIP3    H220486   7.795   4.768   3.147
 6849TIP3   OH220487   3.465   6.687   3.220
 6849TIP3    H120488   3.486   6.701   3.128
 6849TIP3    H220489   3.425   6.769   3.249
 6850TIP3   OH220490   5.224   4.956   6.760
 6850TIP3    H120491   5.312   4.927   6.734
 6850TIP3    H220492   5.166   4.915   6.696
 6851TIP3   OH220493   8.249   3.228   4.164
 6851TIP3    H120494   8.226   3.143   4.201
 6851TIP3    H220495   8.275   3.209   4.074
 6852TIP3   OH220496   4.643   5.194   6.783
 6852TIP3    H120497   4.659   5.118   6.727
 6852TIP3    H220498   4.649   5.269   6.724
 6853TIP3   OH220499   5.742   7.017   2.390
 6853TIP3    H120500   5.712   6.984   2.306
 6853TIP3    H220501   5.684   7.090   2.410
 6854TIP3   OH220502   7.589   3.565   4.646
 6854TIP3    H120503   7.625   3.638   4.696
 6854TIP3    H220504   7.577   3.599   4.558
 6855TIP3   OH220505   0.515   4.464   2.740
 6855TIP3    H120506   0.456   4.538   2.724
 6855TIP3    H220507   0.551   4.443   2.654
 6856TIP3   OH220508   2.789   2.338   3.676
 6856TIP3    H120509   2.801   2.425   3.715
 6856TIP3    H220510   2.697   2.316   3.694
 6857TIP3   OH220511   4.920   4.969   2.875
 6857TIP3    H120512   4.837   4.933   2.905
 6857TIP3    H220513   4.898   5.017   2.795
 6858TIP3   OH220514   3.353   2.872   5.524
 6858TIP3    H120515   3.353   2.854   5.618
 6858TIP3    H220516   3.446   2.875   5.500
 6859TIP3   OH220517   3.845   6.134   2.388
 6859TIP3    H120518   3.864   6.107   2.298
 6859TIP3    H220519   3.888   6.218   2.398
 6860TIP3   OH220520   6.535   1.252   1.692
 6860TIP3    H120521   6.449   1.283   1.720
 6860TIP3    H220522   6.584   1.333   1.675
 6861TIP3   OH220523   8.413   0.542   2.482
 6861TIP3    H120524   8.426   0.469   2.543
 6861TIP3    H220525   8.329   0.523   2.440
 6862TIP3   OH220526   4.921   6.673   6.314
 6862TIP3    H120527   4.860   6.599   6.313
 6862TIP3    H220528   4.997   6.640   6.363
 6863TIP3   OH220529   0.206   4.946   2.599
 6863TIP3    H120530   0.259   4.944   2.678
 6863TIP3    H220531   0.149   4.869   2.606
 6864TIP3   OH220532   2.225   4.373   4.692
 6864TIP3    H120533   2.270   4.394   4.610
 6864TIP3    H220534   2.282   4.409   4.760
 6865TIP3   OH220535   1.021   2.841   4.919
 6865TIP3    H120536   1.027   2.780   4.845
 6865TIP3    H220537   0.960   2.909   4.888
 6866TIP3   OH220538   6.468   4.667   2.374
 6866TIP3    H120539   6.474   4.574   2.396
 6866TIP3    H220540   6.507   4.672   2.286
 6867TIP3   OH220541   4.776   7.231   4.523
 6867TIP3    H120542   4.766   7.299   4.456
 6867TIP3    H220543   4.728   7.265   4.599
 6868TIP3   OH220544   2.120   5.631   5.899
 6868TIP3    H120545   2.105   5.577   5.821
 6868TIP3    H220546   2.189   5.585   5.947
 6869TIP3   OH220547   2.832   0.970   2.863
 6869TIP3    H120548   2.912   0.981   2.811
 6869TIP3    H220549   2.806   0.879   2.847
 6870TIP3   OH220550   0.996   1.889   0.369
 6870TIP3    H120551   1.084   1.870   0.336
 6870TIP3    H220552   1.008   1.904   0.462
 6871TIP3   OH220553   1.640   0.041   5.237
 6871TIP3    H120554   1.621  -0.019   5.164
 6871TIP3    H220555   1.666   0.123   5.195
 6872TIP3   OH220556   6.104   2.558   6.051
 6872TIP3    H120557   6.114   2.495   5.980
 6872TIP3    H220558   6.188   2.603   6.056
 6873TIP3   OH220559   0.527   3.007   4.188
 6873TIP3    H120560   0.445   2.968   4.220
 6873TIP3    H220561   0.557   2.948   4.119
 6874TIP3   OH220562   7.978   2.792   0.959
 6874TIP3    H120563   7.984   2.707   1.003
 6874TIP3    H220564   7.885   2.801   0.937
 6875TIP3   OH220565   4.194   4.496   3.915
 6875TIP3    H120566   4.276   4.506   3.962
 6875TIP3    H220567   4.220   4.479   3.824
 6876TIP3   OH220568   1.396   1.144   1.091
 6876TIP3    H120569   1.444   1.211   1.140
 6876TIP3    H220570   1.342   1.194   1.029
 6877TIP3   OH220571   2.998   2.234   4.351
 6877TIP3    H120572   2.973   2.151   4.309
 6877TIP3    H220573   3.006   2.295   4.278
 6878TIP3   OH220574   8.243   7.640   0.251
 6878TIP3    H120575   8.328   7.641   0.208
 6878TIP3    H220576   8.190   7.579   0.200
 6879TIP3   OH220577   1.836   1.000   1.760
 6879TIP3    H120578   1.828   0.979   1.853
 6879TIP3    H220579   1.848   0.915   1.717
 6880TIP3   OH220580   7.906   1.190   3.898
 6880TIP3    H120581   7.826   1.158   3.856
 6880TIP3    H220582   7.976   1.137   3.860
 6881TIP3   OH220583   4.090   5.432   1.246
 6881TIP3    H120584   4.022   5.364   1.242
 6881TIP3    H220585   4.041   5.514   1.242
 6882TIP3   OH220586   7.432   3.401   4.382
 6882TIP3    H120587   7.396   3.323   4.340
 6882TIP3    H220588   7.389   3.474   4.337
 6883TIP3   OH220589   0.391   0.372   3.098
 6883TIP3    H120590   0.438   0.289   3.088
 6883TIP3    H220591   0.414   0.422   3.019
 6884TIP3   OH220592   2.722   6.576   6.474
 6884TIP3    H120593   2.626   6.577   6.477
 6884TIP3    H220594   2.747   6.515   6.543
 6885TIP3   OH220595   5.566   6.159   4.342
 6885TIP3    H120596   5.624   6.137   4.269
 6885TIP3    H220597   5.606   6.235   4.383
 6886TIP3   OH220598   2.381   2.142   0.084
 6886TIP3    H120599   2.411   2.229   0.110
 6886TIP3    H220600   2.287   2.141   0.105
 6887TIP3   OH220601   7.080   7.199   4.023
 6887TIP3    H120602   7.161   7.217   3.977
 6887TIP3    H220603   7.099   7.219   4.115
 6888TIP3   OH220604   6.546   5.116   3.731
 6888TIP3    H120605   6.619   5.174   3.753
 6888TIP3    H220606   6.468   5.172   3.735
 6889TIP3   OH220607   0.796   5.675   6.238
 6889TIP3    H120608   0.705   5.650   6.220
 6889TIP3    H220609   0.810   5.648   6.328
 6890TIP3   OH220610   8.339   5.861   2.614
 6890TIP3    H120611   8.348   5.780   2.665
 6890TIP3    H220612   8.269   5.842   2.551
 6891TIP3   OH220613   5.145   7.803   3.748
 6891TIP3    H120614   5.070   7.745   3.761
 6891TIP3    H220615   5.108   7.891   3.753
 6892TIP3   OH220616   7.143   0.976   4.673
 6892TIP3    H120617   7.223   1.000   4.627
 6892TIP3    H220618   7.073   1.022   4.627
 6893TIP3   OH220619   7.756   1.150   3.045
 6893TIP3    H120620   7.819   1.092   3.002
 6893TIP3    H220621   7.800   1.176   3.126
 6894TIP3   OH220622   0.794   5.338   4.516
 6894TIP3    H120623   0.753   5.299   4.439
 6894TIP3    H220624   0.761   5.428   4.518
 6895TIP3   OH220625   7.457   1.837   5.043
 6895TIP3    H120626   7.403   1.786   4.982
 6895TIP3    H220627   7.415   1.923   5.047
 6896TIP3   OH220628   6.417   3.443   2.407
 6896TIP3    H120629   6.505   3.429   2.370
 6896TIP3    H220630   6.358   3.401   2.343
 6897TIP3   OH220631   3.149   6.981   4.799
 6897TIP3    H120632   3.094   6.970   4.876
 6897TIP3    H220633   3.165   6.891   4.768
 6898TIP3   OH220634   2.002   6.878   5.741
 6898TIP3    H120635   1.995   6.823   5.663
 6898TIP3    H220636   2.096   6.896   5.748
 6899TIP3   OH220637   6.133   2.731   3.132
 6899TIP3    H120638   6.138   2.641   3.164
 6899TIP3    H220639   6.150   2.724   3.038
 6900TIP3   OH220640   6.994   7.081   3.781
 6900TIP3    H120641   7.009   7.091   3.875
 6900TIP3    H220642   6.910   7.036   3.775
 6901TIP3   OH220643   6.122   4.156   4.126
 6901TIP3    H120644   6.066   4.203   4.189
 6901TIP3    H220645   6.099   4.064   4.139
 6902TIP3   OH220646   6.166   3.716   1.821
 6902TIP3    H120647   6.259   3.715   1.846
 6902TIP3    H220648   6.120   3.719   1.905
 6903TIP3   OH220649   5.859   7.619   2.650
 6903TIP3    H120650   5.943   7.655   2.678
 6903TIP3    H220651   5.874   7.525   2.643
 6904TIP3   OH220652   5.429   2.017   2.384
 6904TIP3    H120653   5.337   2.025   2.406
 6904TIP3    H220654   5.460   1.944   2.438
 6905TIP3   OH220655   1.630   4.071   0.863
 6905TIP3    H120656   1.715   4.036   0.889
 6905TIP3    H220657   1.570   4.043   0.933
 6906TIP3   OH220658   5.472   1.050   2.225
 6906TIP3    H120659   5.517   1.127   2.190
 6906TIP3    H220660   5.410   1.087   2.289
 6907TIP3   OH220661   6.913   4.643   6.019
 6907TIP3    H120662   6.949   4.709   6.079
 6907TIP3    H220663   6.867   4.582   6.076
 6908TIP3   OH220664   0.014   7.322   2.563
 6908TIP3    H120665   0.025   7.255   2.494
 6908TIP3    H220666   0.101   7.329   2.603
 6909TIP3   OH220667   2.324   5.223   3.100
 6909TIP3    H120668   2.262   5.272   3.153
 6909TIP3    H220669   2.304   5.131   3.119
 6910TIP3   OH220670   8.016   3.704   0.827
 6910TIP3    H120671   7.961   3.631   0.796
 6910TIP3    H220672   7.994   3.777   0.769
 6911TIP3   OH220673   2.856   4.731   1.559
 6911TIP3    H120674   2.812   4.659   1.514
 6911TIP3    H220675   2.945   4.698   1.574
 6912TIP3   OH220676   7.524   5.612   1.119
 6912TIP3    H120677   7.588   5.545   1.144
 6912TIP3    H220678   7.575   5.693   1.114
 6913TIP3   OH220679   5.537   0.664   4.496
 6913TIP3    H120680   5.589   0.592   4.461
 6913TIP3    H220681   5.448   0.648   4.465
 6914TIP3   OH220682   4.170   2.714   0.786
 6914TIP3    H120683   4.143   2.692   0.875
 6914TIP3    H220684   4.144   2.806   0.774
 6915TIP3   OH220685   7.706   4.479   4.266
 6915TIP3    H120686   7.667   4.558   4.305
 6915TIP3    H220687   7.645   4.409   4.290
 6916TIP3   OH220688   0.127   5.830   5.454
 6916TIP3    H120689   0.130   5.815   5.360
 6916TIP3    H220690   0.037   5.860   5.470
 6917TIP3   OH220691   0.208   6.106   6.000
 6917TIP3    H120692   0.197   6.047   6.074
 6917TIP3    H220693   0.233   6.190   6.038
 6918TIP3   OH220694   5.385   5.325   5.296
 6918TIP3    H120695   5.474   5.343   5.265
 6918TIP3    H220696   5.395   5.308   5.389
 6919TIP3   OH220697   3.028   0.161   5.982
 6919TIP3    H120698   3.012   0.113   5.901
 6919TIP3    H220699   2.944   0.159   6.028
 6920TIP3   OH220700   6.065   0.780   6.194
 6920TIP3    H120701   6.031   0.796   6.282
 6920TIP3    H220702   6.157   0.804   6.199
 6921TIP3   OH220703   0.750   4.966   5.998
 6921TIP3    H120704   0.666   4.944   5.958
 6921TIP3    H220705   0.728   4.996   6.086
 6922TIP3   OH220706   7.055   5.023   5.829
 6922TIP3    H120707   7.076   4.931   5.842
 6922TIP3    H220708   6.962   5.024   5.806
 6923TIP3   OH220709   2.674   5.194   5.045
 6923TIP3    H120710   2.717   5.215   5.128
 6923TIP3    H220711   2.631   5.275   5.019
 6924TIP3   OH220712   7.803   2.685   5.963
 6924TIP3    H120713   7.888   2.729   5.968
 6924TIP3    H220714   7.748   2.733   6.025
 6925TIP3   OH220715   2.474   0.799   1.510
 6925TIP3    H120716   2.420   0.818   1.587
 6925TIP3    H220717   2.497   0.885   1.475
 6926TIP3   OH220718   7.557   7.181   5.915
 6926TIP3    H120719   7.591   7.102   5.873
 6926TIP3    H220720   7.463   7.180   5.895
 6927TIP3   OH220721   7.849   4.835   6.326
 6927TIP3    H120722   7.761   4.871   6.339
 6927TIP3    H220723   7.907   4.901   6.364
 6928TIP3   OH220724   4.029   5.431   4.250
 6928TIP3    H120725   4.093   5.377   4.297
 6928TIP3    H220726   3.995   5.491   4.316
 6929TIP3   OH220727   6.097   4.209   3.872
 6929TIP3    H120728   6.010   4.170   3.879
 6929TIP3    H220729   6.131   4.208   3.962
 6930TIP3   OH220730   1.877   5.242   1.154
 6930TIP3    H120731   1.835   5.326   1.133
 6930TIP3    H220732   1.837   5.215   1.236
 6931TIP3   OH220733   5.533   7.511   4.555
 6931TIP3    H120734   5.592   7.461   4.498
 6931TIP3    H220735   5.591   7.564   4.610
 6932TIP3   OH220736   6.318   4.974   1.710
 6932TIP3    H120737   6.223   4.976   1.699
 6932TIP3    H220738   6.346   4.894   1.666
 6933TIP3   OH220739   6.110   6.305   0.372
 6933TIP3    H120740   6.178   6.360   0.334
 6933TIP3    H220741   6.049   6.367   0.412
 6934TIP3   OH220742   7.458   4.923   3.912
 6934TIP3    H120743   7.493   5.000   3.867
 6934TIP3    H220744   7.473   4.940   4.005
 6935TIP3   OH220745   6.672   7.515   3.413
 6935TIP3    H120746   6.718   7.455   3.356
 6935TIP3    H220747   6.580   7.493   3.402
 6936TIP3   OH220748   5.381   4.060   6.375
 6936TIP3    H120749   5.358   4.137   6.427
 6936TIP3    H220750   5.318   3.994   6.402
 6937TIP3   OH220751   1.684   2.816   3.445
 6937TIP3    H120752   1.596   2.850   3.465
 6937TIP3    H220753   1.674   2.776   3.359
 6938TIP3   OH220754   5.894   2.809   2.815
 6938TIP3    H120755   5.920   2.720   2.838
 6938TIP3    H220756   5.799   2.809   2.826
 6939TIP3   OH220757   6.970   3.825   4.176
 6939TIP3    H120758   6.976   3.772   4.255
 6939TIP3    H220759   6.896   3.787   4.127
 6940TIP3   OH220760   1.951   5.369   0.548
 6940TIP3    H120761   1.944   5.365   0.452
 6940TIP3    H220762   1.882   5.431   0.573
 6941TIP3   OH220763   5.019   1.909   6.308
 6941TIP3    H120764   4.973   1.990   6.329
 6941TIP3    H220765   5.112   1.932   6.313
 6942TIP3   OH220766   6.548   2.189   6.534
 6942TIP3    H120767   6.621   2.206   6.474
 6942TIP3    H220768   6.500   2.118   6.493
 6943TIP3   OH220769   7.736   3.901   1.317
 6943TIP3    H120770   7.650   3.926   1.285
 6943TIP3    H220771   7.732   3.805   1.325
 6944TIP3   OH220772   5.077   6.949   2.473
 6944TIP3    H120773   5.088   6.887   2.546
 6944TIP3    H220774   5.164   6.988   2.462
 6945TIP3   OH220775   5.018   5.867   3.543
 6945TIP3    H120776   5.077   5.914   3.485
 6945TIP3    H220777   5.075   5.810   3.594
 6946TIP3   OH220778   4.349   4.338   1.311
 6946TIP3    H120779   4.318   4.248   1.322
 6946TIP3    H220780   4.438   4.337   1.347
 6947TIP3   OH220781   7.358   3.851   1.173
 6947TIP3    H120782   7.275   3.876   1.135
 6947TIP3    H220783   7.408   3.813   1.100
 6948TIP3   OH220784   7.538   3.298   2.443
 6948TIP3    H120785   7.510   3.239   2.373
 6948TIP3    H220786   7.633   3.301   2.435
 6949TIP3   OH220787   3.722   7.026   5.406
 6949TIP3    H120788   3.770   6.968   5.466
 6949TIP3    H220789   3.631   6.994   5.412
 6950TIP3   OH220790   5.472   5.510   2.109
 6950TIP3    H120791   5.487   5.446   2.039
 6950TIP3    H220792   5.438   5.587   2.064
 6951TIP3   OH220793   0.122   1.266   4.007
 6951TIP3    H120794   0.096   1.219   3.927
 6951TIP3    H220795   0.042   1.269   4.059
 6952TIP3   OH220796   6.313   1.629   0.780
 6952TIP3    H120797   6.329   1.568   0.851
 6952TIP3    H220798   6.220   1.653   0.788
 6953TIP3   OH220799   3.118   1.797   6.261
 6953TIP3    H120800   3.121   1.807   6.356
 6953TIP3    H220801   3.046   1.736   6.246
 6954TIP3   OH220802   7.926   1.299   1.202
 6954TIP3    H120803   8.007   1.257   1.173
 6954TIP3    H220804   7.915   1.374   1.143
 6955TIP3   OH220805   3.387   0.071   2.792
 6955TIP3    H120806   3.374   0.053   2.885
 6955TIP3    H220807   3.319   0.135   2.771
 6956TIP3   OH220808   0.699   2.566   6.146
 6956TIP3    H120809   0.751   2.519   6.211
 6956TIP3    H220810   0.759   2.581   6.073
 6957TIP3   OH220811   1.051   5.791   6.562
 6957TIP3    H120812   1.117   5.722   6.551
 6957TIP3    H220813   1.016   5.777   6.650
 6958TIP3   OH220814   0.343   2.106   2.944
 6958TIP3    H120815   0.270   2.044   2.940
 6958TIP3    H220816   0.315   2.180   2.890
 6959TIP3   OH220817   4.012   2.122   1.535
 6959TIP3    H120818   3.951   2.139   1.463
 6959TIP3    H220819   3.974   2.048   1.582
 6960TIP3   OH220820   2.419   2.621   3.708
 6960TIP3    H120821   2.472   2.590   3.635
 6960TIP3    H220822   2.331   2.590   3.689
 6961TIP3   OH220823   7.017   5.291   6.846
 6961TIP3    H120824   7.026   5.367   6.789
 6961TIP3    H220825   7.044   5.216   6.792
 6962TIP3   OH220826   4.974   7.326   6.266
 6962TIP3    H120827   4.990   7.257   6.331
 6962TIP3    H220828   4.879   7.328   6.257
 6963TIP3   OH220829   4.775   7.805   3.578
 6963TIP3    H120830   4.833   7.804   3.502
 6963TIP3    H220831   4.814   7.870   3.637
 6964TIP3   OH220832   7.576   6.739   5.157
 6964TIP3    H120833   7.587   6.682   5.233
 6964TIP3    H220834   7.558   6.679   5.084
 6965TIP3   OH220835   6.449   4.385   0.960
 6965TIP3    H120836   6.416   4.473   0.942
 6965TIP3    H220837   6.542   4.390   0.939
 6966TIP3   OH220838   5.105   7.052   3.314
 6966TIP3    H120839   5.153   6.982   3.270
 6966TIP3    H220840   5.157   7.131   3.296
 6967TIP3   OH220841   2.046   7.321   0.528
 6967TIP3    H120842   2.031   7.353   0.439
 6967TIP3    H220843   1.964   7.280   0.553
 6968TIP3   OH220844   6.048   6.323   1.479
 6968TIP3    H120845   6.124   6.372   1.449
 6968TIP3    H220846   6.066   6.307   1.572
 6969TIP3   OH220847   1.754   1.109   4.281
 6969TIP3    H120848   1.771   1.104   4.187
 6969TIP3    H220849   1.664   1.078   4.291
 6970TIP3   OH220850   5.973   2.846   6.480
 6970TIP3    H120851   6.017   2.864   6.397
 6970TIP3    H220852   5.985   2.753   6.494
 6971TIP3   OH220853   6.513   5.453   3.480
 6971TIP3    H120854   6.587   5.460   3.541
 6971TIP3    H220855   6.528   5.523   3.417
 6972TIP3   OH220856   2.303   0.738   0.378
 6972TIP3    H120857   2.266   0.769   0.296
 6972TIP3    H220858   2.391   0.707   0.355
 6973TIP3   OH220859   3.285   6.247   0.314
 6973TIP3    H120860   3.237   6.164   0.309
 6973TIP3    H220861   3.355   6.230   0.378
 6974TIP3   OH220862   1.769   1.328   4.497
 6974TIP3    H120863   1.760   1.239   4.462
 6974TIP3    H220864   1.855   1.357   4.467
 6975TIP3   OH220865   1.970   3.513   2.189
 6975TIP3    H120866   1.933   3.426   2.172
 6975TIP3    H220867   1.903   3.574   2.158
 6976TIP3   OH220868   5.296   0.706   0.670
 6976TIP3    H120869   5.371   0.653   0.696
 6976TIP3    H220870   5.329   0.796   0.669
 6977TIP3   OH220871   4.321   5.616   5.573
 6977TIP3    H120872   4.242   5.567   5.596
 6977TIP3    H220873   4.391   5.571   5.619
 6978TIP3   OH220874   6.935   5.357   4.056
 6978TIP3    H120875   6.998   5.386   4.122
 6978TIP3    H220876   6.857   5.333   4.106
 6979TIP3   OH220877   1.843   3.428   0.137
 6979TIP3    H120878   1.802   3.471   0.211
 6979TIP3    H220879   1.854   3.337   0.164
 6980TIP3   OH220880   7.230   7.009   4.784
 6980TIP3    H120881   7.231   7.001   4.689
 6980TIP3    H220882   7.156   7.068   4.802
 6981TIP3   OH220883   1.310   3.727   3.108
 6981TIP3    H120884   1.235   3.786   3.107
 6981TIP3    H220885   1.341   3.725   3.017
 6982TIP3   OH220886   6.975   7.408   0.675
 6982TIP3    H120887   6.932   7.411   0.589
 6982TIP3    H220888   7.023   7.325   0.675
 6983TIP3   OH220889   5.301   7.525   6.222
 6983TIP3    H120890   5.290   7.570   6.138
 6983TIP3    H220891   5.291   7.432   6.201
 6984TIP3   OH220892   5.392   0.116   5.530
 6984TIP3    H120893   5.440   0.050   5.481
 6984TIP3    H220894   5.334   0.065   5.587
 6985TIP3   OH220895   3.922   3.895   4.145
 6985TIP3    H120896   3.935   3.951   4.069
 6985TIP3    H220897   3.921   3.806   4.110
 6986TIP3   OH220898   6.306   0.629   3.243
 6986TIP3    H120899   6.386   0.678   3.266
 6986TIP3    H220900   6.291   0.572   3.318
 6987TIP3   OH220901   3.191   6.324   6.236
 6987TIP3    H120902   3.200   6.405   6.288
 6987TIP3    H220903   3.236   6.343   6.154
 6988TIP3   OH220904   4.818   0.597   1.991
 6988TIP3    H120905   4.878   0.671   1.988
 6988TIP3    H220906   4.745   0.628   2.045
 6989TIP3   OH220907   2.301   1.736   4.398
 6989TIP3    H120908   2.393   1.764   4.406
 6989TIP3    H220909   2.289   1.674   4.469
 6990TIP3   OH220910   2.089   3.512   3.545
 6990TIP3    H120911   2.019   3.502   3.609
 6990TIP3    H220912   2.159   3.454   3.576
 6991TIP3   OH220913   6.690   3.509   2.370
 6991TIP3    H120914   6.677   3.602   2.348
 6991TIP3    H220915   6.685   3.464   2.285
 6992TIP3   OH220916   2.174   0.368   1.785
 6992TIP3    H120917   2.242   0.313   1.745
 6992TIP3    H220918   2.212   0.455   1.790
 6993TIP3   OH220919   7.235   0.612   1.976
 6993TIP3    H120920   7.281   0.690   1.944
 6993TIP3    H220921   7.167   0.595   1.911
 6994TIP3   OH220922   0.975   7.277   0.890
 6994TIP3    H120923   0.880   7.289   0.893
 6994TIP3    H220924   0.991   7.233   0.807
 6995TIP3   OH220925   8.054   2.310   2.122
 6995TIP3    H120926   8.038   2.241   2.057
 6995TIP3    H220927   8.114   2.269   2.185
 6996TIP3   OH220928   0.551   5.377   6.544
 6996TIP3    H120929   0.630   5.343   6.501
 6996TIP3    H220930   0.573   5.377   6.637
 6997TIP3   OH220931   2.554   2.422   2.485
 6997TIP3    H120932   2.480   2.474   2.516
 6997TIP3    H220933   2.616   2.421   2.559
 6998TIP3   OH220934   6.878   3.803   2.087
 6998TIP3    H120935   6.788   3.831   2.104
 6998TIP3    H220936   6.881   3.787   1.993
 6999TIP3   OH220937   2.990   6.889   5.469
 6999TIP3    H120938   3.056   6.840   5.420
 6999TIP3    H220939   2.959   6.956   5.409
 7000TIP3   OH220940   7.269   4.498   6.186
 7000TIP3    H120941   7.358   4.528   6.168
 7000TIP3    H220942   7.234   4.477   6.099
 7001TIP3   OH220943   2.278   7.557   0.060
 7001TIP3    H120944   2.324   7.531  -0.020
 7001TIP3    H220945   2.216   7.624   0.032
 7002TIP3   OH220946   4.279   5.134   5.695
 7002TIP3    H120947   4.221   5.076   5.644
 7002TIP3    H220948   4.279   5.097   5.783
 7003TIP3   OH220949   2.050   7.245   2.053
 7003TIP3    H120950   2.077   7.163   2.013
 7003TIP3    H220951   2.038   7.224   2.146
 7004TIP3   OH220952   2.776  -0.001   4.629
 7004TIP3    H120953   2.772   0.095   4.624
 7004TIP3    H220954   2.810  -0.027   4.543
 7005TIP3   OH220955   1.065   3.437   6.869
 7005TIP3    H120956   0.994   3.412   6.810
 7005TIP3    H220957   1.139   3.455   6.811
 7006TIP3   OH220958   4.132   3.632   6.638
 7006TIP3    H120959   4.137   3.722   6.671
 7006TIP3    H220960   4.169   3.578   6.708
 7007TIP3   OH220961   6.908   0.333   1.555
 7007TIP3    H120962   6.851   0.302   1.486
 7007TIP3    H220963   6.943   0.416   1.522
 7008TIP3   OH220964   0.639   3.697   3.068
 7008TIP3    H120965   0.556   3.648   3.069
 7008TIP3    H220966   0.668   3.694   2.977
 7009TIP3   OH220967   1.081   2.844   2.128
 7009TIP3    H120968   1.120   2.780   2.187
 7009TIP3    H220969   1.022   2.895   2.183
 7010TIP3   OH220970   2.695   2.026   6.862
 7010TIP3    H120971   2.621   2.088   6.861
 7010TIP3    H220972   2.674   1.964   6.793
 7011TIP3   OH220973   2.593   7.679   0.579
 7011TIP3    H120974   2.600   7.632   0.662
 7011TIP3    H220975   2.503   7.712   0.578
 7012TIP3   OH220976   1.206   6.258   0.319
 7012TIP3    H120977   1.113   6.280   0.314
 7012TIP3    H220978   1.211   6.166   0.291
 7013TIP3   OH220979   0.895   1.689   4.246
 7013TIP3    H120980   0.978   1.697   4.199
 7013TIP3    H220981   0.911   1.622   4.312
 7014TIP3   OH220982   1.187   2.219   6.466
 7014TIP3    H120983   1.121   2.198   6.533
 7014TIP3    H220984   1.248   2.279   6.511
 7015TIP3   OH220985   8.151   7.723   6.534
 7015TIP3    H120986   8.089   7.668   6.486
 7015TIP3    H220987   8.103   7.754   6.610
 7016TIP3   OH220988   7.327   4.081   5.053
 7016TIP3    H120989   7.317   3.992   5.087
 7016TIP3    H220990   7.414   4.083   5.014
 7017TIP3   OH220991   3.690   5.223   3.775
 7017TIP3    H120992   3.652   5.218   3.688
 7017TIP3    H220993   3.720   5.314   3.783
 7018TIP3   OH220994   1.810   2.559   4.910
 7018TIP3    H120995   1.838   2.471   4.932
 7018TIP3    H220996   1.891   2.607   4.894
 7019TIP3   OH220997   6.385   7.511   5.670
 7019TIP3    H120998   6.438   7.516   5.750
 7019TIP3    H220999   6.296   7.495   5.702
 7020TIP3   OH221000   4.506   0.872   6.488
 7020TIP3    H121001   4.478   0.920   6.411
 7020TIP3    H221002   4.531   0.940   6.551
 7021TIP3   OH221003   2.062   2.568   0.812
 7021TIP3    H121004   2.014   2.491   0.842
 7021TIP3    H221005   2.151   2.556   0.843
 7022TIP3   OH221006   5.876   5.677   0.968
 7022TIP3    H121007   5.863   5.602   0.911
 7022TIP3    H221008   5.808   5.740   0.941
 7023TIP3   OH221009   4.182   4.201   1.041
 7023TIP3    H121010   4.239   4.156   1.103
 7023TIP3    H221011   4.216   4.177   0.955
 7024TIP3   OH221012   5.279   4.284   2.432
 7024TIP3    H121013   5.217   4.347   2.395
 7024TIP3    H221014   5.288   4.217   2.364
 7025TIP3   OH221015   7.621   2.675   1.760
 7025TIP3    H121016   7.571   2.756   1.747
 7025TIP3    H221017   7.557   2.605   1.747
 7026TIP3   OH221018   2.873   4.135   0.997
 7026TIP3    H121019   2.789   4.120   0.955
 7026TIP3    H221020   2.936   4.088   0.943
 7027TIP3   OH221021   5.197   3.342   2.190
 7027TIP3    H121022   5.231   3.426   2.157
 7027TIP3    H221023   5.195   3.353   2.285
 7028TIP3   OH221024   6.888   6.191   0.610
 7028TIP3    H121025   6.811   6.219   0.560
 7028TIP3    H221026   6.853   6.162   0.694
 7029TIP3   OH221027   6.860   1.454   2.750
 7029TIP3    H121028   6.839   1.465   2.843
 7029TIP3    H221029   6.897   1.539   2.724
 7030TIP3   OH221030   3.040   3.370   4.043
 7030TIP3    H121031   3.107   3.433   4.018
 7030TIP3    H221032   3.041   3.370   4.138
 7031TIP3   OH221033   5.310   7.879   2.547
 7031TIP3    H121034   5.341   7.794   2.578
 7031TIP3    H221035   5.238   7.859   2.487
 7032TIP3   OH221036   7.592   5.306   5.203
 7032TIP3    H121037   7.517   5.246   5.202
 7032TIP3    H221038   7.639   5.287   5.122
 7033TIP3   OH221039   6.181   6.437   3.894
 7033TIP3    H121040   6.238   6.508   3.924
 7033TIP3    H221041   6.153   6.464   3.806
 7034TIP3   OH221042   6.998   5.852   5.241
 7034TIP3    H121043   7.091   5.830   5.234
 7034TIP3    H221044   6.996   5.947   5.251
 7035TIP3   OH221045   5.356   0.810   6.813
 7035TIP3    H121046   5.451   0.814   6.820
 7035TIP3    H221047   5.332   0.893   6.772
 7036TIP3   OH221048   8.203   6.664   6.182
 7036TIP3    H121049   8.270   6.732   6.174
 7036TIP3    H221050   8.250   6.582   6.171
 7037TIP3   OH221051   4.982   6.032   2.920
 7037TIP3    H121052   5.002   6.088   2.845
 7037TIP3    H221053   5.007   5.944   2.892
 7038TIP3   OH221054   5.055   4.591   3.684
 7038TIP3    H121055   4.963   4.618   3.690
 7038TIP3    H221056   5.097   4.634   3.759
 7039TIP3   OH221057   5.902   4.266   0.062
 7039TIP3    H121058   5.918   4.182   0.106
 7039TIP3    H221059   5.857   4.242  -0.019
 7040TIP3   OH221060   7.470   4.193   0.094
 7040TIP3    H121061   7.425   4.264   0.049
 7040TIP3    H221062   7.505   4.234   0.173
 7041TIP3   OH221063   3.436   1.258   3.417
 7041TIP3    H121064   3.479   1.188   3.367
 7041TIP3    H221065   3.349   1.266   3.379
 7042TIP3   OH221066   0.792   3.635   3.419
 7042TIP3    H121067   0.790   3.541   3.439
 7042TIP3    H221068   0.851   3.672   3.485
 7043TIP3   OH221069   1.511   5.885   1.941
 7043TIP3    H121070   1.456   5.963   1.932
 7043TIP3    H221071   1.470   5.834   2.011
 7044TIP3   OH221072   6.452   1.333   4.018
 7044TIP3    H121073   6.536   1.298   3.989
 7044TIP3    H221074   6.430   1.399   3.952
 7045TIP3   OH221075   0.639   4.760   5.016
 7045TIP3    H121076   0.549   4.784   4.997
 7045TIP3    H221077   0.660   4.808   5.097
 7046TIP3   OH221078   6.420   2.979   5.950
 7046TIP3    H121079   6.483   3.036   5.996
 7046TIP3    H221080   6.475   2.917   5.902
 7047TIP3   OH221081   1.157   7.688   3.744
 7047TIP3    H121082   1.103   7.613   3.719
 7047TIP3    H221083   1.177   7.731   3.661
 7048TIP3   OH221084   5.538   1.906   4.950
 7048TIP3    H121085   5.558   1.942   5.036
 7048TIP3    H221086   5.621   1.868   4.920
 7049TIP3   OH221087   4.341   4.540   0.086
 7049TIP3    H121088   4.263   4.515   0.037
 7049TIP3    H221089   4.384   4.458   0.109
 7050TIP3   OH221090   7.493   5.777   2.951
 7050TIP3    H121091   7.506   5.775   3.045
 7050TIP3    H221092   7.531   5.860   2.923
 7051TIP3   OH221093   1.256   3.107   3.929
 7051TIP3    H121094   1.171   3.143   3.951
 7051TIP3    H221095   1.290   3.164   3.860
 7052TIP3   OH221096   7.456   7.357   2.428
 7052TIP3    H121097   7.368   7.353   2.390
 7052TIP3    H221098   7.478   7.265   2.445
 7053TIP3   OH221099   0.162   3.462   5.623
 7053TIP3    H121100   0.207   3.395   5.572
 7053TIP3    H221101   0.083   3.418   5.656
 7054TIP3   OH221102   8.040   0.174   4.428
 7054TIP3    H121103   8.128   0.212   4.428
 7054TIP3    H221104   7.997   0.214   4.503
 7055TIP3   OH221105   0.064   5.777   3.219
 7055TIP3    H121106   0.155   5.748   3.229
 7055TIP3    H221107   0.046   5.766   3.125
 7056TIP3   OH221108   6.671   0.318   5.155
 7056TIP3    H121109   6.698   0.246   5.212
 7056TIP3    H221110   6.748   0.336   5.101
 7057TIP3   OH221111   6.049   1.585   1.573
 7057TIP3    H121112   6.020   1.650   1.509
 7057TIP3    H221113   6.120   1.538   1.529
 7058TIP3   OH221114   7.400   3.754   2.248
 7058TIP3    H121115   7.415   3.767   2.342
 7058TIP3    H221116   7.307   3.732   2.241
 7059TIP3   OH221117   4.836   1.949   0.701
 7059TIP3    H121118   4.742   1.933   0.699
 7059TIP3    H221119   4.872   1.877   0.752
 7060TIP3   OH221120   4.918   6.920   0.448
 7060TIP3    H121121   4.992   6.925   0.387
 7060TIP3    H221122   4.887   6.829   0.441
 7061TIP3   OH221123   7.864   4.198   4.954
 7061TIP3    H121124   7.956   4.220   4.967
 7061TIP3    H221125   7.817   4.278   4.977
 7062TIP3   OH221126   4.439   2.093   5.995
 7062TIP3    H121127   4.505   2.144   6.041
 7062TIP3    H221128   4.356   2.129   6.024
 7063TIP3   OH221129   5.134   2.697   0.048
 7063TIP3    H121130   5.108   2.605   0.050
 7063TIP3    H221131   5.058   2.743   0.012
 7064TIP3   OH221132   8.009   0.683   1.499
 7064TIP3    H121133   8.050   0.764   1.470
 7064TIP3    H221134   8.022   0.622   1.425
 7065TIP3   OH221135   1.918   5.590   4.700
 7065TIP3    H121136   2.004   5.549   4.708
 7065TIP3    H221137   1.858   5.527   4.741
 7066TIP3   OH221138   8.064   6.764   1.706
 7066TIP3    H121139   8.130   6.711   1.661
 7066TIP3    H221140   7.998   6.781   1.639
 7067TIP3   OH221141   8.181   3.918   1.974
 7067TIP3    H121142   8.235   3.987   1.936
 7067TIP3    H221143   8.124   3.890   1.902
 7068TIP3   OH221144   7.356   6.580   1.649
 7068TIP3    H121145   7.329   6.525   1.575
 7068TIP3    H221146   7.291   6.651   1.650
 7069TIP3   OH221147   2.831   2.965   3.896
 7069TIP3    H121148   2.893   2.992   3.964
 7069TIP3    H221149   2.751   3.015   3.916
 7070TIP3   OH221150   1.509   4.080   1.424
 7070TIP3    H121151   1.438   4.035   1.469
 7070TIP3    H221152   1.484   4.172   1.427
 7071TIP3   OH221153   3.282   4.568   4.475
 7071TIP3    H121154   3.274   4.653   4.432
 7071TIP3    H221155   3.347   4.582   4.544
 7072TIP3   OH221156   0.247   2.267   4.492
 7072TIP3    H121157   0.329   2.230   4.526
 7072TIP3    H221158   0.196   2.192   4.464
 7073TIP3   OH221159   0.083   4.201   0.835
 7073TIP3    H121160  -0.001   4.195   0.880
 7073TIP3    H221161   0.103   4.111   0.809
 7074TIP3   OH221162   4.743   4.816   3.209
 7074TIP3    H121163   4.714   4.824   3.300
 7074TIP3    H221164   4.832   4.782   3.215
 7075TIP3   OH221165   1.197   5.315   2.133
 7075TIP3    H121166   1.160   5.382   2.075
 7075TIP3    H221167   1.216   5.361   2.214
 7076TIP3   OH221168   3.351   0.762   4.512
 7076TIP3    H121169   3.433   0.753   4.464
 7076TIP3    H221170   3.378   0.775   4.603
 7077TIP3   OH221171   6.063   5.596   2.374
 7077TIP3    H121172   5.985   5.542   2.364
 7077TIP3    H221173   6.033   5.685   2.357
 7078TIP3   OH221174   3.328   2.338   4.552
 7078TIP3    H121175   3.364   2.317   4.466
 7078TIP3    H221176   3.368   2.422   4.575
 7079TIP3   OH221177   1.256   1.926   1.312
 7079TIP3    H121178   1.172   1.883   1.327
 7079TIP3    H221179   1.296   1.929   1.399
 7080TIP3   OH221180   7.782   0.176   2.203
 7080TIP3    H121181   7.795   0.204   2.294
 7080TIP3    H221182   7.871   0.161   2.170
 7081TIP3   OH221183   4.424   7.048   3.053
 7081TIP3    H121184   4.459   7.045   2.964
 7081TIP3    H221185   4.501   7.068   3.108
 7082TIP3   OH221186   7.590   7.655   0.343
 7082TIP3    H121187   7.578   7.561   0.347
 7082TIP3    H221188   7.617   7.681   0.431
 7083TIP3   OH221189   7.850   6.990   6.418
 7083TIP3    H121190   7.862   6.942   6.336
 7083TIP3    H221191   7.888   7.076   6.401
 7084TIP3   OH221192   3.074   6.378   1.721
 7084TIP3    H121193   3.037   6.370   1.633
 7084TIP3    H221194   3.094   6.472   1.729
 7085TIP3   OH221195   3.778   0.560   6.289
 7085TIP3    H121196   3.796   0.623   6.219
 7085TIP3    H221197   3.687   0.576   6.313
 7086TIP3   OH221198   1.784   4.878   4.033
 7086TIP3    H121199   1.728   4.803   4.050
 7086TIP3    H221200   1.728   4.954   4.050
 7087TIP3   OH221201   6.066   4.350   2.379
 7087TIP3    H121202   6.113   4.267   2.386
 7087TIP3    H221203   6.075   4.391   2.465
 7088TIP3   OH221204   1.176   5.710   3.870
 7088TIP3    H121205   1.112   5.652   3.912
 7088TIP3    H221206   1.181   5.786   3.928
 7089TIP3   OH221207   3.404   2.467   2.728
 7089TIP3    H121208   3.346   2.398   2.761
 7089TIP3    H221209   3.491   2.442   2.758
 7090TIP3   OH221210   5.898   1.618   1.796
 7090TIP3    H121211   5.969   1.587   1.852
 7090TIP3    H221212   5.934   1.613   1.707
 7091TIP3   OH221213   7.238   4.027   0.104
 7091TIP3    H121214   7.316   4.075   0.132
 7091TIP3    H221215   7.263   3.935   0.111
 7092TIP3   OH221216   3.100   2.515   2.602
 7092TIP3    H121217   3.073   2.426   2.578
 7092TIP3    H221218   3.187   2.525   2.562
 7093TIP3   OH221219   2.761   6.086   3.132
 7093TIP3    H121220   2.764   6.120   3.043
 7093TIP3    H221221   2.733   5.995   3.122
 7094TIP3   OH221222   0.325   1.366   1.685
 7094TIP3    H121223   0.253   1.378   1.622
 7094TIP3    H221224   0.360   1.454   1.699
 7095TIP3   OH221225   1.541   2.428   3.403
 7095TIP3    H121226   1.472   2.422   3.337
 7095TIP3    H221227   1.610   2.370   3.371
 7096TIP3   OH221228   3.356   4.330   6.499
 7096TIP3    H121229   3.358   4.399   6.432
 7096TIP3    H221230   3.358   4.248   6.450
 7097TIP3   OH221231   0.070   6.065   5.204
 7097TIP3    H121232   0.004   6.032   5.266
 7097TIP3    H221233   0.070   6.160   5.218
 7098TIP3   OH221234   4.602   2.116   2.206
 7098TIP3    H121235   4.551   2.092   2.128
 7098TIP3    H221236   4.578   2.050   2.272
 7099TIP3   OH221237   2.095   1.070   1.650
 7099TIP3    H121238   2.155   1.136   1.685
 7099TIP3    H221239   2.035   1.052   1.722
 7100TIP3   OH221240   3.649   4.424   3.874
 7100TIP3    H121241   3.595   4.382   3.807
 7100TIP3    H221242   3.587   4.480   3.922
 7101TIP3   OH221243   6.882   0.668   2.413
 7101TIP3    H121244   6.877   0.726   2.489
 7101TIP3    H221245   6.834   0.589   2.439
 7102TIP3   OH221246   0.126   3.276   1.947
 7102TIP3    H121247   0.124   3.356   1.896
 7102TIP3    H221248   0.163   3.302   2.031
 7103TIP3   OH221249   1.111   5.451   0.561
 7103TIP3    H121250   1.093   5.373   0.508
 7103TIP3    H221251   1.026   5.493   0.571
 7104TIP3   OH221252   4.367   3.414   3.916
 7104TIP3    H121253   4.389   3.459   3.835
 7104TIP3    H221254   4.349   3.324   3.889
 7105TIP3   OH221255   7.159   7.269   4.282
 7105TIP3    H121256   7.194   7.253   4.370
 7105TIP3    H221257   7.126   7.359   4.286
 7106TIP3   OH221258   2.612   0.684   1.121
 7106TIP3    H121259   2.566   0.638   1.191
 7106TIP3    H221260   2.565   0.661   1.041
 7107TIP3   OH221261   7.767   1.802   1.164
 7107TIP3    H121262   7.691   1.854   1.191
 7107TIP3    H221263   7.729   1.724   1.123
 7108TIP3   OH221264   8.014   2.931   1.261
 7108TIP3    H121265   7.974   3.018   1.252
 7108TIP3    H221266   8.086   2.931   1.199
 7109TIP3   OH221267   7.905   6.504   4.906
 7109TIP3    H121268   7.899   6.463   4.819
 7109TIP3    H221269   7.865   6.590   4.894
 7110TIP3   OH221270   0.647   5.256   4.223
 7110TIP3    H121271   0.690   5.185   4.175
 7110TIP3    H221272   0.601   5.306   4.155
 7111TIP3   OH221273   2.076   5.293   6.231
 7111TIP3    H121274   2.119   5.238   6.297
 7111TIP3    H221275   1.982   5.275   6.242
 7112TIP3   OH221276   5.174   0.511   1.966
 7112TIP3    H121277   5.133   0.431   1.933
 7112TIP3    H221278   5.221   0.483   2.045
 7113TIP3   OH221279   0.365   7.685   3.529
 7113TIP3    H121280   0.331   7.729   3.607
 7113TIP3    H221281   0.297   7.621   3.506
 7114TIP3   OH221282   0.255   7.322   2.060
 7114TIP3    H121283   0.302   7.258   2.113
 7114TIP3    H221284   0.233   7.275   1.980
 7115TIP3   OH221285   1.609   6.513   3.979
 7115TIP3    H121286   1.604   6.602   3.945
 7115TIP3    H221287   1.702   6.492   3.979
 7116TIP3   OH221288   8.000   5.700   0.439
 7116TIP3    H121289   8.022   5.699   0.346
 7116TIP3    H221290   8.079   5.734   0.482
 7117TIP3   OH221291   4.957   2.867   0.370
 7117TIP3    H121292   4.969   2.809   0.446
 7117TIP3    H221293   4.887   2.826   0.320
 7118TIP3   OH221294   5.835   2.685   3.673
 7118TIP3    H121295   5.833   2.595   3.705
 7118TIP3    H221296   5.919   2.719   3.701
 7119TIP3   OH221297   8.113   7.153   5.308
 7119TIP3    H121298   8.150   7.065   5.313
 7119TIP3    H221299   8.160   7.203   5.374
 7120TIP3   OH221300   8.176   2.681   3.123
 7120TIP3    H121301   8.171   2.667   3.218
 7120TIP3    H221302   8.241   2.618   3.093
 7121TIP3   OH221303   8.129   5.314   3.745
 7121TIP3    H121304   8.058   5.376   3.729
 7121TIP3    H221305   8.190   5.361   3.802
 7122TIP3   OH221306   2.880   6.848   4.829
 7122TIP3    H121307   2.946   6.781   4.809
 7122TIP3    H221308   2.859   6.887   4.744
 7123TIP3   OH221309   3.738   5.690   4.243
 7123TIP3    H121310   3.690   5.678   4.160
 7123TIP3    H221311   3.772   5.603   4.263
 7124TIP3   OH221312   6.991   2.830   0.478
 7124TIP3    H121313   6.981   2.737   0.498
 7124TIP3    H221314   6.992   2.834   0.382
 7125TIP3   OH221315   6.110   3.939   4.988
 7125TIP3    H121316   6.131   3.973   5.076
 7125TIP3    H221317   6.019   3.965   4.973
 7126TIP3   OH221318   6.696   4.555   3.686
 7126TIP3    H121319   6.647   4.505   3.751
 7126TIP3    H221320   6.646   4.545   3.605
 7127TIP3   OH221321   3.350   0.030   0.060
 7127TIP3    H121322   3.293   0.088   0.009
 7127TIP3    H221323   3.337   0.058   0.151
 7128TIP3   OH221324   3.376   4.558   1.785
 7128TIP3    H121325   3.407   4.612   1.857
 7128TIP3    H221326   3.455   4.535   1.736
 7129TIP3   OH221327   2.337   7.154   5.140
 7129TIP3    H121328   2.411   7.094   5.126
 7129TIP3    H221329   2.287   7.149   5.058
 7130TIP3   OH221330   4.140   3.469   0.108
 7130TIP3    H121331   4.070   3.421   0.153
 7130TIP3    H221332   4.116   3.466   0.016
 7131TIP3   OH221333   4.837   7.587   2.933
 7131TIP3    H121334   4.765   7.573   2.995
 7131TIP3    H221335   4.843   7.682   2.926
 7132TIP3   OH221336   8.225   7.002   1.446
 7132TIP3    H121337   8.145   7.024   1.398
 7132TIP3    H221338   8.285   6.969   1.379
 7133TIP3   OH221339   1.916   6.892   1.163
 7133TIP3    H121340   1.982   6.845   1.111
 7133TIP3    H221341   1.934   6.984   1.147
 7134TIP3   OH221342   4.380   5.484   1.372
 7134TIP3    H121343   4.408   5.396   1.397
 7134TIP3    H221344   4.459   5.526   1.340
 7135TIP3   OH221345   4.683   0.888   2.867
 7135TIP3    H121346   4.636   0.851   2.941
 7135TIP3    H221347   4.710   0.812   2.815
 7136TIP3   OH221348   1.549   3.609   2.349
 7136TIP3    H121349   1.566   3.690   2.300
 7136TIP3    H221350   1.613   3.609   2.419
 7137TIP3   OH221351   1.547   3.912   1.198
 7137TIP3    H121352   1.639   3.908   1.171
 7137TIP3    H221353   1.542   3.987   1.256
 7138TIP3   OH221354   3.561   5.262   0.556
 7138TIP3    H121355   3.567   5.177   0.601
 7138TIP3    H221356   3.615   5.251   0.478
 7139TIP3   OH221357   2.200   2.983   0.348
 7139TIP3    H121358   2.125   2.991   0.407
 7139TIP3    H221359   2.164   2.940   0.270
 7140TIP3   OH221360   1.653   4.397   6.384
 7140TIP3    H121361   1.698   4.409   6.468
 7140TIP3    H221362   1.691   4.464   6.327
 7141TIP3   OH221363   3.499   1.092   4.280
 7141TIP3    H121364   3.479   1.079   4.187
 7141TIP3    H221365   3.550   1.173   4.283
 7142TIP3   OH221366   6.450   5.151   1.040
 7142TIP3    H121367   6.445   5.219   0.973
 7142TIP3    H221368   6.359   5.139   1.069
 7143TIP3   OH221369   1.844   4.960   3.487
 7143TIP3    H121370   1.830   5.000   3.401
 7143TIP3    H221371   1.828   5.030   3.550
 7144TIP3   OH221372   6.856   6.406   0.863
 7144TIP3    H121373   6.799   6.330   0.855
 7144TIP3    H221374   6.875   6.431   0.773
 7145TIP3   OH221375   4.530   5.324   4.882
 7145TIP3    H121376   4.590   5.325   4.807
 7145TIP3    H221377   4.443   5.317   4.842
 7146TIP3   OH221378   7.737   7.212   6.132
 7146TIP3    H121379   7.731   7.119   6.152
 7146TIP3    H221380   7.698   7.220   6.045
 7147TIP3   OH221381   1.475   4.672   0.399
 7147TIP3    H121382   1.505   4.644   0.485
 7147TIP3    H221383   1.383   4.697   0.412
 7148TIP3   OH221384   7.271   7.279   3.211
 7148TIP3    H121385   7.333   7.231   3.157
 7148TIP3    H221386   7.314   7.362   3.229
 7149TIP3   OH221387   0.729   6.172   6.415
 7149TIP3    H121388   0.729   6.255   6.463
 7149TIP3    H221389   0.641   6.137   6.427
 7150TIP3   OH221390   6.542   0.151   4.979
 7150TIP3    H121391   6.561   0.226   5.035
 7150TIP3    H221392   6.568   0.075   5.030
 7151TIP3   OH221393   0.703   5.652   2.070
 7151TIP3    H121394   0.619   5.612   2.094
 7151TIP3    H221395   0.768   5.584   2.090
 7152TIP3   OH221396   1.425   2.501   4.062
 7152TIP3    H121397   1.422   2.498   3.966
 7152TIP3    H221398   1.335   2.514   4.089
 7153TIP3   OH221399   6.141   4.603   5.518
 7153TIP3    H121400   6.162   4.578   5.608
 7153TIP3    H221401   6.049   4.582   5.508
 7154TIP3   OH221402   6.504   6.803   5.406
 7154TIP3    H121403   6.547   6.761   5.481
 7154TIP3    H221404   6.567   6.868   5.375
 7155TIP3   OH221405   3.850   2.018   5.810
 7155TIP3    H121406   3.821   1.956   5.877
 7155TIP3    H221407   3.808   1.987   5.729
 7156TIP3   OH221408   6.902   0.708   3.109
 7156TIP3    H121409   6.901   0.779   3.044
 7156TIP3    H221410   6.869   0.632   3.061
 7157TIP3   OH221411   1.102   7.154   3.776
 7157TIP3    H121412   1.099   7.074   3.723
 7157TIP3    H221413   1.172   7.206   3.736
 7158TIP3   OH221414   7.403   5.559   3.424
 7158TIP3    H121415   7.314   5.535   3.399
 7158TIP3    H221416   7.438   5.481   3.466
 7159TIP3   OH221417   1.612   6.293   4.546
 7159TIP3    H121418   1.654   6.348   4.611
 7159TIP3    H221419   1.684   6.252   4.498
 7160TIP3   OH221420   8.144   6.929   1.112
 7160TIP3    H121421   8.112   6.845   1.145
 7160TIP3    H221422   8.229   6.909   1.074
 7161TIP3   OH221423   2.112   5.487   2.508
 7161TIP3    H121424   2.196   5.481   2.463
 7161TIP3    H221425   2.125   5.555   2.574
 7162TIP3   OH221426   3.207   0.730   5.023
 7162TIP3    H121427   3.269   0.772   5.083
 7162TIP3    H221428   3.131   0.711   5.078
 7163TIP3   OH221429   5.452   7.269   5.337
 7163TIP3    H121430   5.373   7.283   5.388
 7163TIP3    H221431   5.523   7.302   5.392
 7164TIP3   OH221432   5.571   2.011   4.425
 7164TIP3    H121433   5.565   1.949   4.497
 7164TIP3    H221434   5.664   2.031   4.416
 7165TIP3   OH221435   1.950   5.171   0.730
 7165TIP3    H121436   2.026   5.137   0.682
 7165TIP3    H221437   1.920   5.245   0.678
 7166TIP3   OH221438   1.676   3.107   3.277
 7166TIP3    H121439   1.660   3.153   3.194
 7166TIP3    H221440   1.617   3.032   3.275
 7167TIP3   OH221441   5.070   4.120   1.833
 7167TIP3    H121442   5.065   4.028   1.857
 7167TIP3    H221443   5.158   4.146   1.857
 7168TIP3   OH221444   5.147   1.496   1.399
 7168TIP3    H121445   5.105   1.535   1.476
 7168TIP3    H221446   5.224   1.451   1.434
 7169TIP3   OH221447   1.126   1.735   6.353
 7169TIP3    H121448   1.140   1.682   6.431
 7169TIP3    H221449   1.056   1.796   6.378
 7170TIP3   OH221450   6.923   1.238   2.276
 7170TIP3    H121451   6.889   1.266   2.361
 7170TIP3    H221452   6.881   1.296   2.213
 7171TIP3   OH221453   7.634   7.721   5.052
 7171TIP3    H121454   7.593   7.808   5.046
 7171TIP3    H221455   7.561   7.660   5.044
 7172TIP3   OH221456   0.003   3.057   1.378
 7172TIP3    H121457   0.087   3.101   1.365
 7172TIP3    H221458   0.014   2.972   1.336
 7173TIP3   OH221459   7.431   4.968   2.718
 7173TIP3    H121460   7.368   5.033   2.686
 7173TIP3    H221461   7.377   4.892   2.740
 7174TIP3   OH221462   4.562   2.794   2.878
 7174TIP3    H121463   4.627   2.734   2.915
 7174TIP3    H221464   4.504   2.737   2.827
 7175TIP3   OH221465   7.058   6.415   3.608
 7175TIP3    H121466   6.987   6.418   3.544
 7175TIP3    H221467   7.129   6.464   3.566
 7176TIP3   OH221468   5.495   0.380   6.237
 7176TIP3    H121469   5.564   0.324   6.201
 7176TIP3    H221470   5.435   0.393   6.163
 7177TIP3   OH221471   6.846   6.492   2.387
 7177TIP3    H121472   6.851   6.430   2.314
 7177TIP3    H221473   6.933   6.490   2.427
 7178TIP3   OH221474   0.622   2.200   3.485
 7178TIP3    H121475   0.621   2.290   3.455
 7178TIP3    H221476   0.707   2.190   3.528
 7179TIP3   OH221477   5.881   4.140   4.955
 7179TIP3    H121478   5.802   4.127   4.902
 7179TIP3    H221479   5.938   4.194   4.900
 7180TIP3   OH221480   1.707   2.229   2.551
 7180TIP3    H121481   1.783   2.187   2.510
 7180TIP3    H221482   1.632   2.201   2.498
 7181TIP3   OH221483   5.930   0.062   4.083
 7181TIP3    H121484   5.894  -0.025   4.063
 7181TIP3    H221485   5.860   0.123   4.061
 7182TIP3   OH221486   2.019   0.581   6.629
 7182TIP3    H121487   2.006   0.497   6.584
 7182TIP3    H221488   2.013   0.647   6.560
 7183TIP3   OH221489   1.913   7.931   6.789
 7183TIP3    H121490   1.871   8.017   6.795
 7183TIP3    H221491   1.940   7.911   6.879
 7184TIP3   OH221492   3.067   3.848   3.918
 7184TIP3    H121493   3.090   3.873   4.007
 7184TIP3    H221494   3.051   3.931   3.873
 7185TIP3   OH221495   7.636   3.547   1.918
 7185TIP3    H121496   7.676   3.598   1.989
 7185TIP3    H221497   7.710   3.515   1.867
 7186TIP3   OH221498   7.797   2.402   2.127
 7186TIP3    H121499   7.785   2.470   2.194
 7186TIP3    H221500   7.878   2.358   2.152
 7187TIP3   OH221501   7.732   5.438   1.213
 7187TIP3    H121502   7.747   5.369   1.277
 7187TIP3    H221503   7.762   5.402   1.130
 7188TIP3   OH221504   2.042   1.664   2.752
 7188TIP3    H121505   1.965   1.613   2.778
 7188TIP3    H221506   2.090   1.606   2.693
 7189TIP3   OH221507   6.892   7.562   2.816
 7189TIP3    H121508   6.857   7.473   2.822
 7189TIP3    H221509   6.972   7.560   2.868
 7190TIP3   OH221510   0.969   0.850   1.136
 7190TIP3    H121511   1.015   0.909   1.196
 7190TIP3    H221512   0.965   0.898   1.054
 7191TIP3   OH221513   2.110   0.244   4.202
 7191TIP3    H121514   2.039   0.281   4.149
 7191TIP3    H221515   2.188   0.254   4.147
 7192TIP3   OH221516   2.086   6.844   3.386
 7192TIP3    H121517   2.150   6.797   3.332
 7192TIP3    H221518   2.003   6.836   3.339
 7193TIP3   OH221519   6.569   2.794   3.719
 7193TIP3    H121520   6.569   2.877   3.766
 7193TIP3    H221521   6.482   2.789   3.679
 7194TIP3   OH221522   7.266   1.086   5.225
 7194TIP3    H121523   7.240   1.175   5.202
 7194TIP3    H221524   7.218   1.067   5.305
 7195TIP3   OH221525   0.449   3.932   3.104
 7195TIP3    H121526   0.514   3.872   3.069
 7195TIP3    H221527   0.399   3.880   3.167
 7196TIP3   OH221528   1.824   3.447   1.884
 7196TIP3    H121529   1.877   3.521   1.912
 7196TIP3    H221530   1.737   3.484   1.868
 7197TIP3   OH221531   4.965   1.453   3.537
 7197TIP3    H121532   4.910   1.423   3.610
 7197TIP3    H221533   4.903   1.476   3.468
 7198TIP3   OH221534   6.788   1.237   5.339
 7198TIP3    H121535   6.782   1.331   5.354
 7198TIP3    H221536   6.703   1.203   5.367
 7199TIP3   OH221537   3.569   2.077   1.656
 7199TIP3    H121538   3.627   2.022   1.708
 7199TIP3    H221539   3.564   2.032   1.571
 7200TIP3   OH221540   6.807   5.697   5.860
 7200TIP3    H121541   6.863   5.651   5.798
 7200TIP3    H221542   6.861   5.708   5.938
 7201TIP3   OH221543   6.692   7.550   4.578
 7201TIP3    H121544   6.771   7.603   4.565
 7201TIP3    H221545   6.625   7.612   4.606
 7202TIP3   OH221546   0.132   2.224   1.639
 7202TIP3    H121547   0.205   2.231   1.578
 7202TIP3    H221548   0.054   2.222   1.583
 7203TIP3   OH221549   3.199   2.931   4.623
 7203TIP3    H121550   3.236   2.859   4.675
 7203TIP3    H221551   3.177   2.998   4.688
 7204TIP3   OH221552   7.541   6.707   4.489
 7204TIP3    H121553   7.570   6.637   4.546
 7204TIP3    H221554   7.473   6.667   4.435
 7205TIP3   OH221555   1.850   5.135   3.273
 7205TIP3    H121556   1.868   5.226   3.297
 7205TIP3    H221557   1.803   5.141   3.190
 7206TIP3   OH221558   3.461   3.753   4.015
 7206TIP3    H121559   3.475   3.731   4.108
 7206TIP3    H221560   3.465   3.848   4.012
 7207TIP3   OH221561   1.367   0.790   3.988
 7207TIP3    H121562   1.334   0.819   4.073
 7207TIP3    H221563   1.433   0.855   3.964
 7208TIP3   OH221564   6.207   3.313   0.565
 7208TIP3    H121565   6.156   3.315   0.646
 7208TIP3    H221566   6.193   3.399   0.525
 7209TIP3   OH221567   3.480   3.949   4.391
 7209TIP3    H121568   3.409   3.995   4.346
 7209TIP3    H221569   3.556   4.005   4.380
 7210TIP3   OH221570   1.927   3.480   0.476
 7210TIP3    H121571   1.850   3.485   0.419
 7210TIP3    H221572   1.909   3.405   0.533
 7211TIP3   OH221573   6.415   3.932   6.775
 7211TIP3    H121574   6.354   3.962   6.843
 7211TIP3    H221575   6.480   4.002   6.768
 7212TIP3   OH221576   3.817   7.145   5.793
 7212TIP3    H121577   3.820   7.169   5.886
 7212TIP3    H221578   3.869   7.065   5.787
 7213TIP3   OH221579   7.489   5.774   6.345
 7213TIP3    H121580   7.494   5.694   6.292
 7213TIP3    H221581   7.579   5.808   6.345
 7214TIP3   OH221582   1.945   2.782   6.786
 7214TIP3    H121583   1.868   2.805   6.838
 7214TIP3    H221584   1.994   2.864   6.780
 7215TIP3   OH221585   7.175   1.013   2.949
 7215TIP3    H121586   7.231   0.951   2.996
 7215TIP3    H221587   7.221   1.096   2.955
 7216TIP3   OH221588   4.679   5.770   1.664
 7216TIP3    H121589   4.714   5.824   1.735
 7216TIP3    H221590   4.709   5.813   1.584
 7217TIP3   OH221591   7.057   4.734   5.802
 7217TIP3    H121592   7.005   4.708   5.877
 7217TIP3    H221593   7.011   4.696   5.727
 7218TIP3   OH221594   1.926   1.244   0.180
 7218TIP3    H121595   1.886   1.240   0.093
 7218TIP3    H221596   2.019   1.233   0.164
 7219TIP3   OH221597   1.761   2.369   5.235
 7219TIP3    H121598   1.811   2.334   5.161
 7219TIP3    H221599   1.671   2.340   5.220
 7220TIP3   OH221600   5.937   4.583   0.514
 7220TIP3    H121601   6.024   4.544   0.510
 7220TIP3    H221602   5.930   4.635   0.434
 7221TIP3   OH221603   4.409   0.563   0.375
 7221TIP3    H121604   4.384   0.521   0.293
 7221TIP3    H221605   4.416   0.491   0.437
 7222TIP3   OH221606   0.808   6.235   3.928
 7222TIP3    H121607   0.830   6.168   3.863
 7222TIP3    H221608   0.861   6.212   4.005
 7223TIP3   OH221609   1.502   7.386   6.635
 7223TIP3    H121610   1.585   7.359   6.673
 7223TIP3    H221611   1.515   7.476   6.608
 7224TIP3   OH221612   6.057   1.781   3.863
 7224TIP3    H121613   6.116   1.854   3.882
 7224TIP3    H221614   5.972   1.823   3.846
 7225TIP3   OH221615   7.133   4.093   3.416
 7225TIP3    H121616   7.065   4.156   3.440
 7225TIP3    H221617   7.198   4.145   3.368
 7226TIP3   OH221618   8.248   0.736   2.688
 7226TIP3    H121619   8.160   0.701   2.677
 7226TIP3    H221620   8.295   0.709   2.609
 7227TIP3   OH221621   4.738   2.089   2.862
 7227TIP3    H121622   4.694   2.120   2.783
 7227TIP3    H221623   4.688   2.126   2.934
 7228TIP3   OH221624   6.401   2.528   1.862
 7228TIP3    H121625   6.331   2.534   1.796
 7228TIP3    H221626   6.382   2.599   1.924
 7229TIP3   OH221627   6.829   5.229   3.716
 7229TIP3    H121628   6.836   5.314   3.760
 7229TIP3    H221629   6.799   5.251   3.628
 7230TIP3   OH221630   1.486   5.703   4.566
 7230TIP3    H121631   1.493   5.739   4.654
 7230TIP3    H221632   1.450   5.774   4.513
 7231TIP3   OH221633   3.353   1.182   1.669
 7231TIP3    H121634   3.274   1.169   1.721
 7231TIP3    H221635   3.350   1.275   1.644
 7232TIP3   OH221636   8.066   3.021   2.718
 7232TIP3    H121637   8.045   3.037   2.810
 7232TIP3    H221638   8.109   3.101   2.688
 7233TIP3   OH221639   5.766   0.856   6.122
 7233TIP3    H121640   5.857   0.832   6.136
 7233TIP3    H221641   5.733   0.880   6.208
 7234TIP3   OH221642   7.128   4.193   1.777
 7234TIP3    H121643   7.213   4.153   1.759
 7234TIP3    H221644   7.064   4.131   1.741
 7235TIP3   OH221645   4.501   3.512   0.547
 7235TIP3    H121646   4.495   3.422   0.579
 7235TIP3    H221647   4.412   3.546   0.555
 7236TIP3   OH221648   7.980   4.573   4.909
 7236TIP3    H121649   8.028   4.655   4.917
 7236TIP3    H221650   7.947   4.573   4.819
 7237TIP3   OH221651   6.617   1.075   1.204
 7237TIP3    H121652   6.622   0.980   1.198
 7237TIP3    H221653   6.613   1.093   1.297
 7238TIP3   OH221654   5.480   1.439   5.335
 7238TIP3    H121655   5.421   1.471   5.268
 7238TIP3    H221656   5.434   1.365   5.375
 7239TIP3   OH221657   2.365   5.399   2.410
 7239TIP3    H121658   2.399   5.310   2.419
 7239TIP3    H221659   2.374   5.418   2.317
 7240TIP3   OH221660   2.010   4.755   4.469
 7240TIP3    H121661   2.104   4.735   4.465
 7240TIP3    H221662   1.968   4.679   4.429
 7241TIP3   OH221663   4.252   2.432   5.641
 7241TIP3    H121664   4.190   2.364   5.614
 7241TIP3    H221665   4.246   2.435   5.736
 7242TIP3   OH221666   1.390   5.842   1.480
 7242TIP3    H121667   1.462   5.844   1.543
 7242TIP3    H221668   1.415   5.907   1.414
 7243TIP3   OH221669   2.812   4.914   0.244
 7243TIP3    H121670   2.799   4.990   0.300
 7243TIP3    H221671   2.778   4.841   0.295
 7244TIP3   OH221672   4.773   7.498   5.939
 7244TIP3    H121673   4.862   7.491   5.974
 7244TIP3    H221674   4.781   7.558   5.865
 7245TIP3   OH221675   3.560   0.799   6.652
 7245TIP3    H121676   3.483   0.818   6.598
 7245TIP3    H221677   3.544   0.848   6.733
 7246TIP3   OH221678   3.060   6.733   4.423
 7246TIP3    H121679   3.111   6.661   4.385
 7246TIP3    H221680   2.985   6.743   4.365
 7247TIP3   OH221681   5.141   0.883   2.992
 7247TIP3    H121682   5.079   0.840   3.050
 7247TIP3    H221683   5.122   0.977   3.000
 7248TIP3   OH221684   7.081   2.196   1.632
 7248TIP3    H121685   7.078   2.197   1.728
 7248TIP3    H221686   7.167   2.160   1.612
 7249TIP3   OH221687   2.281   2.952   5.285
 7249TIP3    H121688   2.373   2.936   5.265
 7249TIP3    H221689   2.273   2.934   5.378
 7250TIP3   OH221690   1.829   6.724   5.183
 7250TIP3    H121691   1.816   6.735   5.089
 7250TIP3    H221692   1.742   6.705   5.218
 7251TIP3   OH221693   1.479   2.237   1.775
 7251TIP3    H121694   1.524   2.257   1.857
 7251TIP3    H221695   1.442   2.150   1.788
 7252TIP3   OH221696   3.542   4.539   2.482
 7252TIP3    H121697   3.515   4.585   2.402
 7252TIP3    H221698   3.491   4.580   2.552
 7253TIP3   OH221699   3.621   4.240   4.891
 7253TIP3    H121700   3.609   4.299   4.816
 7253TIP3    H221701   3.683   4.175   4.860
 7254TIP3   OH221702   7.029   3.678   1.380
 7254TIP3    H121703   7.050   3.628   1.301
 7254TIP3    H221704   7.080   3.637   1.449
 7255TIP3   OH221705   8.208   7.218   5.556
 7255TIP3    H121706   8.301   7.194   5.558
 7255TIP3    H221707   8.164   7.149   5.607
 7256TIP3   OH221708   3.250   7.190   4.293
 7256TIP3    H121709   3.345   7.174   4.296
 7256TIP3    H221710   3.215   7.134   4.362
 7257TIP3   OH221711   5.165   3.014   3.734
 7257TIP3    H121712   5.114   3.093   3.715
 7257TIP3    H221713   5.222   3.002   3.659
 7258TIP3   OH221714   0.775   4.265   2.336
 7258TIP3    H121715   0.858   4.220   2.319
 7258TIP3    H221716   0.738   4.281   2.249
 7259TIP3   OH221717   7.946   0.241   1.146
 7259TIP3    H121718   7.986   0.324   1.171
 7259TIP3    H221719   8.013   0.175   1.166
 7260TIP3   OH221720   7.285   2.142   1.343
 7260TIP3    H121721   7.190   2.132   1.352
 7260TIP3    H221722   7.318   2.052   1.341
 7261TIP3   OH221723   6.983   6.404   4.679
 7261TIP3    H121724   7.059   6.355   4.648
 7261TIP3    H221725   7.006   6.429   4.769
 7262TIP3   OH221726   7.510   1.692   5.789
 7262TIP3    H121727   7.537   1.758   5.852
 7262TIP3    H221728   7.466   1.625   5.842
 7263TIP3   OH221729   0.265   0.036   2.551
 7263TIP3    H121730   0.237   0.022   2.460
 7263TIP3    H221731   0.359   0.050   2.545
 7264TIP3   OH221732   4.639   5.610   5.622
 7264TIP3    H121733   4.666   5.519   5.631
 7264TIP3    H221734   4.649   5.629   5.529
 7265TIP3   OH221735   8.211   3.258   0.059
 7265TIP3    H121736   8.139   3.266   0.121
 7265TIP3    H221737   8.183   3.188  -0.001
 7266TIP3   OH221738   1.909   2.458   0.592
 7266TIP3    H121739   1.964   2.497   0.660
 7266TIP3    H221740   1.889   2.370   0.625
 7267TIP3   OH221741   7.401   7.098   3.023
 7267TIP3    H121742   7.492   7.126   3.012
 7267TIP3    H221743   7.368   7.087   2.934
 7268TIP3   OH221744   7.877   6.420   5.783
 7268TIP3    H121745   7.802   6.445   5.837
 7268TIP3    H221746   7.932   6.367   5.841
 7269TIP3   OH221747   3.902   7.356   1.303
 7269TIP3    H121748   3.948   7.284   1.345
 7269TIP3    H221749   3.929   7.352   1.212
 7270TIP3   OH221750   7.274   2.718   4.062
 7270TIP3    H121751   7.277   2.788   3.997
 7270TIP3    H221752   7.327   2.750   4.135
 7271TIP3   OH221753   5.036   1.435   3.209
 7271TIP3    H121754   4.988   1.517   3.218
 7271TIP3    H221755   5.111   1.444   3.268
 7272TIP3   OH221756   4.295   7.057   6.799
 7272TIP3    H121757   4.366   7.089   6.744
 7272TIP3    H221758   4.304   7.105   6.881
 7273TIP3   OH221759   2.201   6.911   4.477
 7273TIP3    H121760   2.141   6.985   4.487
 7273TIP3    H221761   2.244   6.903   4.562
 7274TIP3   OH221762   7.048   3.740   6.367
 7274TIP3    H121763   6.978   3.715   6.306
 7274TIP3    H221764   7.114   3.672   6.357
 7275TIP3   OH221765   6.324   6.323   0.787
 7275TIP3    H121766   6.327   6.412   0.751
 7275TIP3    H221767   6.234   6.311   0.815
 7276TIP3   OH221768   2.848   6.334   4.322
 7276TIP3    H121769   2.808   6.367   4.402
 7276TIP3    H221770   2.940   6.361   4.330
 7277TIP3   OH221771   0.184   6.519   5.533
 7277TIP3    H121772   0.271   6.559   5.533
 7277TIP3    H221773   0.182   6.468   5.614
 7278TIP3   OH221774   0.485   1.198   0.171
 7278TIP3    H121775   0.572   1.198   0.131
 7278TIP3    H221776   0.459   1.106   0.170
 7279TIP3   OH221777   0.757   5.359   3.212
 7279TIP3    H121778   0.847   5.335   3.189
 7279TIP3    H221779   0.728   5.415   3.140
 7280TIP3   OH221780   2.214   1.496   4.526
 7280TIP3    H121781   2.200   1.428   4.592
 7280TIP3    H221782   2.126   1.526   4.503
 7281TIP3   OH221783   7.833   0.966   0.927
 7281TIP3    H121784   7.791   1.038   0.882
 7281TIP3    H221785   7.768   0.937   0.991
 7282TIP3   OH221786   1.570   0.248   0.654
 7282TIP3    H121787   1.597   0.156   0.661
 7282TIP3    H221788   1.633   0.295   0.709
 7283TIP3   OH221789   5.313   0.419   4.773
 7283TIP3    H121790   5.393   0.458   4.809
 7283TIP3    H221791   5.289   0.351   4.837
 7284TIP3   OH221792   4.735   4.415   5.805
 7284TIP3    H121793   4.824   4.419   5.771
 7284TIP3    H221794   4.687   4.363   5.740
 7285TIP3   OH221795   7.434   2.183   6.818
 7285TIP3    H121796   7.426   2.088   6.820
 7285TIP3    H221797   7.359   2.214   6.869
 7286TIP3   OH221798   0.822   5.355   1.399
 7286TIP3    H121799   0.869   5.276   1.372
 7286TIP3    H221800   0.738   5.324   1.433
 7287TIP3   OH221801   5.457   3.439   5.895
 7287TIP3    H121802   5.477   3.530   5.916
 7287TIP3    H221803   5.381   3.444   5.837
 7288TIP3   OH221804   4.131   5.038   5.495
 7288TIP3    H121805   4.177   5.063   5.415
 7288TIP3    H221806   4.039   5.031   5.469
 7289TIP3   OH221807   6.267   4.654   6.691
 7289TIP3    H121808   6.362   4.663   6.680
 7289TIP3    H221809   6.244   4.722   6.754
 7290TIP3   OH221810   2.944   7.398   3.771
 7290TIP3    H121811   3.015   7.402   3.835
 7290TIP3    H221812   2.944   7.484   3.729
 7291TIP3   OH221813   6.120   6.026   0.889
 7291TIP3    H121814   6.180   5.955   0.865
 7291TIP3    H221815   6.173   6.086   0.941
 7292TIP3   OH221816   5.542   7.668   4.870
 7292TIP3    H121817   5.624   7.647   4.825
 7292TIP3    H221818   5.508   7.745   4.824
 7293TIP3   OH221819   3.518   1.894   4.121
 7293TIP3    H121820   3.597   1.844   4.142
 7293TIP3    H221821   3.495   1.938   4.202
 7294TIP3   OH221822   0.485   4.713   2.526
 7294TIP3    H121823   0.404   4.723   2.576
 7294TIP3    H221824   0.552   4.695   2.592
 7295TIP3   OH221825   5.114   2.620   5.358
 7295TIP3    H121826   5.159   2.666   5.286
 7295TIP3    H221827   5.026   2.605   5.325
 7296TIP3   OH221828   4.737   2.081   5.873
 7296TIP3    H121829   4.662   2.050   5.822
 7296TIP3    H221830   4.812   2.067   5.815
 7297TIP3   OH221831   8.144   2.696   4.003
 7297TIP3    H121832   8.168   2.614   4.047
 7297TIP3    H221833   8.203   2.700   3.927
 7298TIP3   OH221834   8.283   1.617   3.622
 7298TIP3    H121835   8.229   1.556   3.572
 7298TIP3    H221836   8.235   1.699   3.621
 7299TIP3   OH221837   4.409   4.805   3.256
 7299TIP3    H121838   4.433   4.714   3.239
 7299TIP3    H221839   4.490   4.846   3.288
 7300TIP3   OH221840   2.820   1.184   1.670
 7300TIP3    H121841   2.857   1.096   1.673
 7300TIP3    H221842   2.725   1.171   1.681
 7301TIP3   OH221843   7.006   3.981   3.191
 7301TIP3    H121844   6.929   3.949   3.238
 7301TIP3    H221845   7.053   4.035   3.255
 7302TIP3   OH221846   1.919   5.030   5.737
 7302TIP3    H121847   1.867   5.040   5.817
 7302TIP3    H221848   1.862   5.059   5.666
 7303TIP3   OH221849   5.507   7.026   3.341
 7303TIP3    H121850   5.499   7.052   3.432
 7303TIP3    H221851   5.556   6.944   3.343
 7304TIP3   OH221852   2.161   3.148   1.053
 7304TIP3    H121853   2.105   3.116   1.124
 7304TIP3    H221854   2.110   3.218   1.013
 7305TIP3   OH221855   4.441   2.319   2.967
 7305TIP3    H121856   4.530   2.354   2.965
 7305TIP3    H221857   4.416   2.324   3.060
 7306TIP3   OH221858   4.056   5.753   5.124
 7306TIP3    H121859   4.092   5.757   5.213
 7306TIP3    H221860   4.130   5.727   5.069
 7307TIP3   OH221861   8.174   2.505   6.425
 7307TIP3    H121862   8.147   2.553   6.347
 7307TIP3    H221863   8.173   2.570   6.495
 7308TIP3   OH221864   6.833   0.886   1.013
 7308TIP3    H121865   6.738   0.895   1.002
 7308TIP3    H221866   6.868   0.911   0.927
 7309TIP3   OH221867   2.653   5.352   3.357
 7309TIP3    H121868   2.691   5.324   3.273
 7309TIP3    H221869   2.572   5.301   3.364
 7310TIP3   OH221870   7.202   5.474   6.578
 7310TIP3    H121871   7.296   5.454   6.582
 7310TIP3    H221872   7.161   5.390   6.557
 7311TIP3   OH221873   5.940   7.908   0.503
 7311TIP3    H121874   5.861   7.875   0.461
 7311TIP3    H221875   5.933   8.003   0.495
 7312TIP3   OH221876   2.446   1.178   4.472
 7312TIP3    H121877   2.460   1.185   4.566
 7312TIP3    H221878   2.522   1.130   4.439
 7313TIP3   OH221879   0.624   2.174   5.017
 7313TIP3    H121880   0.575   2.098   5.048
 7313TIP3    H221881   0.659   2.213   5.097
 7314TIP3   OH221882   3.768   0.116   0.931
 7314TIP3    H121883   3.763   0.075   1.017
 7314TIP3    H221884   3.721   0.199   0.942
 7315TIP3   OH221885   2.572   4.464   3.934
 7315TIP3    H121886   2.622   4.398   3.884
 7315TIP3    H221887   2.503   4.492   3.875
 7316TIP3   OH221888   1.072   3.954   1.749
 7316TIP3    H121889   1.041   3.896   1.679
 7316TIP3    H221890   1.015   4.031   1.742
 7317TIP3   OH221891   6.592   3.727   4.375
 7317TIP3    H121892   6.581   3.813   4.334
 7317TIP3    H221893   6.512   3.713   4.425
 7318TIP3   OH221894   2.988   6.015   5.775
 7318TIP3    H121895   2.940   6.080   5.724
 7318TIP3    H221896   3.006   5.944   5.712
 7319TIP3   OH221897   1.498   1.141   4.623
 7319TIP3    H121898   1.582   1.109   4.656
 7319TIP3    H221899   1.446   1.062   4.611
 7320TIP3   OH221900   8.203   1.990   4.497
 7320TIP3    H121901   8.172   2.020   4.412
 7320TIP3    H221902   8.135   1.930   4.528
 7321TIP3   OH221903   0.898   0.387   1.052
 7321TIP3    H121904   0.854   0.316   1.004
 7321TIP3    H221905   0.942   0.343   1.125
 7322TIP3   OH221906   6.159   7.794   2.832
 7322TIP3    H121907   6.098   7.785   2.905
 7322TIP3    H221908   6.199   7.708   2.822
 7323TIP3   OH221909   8.034   2.722   1.444
 7323TIP3    H121910   8.127   2.700   1.453
 7323TIP3    H221911   8.033   2.796   1.384
 7324TIP3   OH221912   0.388   4.003   6.460
 7324TIP3    H121913   0.466   4.052   6.437
 7324TIP3    H221914   0.397   3.920   6.413
 7325TIP3   OH221915   0.709   7.234   1.248
 7325TIP3    H121916   0.630   7.277   1.215
 7325TIP3    H221917   0.681   7.147   1.275
 7326TIP3   OH221918   1.937   0.486   5.096
 7326TIP3    H121919   2.006   0.553   5.096
 7326TIP3    H221920   1.965   0.423   5.163
 7327TIP3   OH221921   5.202   2.754   5.145
 7327TIP3    H121922   5.130   2.764   5.083
 7327TIP3    H221923   5.269   2.705   5.096
 7328TIP3   OH221924   4.138   1.875   3.337
 7328TIP3    H121925   4.072   1.808   3.356
 7328TIP3    H221926   4.196   1.833   3.273
 7329TIP3   OH221927   3.849   2.842   2.240
 7329TIP3    H121928   3.927   2.850   2.296
 7329TIP3    H221929   3.776   2.844   2.301
 7330TIP3   OH221930   2.133   4.691   5.239
 7330TIP3    H121931   2.086   4.689   5.322
 7330TIP3    H221932   2.079   4.639   5.179
 7331TIP3   OH221933   4.916   1.990   2.472
 7331TIP3    H121934   4.885   2.077   2.449
 7331TIP3    H221935   4.842   1.949   2.516
 7332TIP3   OH221936   8.004   7.564   6.359
 7332TIP3    H121937   7.914   7.532   6.350
 7332TIP3    H221938   8.053   7.516   6.292
 7333TIP3   OH221939   0.854   6.827   2.667
 7333TIP3    H121940   0.823   6.813   2.757
 7333TIP3    H221941   0.880   6.919   2.665
 7334TIP3   OH221942   7.190   3.836   6.106
 7334TIP3    H121943   7.193   3.752   6.152
 7334TIP3    H221944   7.101   3.842   6.074
 7335TIP3   OH221945   0.537   4.466   1.188
 7335TIP3    H121946   0.611   4.420   1.228
 7335TIP3    H221947   0.566   4.556   1.180
 7336TIP3   OH221948   2.063   4.267   2.934
 7336TIP3    H121949   1.985   4.321   2.942
 7336TIP3    H221950   2.064   4.240   2.842
 7337TIP3   OH221951   1.653   5.637   6.750
 7337TIP3    H121952   1.695   5.676   6.673
 7337TIP3    H221953   1.701   5.673   6.824
 7338TIP3   OH221954   0.059   6.791   0.431
 7338TIP3    H121955   0.003   6.843   0.373
 7338TIP3    H221956   0.111   6.856   0.478
 7339TIP3   OH221957   8.084   4.119   0.499
 7339TIP3    H121958   8.053   4.124   0.409
 7339TIP3    H221959   8.036   4.188   0.544
 7340TIP3   OH221960   4.695   7.596   3.846
 7340TIP3    H121961   4.645   7.660   3.796
 7340TIP3    H221962   4.695   7.518   3.792
 7341TIP3   OH221963   4.186   2.060   1.894
 7341TIP3    H121964   4.183   1.985   1.834
 7341TIP3    H221965   4.203   2.022   1.980
 7342TIP3   OH221966   5.096   0.422   5.454
 7342TIP3    H121967   5.067   0.434   5.545
 7342TIP3    H221968   5.190   0.407   5.460
 7343TIP3   OH221969   2.569   0.884   3.498
 7343TIP3    H121970   2.493   0.828   3.481
 7343TIP3    H221971   2.594   0.865   3.588
 7344TIP3   OH221972   7.575   1.833   2.831
 7344TIP3    H121973   7.633   1.823   2.755
 7344TIP3    H221974   7.597   1.758   2.887
 7345TIP3   OH221975   3.324   2.131   3.994
 7345TIP3    H121976   3.400   2.072   3.996
 7345TIP3    H221977   3.350   2.201   3.933
 7346TIP3   OH221978   7.077   7.420   6.551
 7346TIP3    H121979   7.107   7.329   6.551
 7346TIP3    H221980   7.157   7.471   6.568
 7347TIP3   OH221981   2.583   2.220   2.858
 7347TIP3    H121982   2.504   2.273   2.870
 7347TIP3    H221983   2.576   2.151   2.923
 7348TIP3   OH221984   1.965   0.719   3.211
 7348TIP3    H121985   1.912   0.773   3.153
 7348TIP3    H221986   2.025   0.673   3.153
 7349TIP3   OH221987   3.506   7.439   1.929
 7349TIP3    H121988   3.462   7.471   1.851
 7349TIP3    H221989   3.483   7.503   1.997
 7350TIP3   OH221990   5.236   7.280   5.024
 7350TIP3    H121991   5.142   7.295   5.014
 7350TIP3    H221992   5.276   7.362   4.996
 7351TIP3   OH221993   7.471   2.787   2.895
 7351TIP3    H121994   7.418   2.809   2.972
 7351TIP3    H221995   7.557   2.766   2.930
 7352TIP3   OH221996   4.786   4.493   2.767
 7352TIP3    H121997   4.857   4.429   2.765
 7352TIP3    H221998   4.706   4.439   2.766
 7353TIP3   OH221999   0.020   1.246   5.581
 7353TIP3    H122000   0.026   1.151   5.577
 7353TIP3    H222001  -0.074   1.264   5.581
 7354TIP3   OH222002   0.437   5.087   6.280
 7354TIP3    H122003   0.520   5.075   6.233
 7354TIP3    H222004   0.399   5.166   6.243
 7355TIP3   OH222005   3.701   4.122   0.512
 7355TIP3    H122006   3.648   4.136   0.590
 7355TIP3    H222007   3.663   4.045   0.471
 7356TIP3   OH222008   1.150   7.086   5.033
 7356TIP3    H122009   1.065   7.122   5.060
 7356TIP3    H222010   1.189   7.155   4.979
 7357TIP3   OH222011   1.831   4.428   2.974
 7357TIP3    H122012   1.828   4.507   2.920
 7357TIP3    H222013   1.740   4.411   2.998
 7358TIP3   OH222014   1.325   1.044   5.998
 7358TIP3    H122015   1.420   1.047   5.993
 7358TIP3    H222016   1.306   1.006   6.084
 7359TIP3   OH222017   5.058   2.196   6.585
 7359TIP3    H122018   5.077   2.104   6.568
 7359TIP3    H222019   5.097   2.242   6.511
 7360TIP3   OH222020   6.771   3.734   3.972
 7360TIP3    H122021   6.694   3.688   4.007
 7360TIP3    H222022   6.738   3.781   3.896
 7361TIP3   OH222023   1.704   2.547   4.349
 7361TIP3    H122024   1.681   2.482   4.283
 7361TIP3    H222025   1.784   2.512   4.389
 7362TIP3   OH222026   1.670   7.596   2.541
 7362TIP3    H122027   1.594   7.556   2.497
 7362TIP3    H222028   1.660   7.571   2.633
 7363TIP3   OH222029   7.788   4.071   4.614
 7363TIP3    H122030   7.724   4.131   4.653
 7363TIP3    H222031   7.832   4.031   4.689
 7364TIP3   OH222032   1.592   4.927   6.503
 7364TIP3    H122033   1.512   4.956   6.460
 7364TIP3    H222034   1.583   4.832   6.510
 7365TIP3   OH222035   1.280   2.699   3.844
 7365TIP3    H122036   1.280   2.778   3.791
 7365TIP3    H222037   1.357   2.650   3.814
 7366TIP3   OH222038   2.491   4.538   4.244
 7366TIP3    H122039   2.456   4.507   4.161
 7366TIP3    H222040   2.565   4.594   4.219
 7367TIP3   OH222041   7.840   0.864   3.741
 7367TIP3    H122042   7.776   0.928   3.770
 7367TIP3    H222043   7.914   0.917   3.710
 7368TIP3   OH222044   3.050   2.406   4.561
 7368TIP3    H122045   3.028   2.359   4.481
 7368TIP3    H222046   3.140   2.380   4.580
 7369TIP3   OH222047   2.921   6.821   1.323
 7369TIP3    H122048   2.899   6.897   1.377
 7369TIP3    H222049   2.985   6.854   1.260
 7370TIP3   OH222050   1.516   5.108   0.736
 7370TIP3    H122051   1.435   5.158   0.729
 7370TIP3    H222052   1.492   5.032   0.790
 7371TIP3   OH222053   0.111   3.796   4.049
 7371TIP3    H122054   0.095   3.871   4.106
 7371TIP3    H222055   0.092   3.829   3.961
 7372TIP3   OH222056   1.148   6.210   1.566
 7372TIP3    H122057   1.100   6.199   1.483
 7372TIP3    H222058   1.240   6.209   1.540
 7373TIP3   OH222059   2.872   4.818   0.599
 7373TIP3    H122060   2.823   4.899   0.607
 7373TIP3    H222061   2.883   4.787   0.689
 7374TIP3   OH222062   6.912   2.127   2.935
 7374TIP3    H122063   6.875   2.178   3.007
 7374TIP3    H222064   7.001   2.106   2.963
 7375TIP3   OH222065   3.395   6.562   6.262
 7375TIP3    H122066   3.426   6.652   6.248
 7375TIP3    H222067   3.384   6.555   6.357
 7376TIP3   OH222068   6.820   2.819   1.284
 7376TIP3    H122069   6.734   2.822   1.324
 7376TIP3    H222070   6.803   2.805   1.191
 7377TIP3   OH222071   4.535   7.694   3.597
 7377TIP3    H122072   4.623   7.729   3.587
 7377TIP3    H222073   4.478   7.760   3.558
 7378TIP3   OH222074   2.935   7.043   1.458
 7378TIP3    H122075   2.981   7.117   1.417
 7378TIP3    H222076   2.907   7.077   1.543
 7379TIP3   OH222077   4.680   0.586   1.064
 7379TIP3    H122078   4.711   0.498   1.085
 7379TIP3    H222079   4.624   0.574   0.987
 7380TIP3   OH222080   3.136   4.285  -0.012
 7380TIP3    H122081   3.122   4.307   0.081
 7380TIP3    H222082   3.216   4.232  -0.012
 7381TIP3   OH222083   0.870   4.940   2.588
 7381TIP3    H122084   0.840   4.909   2.673
 7381TIP3    H222085   0.792   4.937   2.533
 7382TIP3   OH222086   6.026   7.611   3.712
 7382TIP3    H122087   5.979   7.551   3.770
 7382TIP3    H222088   6.007   7.579   3.624
 7383TIP3   OH222089   6.083   2.625   6.899
 7383TIP3    H122090   5.992   2.646   6.877
 7383TIP3    H222091   6.093   2.533   6.877
 7384TIP3   OH222092   4.317   5.247   4.349
 7384TIP3    H122093   4.307   5.164   4.395
 7384TIP3    H222094   4.388   5.292   4.395
 7385TIP3   OH222095   0.173   6.444   6.001
 7385TIP3    H122096   0.250   6.478   6.046
 7385TIP3    H222097   0.156   6.506   5.931
 7386TIP3   OH222098   5.690   4.330   3.154
 7386TIP3    H122099   5.639   4.255   3.124
 7386TIP3    H222100   5.680   4.329   3.250
 7387TIP3   OH222101   5.991   7.410   2.910
 7387TIP3    H122102   6.075   7.454   2.920
 7387TIP3    H222103   6.004   7.323   2.948
 7388TIP3   OH222104   2.802   0.968   6.538
 7388TIP3    H122105   2.829   0.983   6.448
 7388TIP3    H222106   2.882   0.979   6.589
 7389TIP3   OH222107   1.727   5.629   1.419
 7389TIP3    H122108   1.729   5.723   1.438
 7389TIP3    H222109   1.635   5.610   1.401
 7390TIP3   OH222110   8.156   1.404   6.165
 7390TIP3    H122111   8.211   1.381   6.091
 7390TIP3    H222112   8.216   1.440   6.230
 7391TIP3   OH222113   6.542   1.415   3.304
 7391TIP3    H122114   6.501   1.369   3.377
 7391TIP3    H222115   6.510   1.369   3.226
 7392TIP3   OH222116   7.288   4.702   4.756
 7392TIP3    H122117   7.310   4.743   4.840
 7392TIP3    H222118   7.207   4.654   4.772
 7393TIP3   OH222119   7.896   2.646   5.349
 7393TIP3    H122120   7.954   2.572   5.360
 7393TIP3    H222121   7.862   2.637   5.260
 7394TIP3   OH222122   1.369   2.828   3.034
 7394TIP3    H122123   1.281   2.808   3.069
 7394TIP3    H222124   1.355   2.902   2.976
 7395TIP3   OH222125   2.847   0.097   2.041
 7395TIP3    H122126   2.822   0.190   2.039
 7395TIP3    H222127   2.900   0.089   2.120
 7396TIP3   OH222128   6.463   6.917   3.924
 7396TIP3    H122129   6.420   6.833   3.940
 7396TIP3    H222130   6.441   6.970   4.000
 7397TIP3   OH222131   4.638   7.568   4.120
 7397TIP3    H122132   4.636   7.548   4.027
 7397TIP3    H222133   4.587   7.648   4.129
 7398TIP3   OH222134   6.659   1.369   2.207
 7398TIP3    H122135   6.682   1.436   2.272
 7398TIP3    H222136   6.585   1.323   2.245
 7399TIP3   OH222137   0.286   2.423   5.000
 7399TIP3    H122138   0.362   2.397   4.947
 7399TIP3    H222139   0.271   2.515   4.976
 7400TIP3   OH222140   5.075   3.265   4.859
 7400TIP3    H122141   5.116   3.338   4.812
 7400TIP3    H222142   5.120   3.187   4.827
 7401TIP3   OH222143   1.813   1.072   3.670
 7401TIP3    H122144   1.810   0.998   3.730
 7401TIP3    H222145   1.890   1.122   3.697
 7402TIP3   OH222146   6.337   4.039   1.168
 7402TIP3    H122147   6.299   4.091   1.097
 7402TIP3    H222148   6.277   4.052   1.241
 7403TIP3   OH222149   5.183   0.482   5.730
 7403TIP3    H122150   5.149   0.507   5.816
 7403TIP3    H222151   5.263   0.532   5.720
 7404TIP3   OH222152   6.924   0.330   0.107
 7404TIP3    H122153   6.956   0.286   0.028
 7404TIP3    H222154   6.996   0.325   0.169
 7405TIP3   OH222155   6.004   4.218   1.237
 7405TIP3    H122156   6.015   4.261   1.152
 7405TIP3    H222157   5.996   4.125   1.216
 7406TIP3   OH222158   1.209   0.628   2.728
 7406TIP3    H122159   1.259   0.564   2.779
 7406TIP3    H222160   1.265   0.706   2.727
 7407TIP3   OH222161   4.617   3.188   3.767
 7407TIP3    H122162   4.639   3.191   3.860
 7407TIP3    H222163   4.632   3.277   3.736
 7408TIP3   OH222164   3.935   5.843   4.387
 7408TIP3    H122165   3.859   5.816   4.336
 7408TIP3    H222166   3.951   5.934   4.362
 7409TIP3   OH222167   4.121   5.065   2.516
 7409TIP3    H122168   4.070   5.040   2.439
 7409TIP3    H222169   4.083   5.148   2.544
 7410TIP3   OH222170   2.780   6.132   1.437
 7410TIP3    H122171   2.840   6.134   1.362
 7410TIP3    H222172   2.810   6.058   1.490
 7411TIP3   OH222173   0.772   5.338   2.111
 7411TIP3    H122174   0.799   5.270   2.173
 7411TIP3    H222175   0.824   5.415   2.135
 7412TIP3   OH222176   4.475   0.307   4.863
 7412TIP3    H122177   4.500   0.394   4.832
 7412TIP3    H222178   4.457   0.319   4.956
 7413TIP3   OH222179   6.600   2.657   0.092
 7413TIP3    H122180   6.629   2.650   0.183
 7413TIP3    H222181   6.675   2.630   0.040
 7414TIP3   OH222182   3.404   6.899   1.779
 7414TIP3    H122183   3.439   6.810   1.782
 7414TIP3    H222184   3.333   6.895   1.715
 7415TIP3   OH222185   6.763   2.281   5.818
 7415TIP3    H122186   6.809   2.217   5.872
 7415TIP3    H222187   6.816   2.288   5.738
 7416TIP3   OH222188   5.994   0.567   3.849
 7416TIP3    H122189   5.991   0.641   3.910
 7416TIP3    H222190   5.914   0.518   3.866
 7417TIP3   OH222191   5.898   5.472   1.257
 7417TIP3    H122192   5.887   5.564   1.230
 7417TIP3    H222193   5.809   5.440   1.266
 7418TIP3   OH222194   1.567   0.984   3.943
 7418TIP3    H122195   1.641   0.948   3.895
 7418TIP3    H222196   1.530   1.051   3.884
 7419TIP3   OH222197   2.900   4.531   0.575
 7419TIP3    H122198   2.979   4.500   0.619
 7419TIP3    H222199   2.904   4.626   0.581
 7420TIP3   OH222200   5.793   5.407   5.796
 7420TIP3    H122201   5.823   5.407   5.886
 7420TIP3    H222202   5.722   5.471   5.794
 7421TIP3   OH222203   6.180   4.995   4.588
 7421TIP3    H122204   6.184   5.004   4.493
 7421TIP3    H222205   6.241   5.061   4.620
 7422TIP3   OH222206   2.639   7.595   6.388
 7422TIP3    H122207   2.605   7.646   6.315
 7422TIP3    H222208   2.689   7.525   6.347
 7423TIP3   OH222209   1.526   0.878   0.877
 7423TIP3    H122210   1.604   0.932   0.891
 7423TIP3    H222211   1.455   0.942   0.868
 7424TIP3   OH222212   5.150   6.460   6.718
 7424TIP3    H122213   5.224   6.456   6.778
 7424TIP3    H222214   5.099   6.382   6.736
 7425TIP3   OH222215   1.412   0.286   2.595
 7425TIP3    H122216   1.496   0.331   2.586
 7425TIP3    H222217   1.429   0.214   2.655
 7426TIP3   OH222218   7.459   1.365   6.492
 7426TIP3    H122219   7.412   1.301   6.439
 7426TIP3    H222220   7.492   1.314   6.566
 7427TIP3   OH222221   2.446   2.853   3.531
 7427TIP3    H122222   2.535   2.834   3.560
 7427TIP3    H222223   2.390   2.811   3.596
 7428TIP3   OH222224   2.702   2.099   4.992
 7428TIP3    H122225   2.797   2.106   4.994
 7428TIP3    H222226   2.681   2.065   4.906
 7429TIP3   OH222227   5.510   3.632   6.634
 7429TIP3    H122228   5.521   3.563   6.700
 7429TIP3    H222229   5.496   3.585   6.552
 7430TIP3   OH222230   8.208   3.846   3.558
 7430TIP3    H122231   8.284   3.890   3.595
 7430TIP3    H222232   8.190   3.774   3.619
 7431TIP3   OH222233   7.285   6.766   2.411
 7431TIP3    H122234   7.366   6.742   2.366
 7431TIP3    H222235   7.283   6.711   2.489
 7432TIP3   OH222236   4.748   2.695   0.321
 7432TIP3    H122237   4.828   2.643   0.323
 7432TIP3    H222238   4.696   2.662   0.395
 7433TIP3   OH222239   0.470   4.821   0.337
 7433TIP3    H122240   0.438   4.734   0.361
 7433TIP3    H222241   0.503   4.810   0.247
 7434TIP3   OH222242   3.706   6.621   1.873
 7434TIP3    H122243   3.703   6.665   1.958
 7434TIP3    H222244   3.772   6.669   1.823
 7435TIP3   OH222245   4.861   0.103   1.617
 7435TIP3    H122246   4.905   0.080   1.535
 7435TIP3    H222247   4.925   0.082   1.685
 7436TIP3   OH222248   4.575   3.488   2.033
 7436TIP3    H122249   4.489   3.517   2.064
 7436TIP3    H222250   4.637   3.527   2.095
 7437TIP3   OH222251   3.757   5.375   4.083
 7437TIP3    H122252   3.710   5.367   4.166
 7437TIP3    H222253   3.790   5.287   4.065
 7438TIP3   OH222254   1.966   5.594   2.871
 7438TIP3    H122255   1.924   5.589   2.785
 7438TIP3    H222256   1.899   5.632   2.928
 7439TIP3   OH222257   4.357   4.011   3.128
 7439TIP3    H122258   4.323   4.059   3.204
 7439TIP3    H222259   4.295   4.031   3.058
 7440TIP3   OH222260   2.423   7.804   6.432
 7440TIP3    H122261   2.505   7.757   6.417
 7440TIP3    H222262   2.364   7.769   6.365
 7441TIP3   OH222263   0.488   7.746   1.894
 7441TIP3    H122264   0.485   7.747   1.989
 7441TIP3    H222265   0.424   7.813   1.867
 7442TIP3   OH222266   7.298   6.508   1.994
 7442TIP3    H122267   7.383   6.497   1.951
 7442TIP3    H222268   7.313   6.482   2.085
 7443TIP3   OH222269   1.498   0.995   4.232
 7443TIP3    H122270   1.408   0.967   4.246
 7443TIP3    H222271   1.507   1.003   4.138
 7444TIP3   OH222272   0.471   5.715   0.075
 7444TIP3    H122273   0.466   5.804   0.038
 7444TIP3    H222274   0.509   5.663   0.004
 7445TIP3   OH222275   6.151   3.674   0.211
 7445TIP3    H122276   6.214   3.742   0.234
 7445TIP3    H222277   6.091   3.717   0.150
 7446TIP3   OH222278   6.866   4.679   0.740
 7446TIP3    H122279   6.915   4.759   0.760
 7446TIP3    H222280   6.789   4.709   0.692
 7447TIP3   OH222281   0.502   1.359   4.850
 7447TIP3    H122282   0.503   1.455   4.849
 7447TIP3    H222283   0.517   1.335   4.758
 7448TIP3   OH222284   7.234   3.535   6.401
 7448TIP3    H122285   7.311   3.509   6.350
 7448TIP3    H222286   7.171   3.465   6.386
 7449TIP3   OH222287   2.659   7.514   0.375
 7449TIP3    H122288   2.628   7.565   0.301
 7449TIP3    H222289   2.620   7.557   0.452
 7450TIP3   OH222290   1.382   1.460   4.051
 7450TIP3    H122291   1.446   1.415   4.106
 7450TIP3    H222292   1.408   1.552   4.053
 7451TIP3   OH222293   0.345   0.309   5.414
 7451TIP3    H122294   0.346   0.287   5.507
 7451TIP3    H222295   0.425   0.360   5.401
 7452TIP3   OH222296   4.962   7.587   3.751
 7452TIP3    H122297   4.960   7.491   3.748
 7452TIP3    H222298   4.870   7.613   3.741
 7453TIP3   OH222299   0.036   7.182   6.348
 7453TIP3    H122300   0.084   7.125   6.289
 7453TIP3    H222301   0.034   7.267   6.303
 7454TIP3   OH222302   1.822   0.470   5.670
 7454TIP3    H122303   1.806   0.562   5.691
 7454TIP3    H222304   1.916   0.466   5.651
 7455TIP3   OH222305   8.333   3.150   3.204
 7455TIP3    H122306   8.402   3.083   3.208
 7455TIP3    H222307   8.351   3.197   3.123
 7456TIP3   OH222308   3.199   7.447   3.905
 7456TIP3    H122309   3.206   7.366   3.955
 7456TIP3    H222310   3.249   7.430   3.825
 7457TIP3   OH222311   1.018   6.435   2.244
 7457TIP3    H122312   1.056   6.517   2.212
 7457TIP3    H222313   1.066   6.417   2.325
 7458TIP3   OH222314   0.308   2.302   2.751
 7458TIP3    H122315   0.238   2.323   2.813
 7458TIP3    H222316   0.270   2.320   2.665
 7459TIP3   OH222317   6.548   2.059   5.551
 7459TIP3    H122318   6.631   2.035   5.509
 7459TIP3    H222319   6.540   2.154   5.536
 7460TIP3   OH222320   1.757   5.984   5.707
 7460TIP3    H122321   1.683   5.970   5.766
 7460TIP3    H222322   1.833   5.953   5.756
 7461TIP3   OH222323   3.350   2.384   5.255
 7461TIP3    H122324   3.344   2.470   5.296
 7461TIP3    H222325   3.259   2.353   5.252
 7462TIP3   OH222326   4.092   4.410   4.193
 7462TIP3    H122327   4.181   4.401   4.226
 7462TIP3    H222328   4.101   4.460   4.112
 7463TIP3   OH222329   1.955   0.469   6.141
 7463TIP3    H122330   1.944   0.538   6.077
 7463TIP3    H222331   1.910   0.393   6.104
 7464TIP3   OH222332   1.192   5.687   4.801
 7464TIP3    H122333   1.256   5.747   4.840
 7464TIP3    H222334   1.230   5.600   4.811
 7465TIP3   OH222335   8.421   0.848   4.471
 7465TIP3    H122336   8.382   0.859   4.558
 7465TIP3    H222337   8.483   0.920   4.463
 7466TIP3   OH222338   5.009   6.283   2.593
 7466TIP3    H122339   5.101   6.259   2.602
 7466TIP3    H222340   4.968   6.249   2.672
 7467TIP3   OH222341   3.614   1.711   6.266
 7467TIP3    H122342   3.530   1.737   6.306
 7467TIP3    H222343   3.680   1.745   6.327
 7468TIP3   OH222344   4.296   6.717   1.205
 7468TIP3    H122345   4.226   6.684   1.261
 7468TIP3    H222346   4.256   6.789   1.157
 7469TIP3   OH222347   7.236   6.946   3.697
 7469TIP3    H122348   7.304   7.008   3.721
 7469TIP3    H222349   7.155   6.998   3.697
 7470TIP3   OH222350   6.761   6.111   6.391
 7470TIP3    H122351   6.842   6.060   6.386
 7470TIP3    H222352   6.763   6.166   6.313
 7471TIP3   OH222353   7.272   3.131   1.821
 7471TIP3    H122354   7.252   3.174   1.737
 7471TIP3    H222355   7.344   3.183   1.857
 7472TIP3   OH222356   7.521   1.904   4.539
 7472TIP3    H122357   7.485   1.949   4.462
 7472TIP3    H222358   7.615   1.900   4.523
 7473TIP3   OH222359   6.515   0.541   5.943
 7473TIP3    H122360   6.448   0.555   5.877
 7473TIP3    H222361   6.467   0.531   6.025
 7474TIP3   OH222362   5.915   6.599   2.159
 7474TIP3    H122363   5.820   6.587   2.166
 7474TIP3    H222364   5.943   6.625   2.247
 7475TIP3   OH222365   1.779   5.223   6.198
 7475TIP3    H122366   1.717   5.154   6.172
 7475TIP3    H222367   1.723   5.293   6.232
 7476TIP3   OH222368   7.875   6.599   1.172
 7476TIP3    H122369   7.863   6.616   1.079
 7476TIP3    H222370   7.920   6.677   1.205
 7477TIP3   OH222371   3.664   5.492   2.507
 7477TIP3    H122372   3.584   5.509   2.558
 7477TIP3    H222373   3.661   5.398   2.488
 7478TIP3   OH222374   0.913   6.275   0.734
 7478TIP3    H122375   0.821   6.291   0.756
 7478TIP3    H222376   0.913   6.192   0.688
 7479TIP3   OH222377   3.371   6.781   5.603
 7479TIP3    H122378   3.301   6.730   5.562
 7479TIP3    H222379   3.415   6.720   5.661
 7480TIP3   OH222380   5.789   4.919   1.522
 7480TIP3    H122381   5.818   4.844   1.471
 7480TIP3    H222382   5.771   4.987   1.457
 7481TIP3   OH222383   7.361   2.108   2.236
 7481TIP3    H122384   7.384   2.165   2.162
 7481TIP3    H222385   7.321   2.166   2.300
 7482TIP3   OH222386   0.666   7.256   4.986
 7482TIP3    H122387   0.660   7.286   5.077
 7482TIP3    H222388   0.592   7.195   4.976
 7483TIP3   OH222389   0.611   6.453   2.804
 7483TIP3    H122390   0.593   6.366   2.842
 7483TIP3    H222391   0.669   6.435   2.730
 7484TIP3   OH222392   7.562   3.230   4.556
 7484TIP3    H122393   7.587   3.154   4.503
 7484TIP3    H222394   7.524   3.291   4.494
 7485TIP3   OH222395   2.634   1.733   1.072
 7485TIP3    H122396   2.622   1.796   1.001
 7485TIP3    H222397   2.617   1.783   1.151
 7486TIP3   OH222398   4.322   5.134   1.596
 7486TIP3    H122399   4.402   5.086   1.577
 7486TIP3    H222400   4.286   5.157   1.510
 7487TIP3   OH222401   7.104   5.823   2.440
 7487TIP3    H122402   7.177   5.827   2.502
 7487TIP3    H222403   7.146   5.816   2.354
 7488TIP3   OH222404   5.182   3.859   1.596
 7488TIP3    H122405   5.125   3.844   1.672
 7488TIP3    H222406   5.148   3.800   1.529
 7489TIP3   OH222407   8.041   2.038   2.240
 7489TIP3    H122408   8.041   2.061   2.147
 7489TIP3    H222409   7.956   1.999   2.255
 7490TIP3   OH222410   7.609   2.816   2.344
 7490TIP3    H122411   7.583   2.837   2.254
 7490TIP3    H222412   7.702   2.839   2.347
 7491TIP3   OH222413   6.713  -0.031   0.963
 7491TIP3    H122414   6.776  -0.014   1.033
 7491TIP3    H222415   6.739   0.028   0.892
 7492TIP3   OH222416   6.234   4.730   4.331
 7492TIP3    H122417   6.311   4.693   4.375
 7492TIP3    H222418   6.232   4.686   4.246
 7493TIP3   OH222419   4.781   0.845   2.504
 7493TIP3    H122420   4.842   0.916   2.526
 7493TIP3    H222421   4.820   0.802   2.428
 7494TIP3   OH222422   1.417   3.486   5.567
 7494TIP3    H122423   1.413   3.568   5.616
 7494TIP3    H222424   1.497   3.493   5.515
 7495TIP3   OH222425   0.222   1.651   4.146
 7495TIP3    H122426   0.276   1.721   4.182
 7495TIP3    H222427   0.280   1.602   4.089
 7496TIP3   OH222428   6.068   0.659   1.321
 7496TIP3    H122429   6.033   0.724   1.260
 7496TIP3    H222430   6.087   0.709   1.401
 7497TIP3   OH222431   2.134   2.115   4.792
 7497TIP3    H122432   2.096   2.202   4.782
 7497TIP3    H222433   2.180   2.119   4.876
 7498TIP3   OH222434   2.421   6.384   0.423
 7498TIP3    H122435   2.432   6.290   0.411
 7498TIP3    H222436   2.326   6.396   0.430
 7499TIP3   OH222437   3.463   1.718   2.060
 7499TIP3    H122438   3.510   1.687   1.983
 7499TIP3    H222439   3.430   1.804   2.034
 7500TIP3   OH222440   4.340   5.404   0.300
 7500TIP3    H122441   4.266   5.442   0.253
 7500TIP3    H222442   4.415   5.457   0.275
 7501TIP3   OH222443   2.028   2.467   6.534
 7501TIP3    H122444   1.963   2.414   6.488
 7501TIP3    H222445   2.082   2.504   6.464
 7502TIP3   OH222446   7.254   2.032   4.445
 7502TIP3    H122447   7.249   1.940   4.470
 7502TIP3    H222448   7.175   2.047   4.393
 7503TIP3   OH222449   8.288   5.425   3.926
 7503TIP3    H122450   8.251   5.490   3.985
 7503TIP3    H222451   8.373   5.460   3.902
 7504TIP3   OH222452   7.569   2.691   0.667
 7504TIP3    H122453   7.523   2.697   0.583
 7504TIP3    H222454   7.528   2.758   0.722
 7505TIP3   OH222455   5.476   5.199   1.273
 7505TIP3    H122456   5.464   5.248   1.355
 7505TIP3    H222457   5.403   5.136   1.272
 7506TIP3   OH222458   5.977   2.470   0.446
 7506TIP3    H122459   6.014   2.384   0.426
 7506TIP3    H222460   5.903   2.451   0.503
 7507TIP3   OH222461   4.133   3.936   4.296
 7507TIP3    H122462   4.208   3.893   4.254
 7507TIP3    H222463   4.068   3.945   4.227
 7508TIP3   OH222464   6.136   4.747   4.956
 7508TIP3    H122465   6.124   4.723   4.865
 7508TIP3    H222466   6.115   4.668   5.006
 7509TIP3   OH222467   8.386   5.316   3.394
 7509TIP3    H122468   8.326   5.388   3.414
 7509TIP3    H222469   8.424   5.339   3.309
 7510TIP3   OH222470   7.803   4.989   5.847
 7510TIP3    H122471   7.744   4.917   5.870
 7510TIP3    H222472   7.860   4.952   5.779
 7511TIP3   OH222473   0.171   5.847   4.965
 7511TIP3    H122474   0.100   5.888   4.915
 7511TIP3    H222475   0.216   5.791   4.901
 7512TIP3   OH222476   3.046   5.509   5.766
 7512TIP3    H122477   3.130   5.545   5.736
 7512TIP3    H222478   3.020   5.568   5.837
 7513TIP3   OH222479   2.201   2.848   6.299
 7513TIP3    H122480   2.107   2.851   6.280
 7513TIP3    H222481   2.242   2.878   6.218
 7514TIP3   OH222482   3.354   1.603   6.490
 7514TIP3    H122483   3.384   1.685   6.528
 7514TIP3    H222484   3.313   1.628   6.407
 7515TIP3   OH222485   2.344   4.933   4.493
 7515TIP3    H122486   2.312   4.843   4.505
 7515TIP3    H222487   2.370   4.961   4.581
 7516TIP3   OH222488   0.289   3.004   5.032
 7516TIP3    H122489   0.229   3.051   5.089
 7516TIP3    H222490   0.264   3.030   4.944
 7517TIP3   OH222491   7.665   3.773   5.535
 7517TIP3    H122492   7.654   3.678   5.529
 7517TIP3    H222493   7.694   3.787   5.625
 7518TIP3   OH222494   2.979   5.016   0.806
 7518TIP3    H122495   3.000   5.083   0.871
 7518TIP3    H222496   3.044   4.947   0.821
 7519TIP3   OH222497   7.800   3.351   2.383
 7519TIP3    H122498   7.878   3.391   2.421
 7519TIP3    H222499   7.821   3.341   2.290
 7520TIP3   OH222500   7.831   3.039   5.760
 7520TIP3    H122501   7.744   3.009   5.786
 7520TIP3    H222502   7.865   3.084   5.837
 7521TIP3   OH222503   4.623   7.611   3.132
 7521TIP3    H122504   4.531   7.633   3.147
 7521TIP3    H222505   4.670   7.694   3.141
 7522TIP3   OH222506   0.157   0.998   5.327
 7522TIP3    H122507   0.155   1.093   5.333
 7522TIP3    H222508   0.239   0.972   5.368
 7523TIP3   OH222509   1.339   6.311   4.664
 7523TIP3    H122510   1.402   6.333   4.595
 7523TIP3    H222511   1.282   6.388   4.671
 7524TIP3   OH222512   2.000   0.099   0.074
 7524TIP3    H122513   1.934   0.037   0.104
 7524TIP3    H222514   1.954   0.154   0.010
 7525TIP3   OH222515   5.755   3.325   3.826
 7525TIP3    H122516   5.795   3.238   3.824
 7525TIP3    H222517   5.830   3.385   3.831
 7526TIP3   OH222518   3.314   2.456   4.920
 7526TIP3    H122519   3.337   2.437   5.011
 7526TIP3    H222520   3.339   2.377   4.872
 7527TIP3   OH222521   6.072   5.123   3.929
 7527TIP3    H122522   6.133   5.050   3.942
 7527TIP3    H222523   6.039   5.142   4.017
 7528TIP3   OH222524   1.619   0.063   2.470
 7528TIP3    H122525   1.536   0.108   2.453
 7528TIP3    H222526   1.623  -0.005   2.402
 7529TIP3   OH222527   6.384   0.129   0.415
 7529TIP3    H122528   6.344   0.206   0.374
 7529TIP3    H222529   6.311   0.083   0.457
 7530TIP3   OH222530   7.841   5.189   1.439
 7530TIP3    H122531   7.785   5.178   1.516
 7530TIP3    H222532   7.907   5.120   1.447
 7531TIP3   OH222533   1.682   1.660   3.836
 7531TIP3    H122534   1.760   1.694   3.878
 7531TIP3    H222535   1.702   1.568   3.818
 7532TIP3   OH222536   5.638   4.973   4.389
 7532TIP3    H122537   5.693   4.932   4.322
 7532TIP3    H222538   5.619   5.060   4.355
 7533TIP3   OH222539   2.832   1.788   0.150
 7533TIP3    H122540   2.880   1.825   0.224
 7533TIP3    H222541   2.740   1.806   0.170
 7534TIP3   OH222542   7.416   0.698   5.903
 7534TIP3    H122543   7.502   0.697   5.861
 7534TIP3    H222544   7.361   0.750   5.844
 7535TIP3   OH222545   1.563   5.886   4.301
 7535TIP3    H122546   1.546   5.801   4.261
 7535TIP3    H222547   1.516   5.949   4.245
 7536TIP3   OH222548   6.897   0.070   4.513
 7536TIP3    H122549   6.988   0.100   4.506
 7536TIP3    H222550   6.845   0.139   4.473
 7537TIP3   OH222551   6.454   3.240   2.987
 7537TIP3    H122552   6.473   3.237   2.893
 7537TIP3    H222553   6.493   3.322   3.017
 7538TIP3   OH222554   0.920   6.295   0.330
 7538TIP3    H122555   0.830   6.323   0.314
 7538TIP3    H222556   0.923   6.203   0.304
 7539TIP3   OH222557   0.997   2.189   2.890
 7539TIP3    H122558   1.053   2.240   2.831
 7539TIP3    H222559   0.942   2.137   2.832
 7540TIP3   OH222560   5.822   3.888   3.161
 7540TIP3    H122561   5.828   3.793   3.169
 7540TIP3    H222562   5.727   3.906   3.160
 7541TIP3   OH222563   2.568   1.423   1.617
 7541TIP3    H122564   2.528   1.491   1.562
 7541TIP3    H222565   2.633   1.381   1.561
 7542TIP3   OH222566   4.270   7.639   4.290
 7542TIP3    H122567   4.286   7.730   4.267
 7542TIP3    H222568   4.183   7.620   4.254
 7543TIP3   OH222569   1.886   0.945   3.042
 7543TIP3    H122570   1.938   0.914   2.967
 7543TIP3    H222571   1.868   1.037   3.023
 7544TIP3   OH222572   1.913   6.323   4.845
 7544TIP3    H122573   1.851   6.349   4.912
 7544TIP3    H222574   1.955   6.245   4.881
 7545TIP3   OH222575   5.986   3.998   0.556
 7545TIP3    H122576   5.901   3.962   0.529
 7545TIP3    H222577   5.976   4.093   0.548
 7546TIP3   OH222578   5.260   6.776   0.707
 7546TIP3    H122579   5.257   6.871   0.714
 7546TIP3    H222580   5.323   6.749   0.775
 7547TIP3   OH222581   4.113   4.791   2.262
 7547TIP3    H122582   4.187   4.755   2.310
 7547TIP3    H222583   4.152   4.849   2.196
 7548TIP3   OH222584   7.417   3.874   5.685
 7548TIP3    H122585   7.504   3.874   5.645
 7548TIP3    H222586   7.434   3.863   5.779
 7549TIP3   OH222587   1.969   1.264   4.967
 7549TIP3    H122588   1.891   1.208   4.962
 7549TIP3    H222589   1.935   1.353   4.961
 7550TIP3   OH222590   4.586   1.549   3.546
 7550TIP3    H122591   4.642   1.626   3.561
 7550TIP3    H222592   4.587   1.503   3.629
 7551TIP3   OH222593   3.618   3.830   0.247
 7551TIP3    H122594   3.565   3.756   0.216
 7551TIP3    H222595   3.630   3.813   0.341
 7552TIP3   OH222596   3.024   6.276   3.447
 7552TIP3    H122597   2.973   6.197   3.466
 7552TIP3    H222598   3.115   6.247   3.451
 7553TIP3   OH222599   2.437   4.544   2.547
 7553TIP3    H122600   2.394   4.563   2.464
 7553TIP3    H222601   2.371   4.496   2.597
 7554TIP3   OH222602   1.245   2.255   1.361
 7554TIP3    H122603   1.258   2.343   1.399
 7554TIP3    H222604   1.160   2.227   1.394
 7555TIP3   OH222605   0.040   2.223   1.028
 7555TIP3    H122606   0.028   2.240   0.935
 7555TIP3    H222607   0.015   2.132   1.039
 7556TIP3   OH222608   3.522   7.916   1.378
 7556TIP3    H122609   3.577   7.948   1.450
 7556TIP3    H222610   3.509   7.823   1.397
 7557TIP3   OH222611   5.597   3.881   6.753
 7557TIP3    H122612   5.585   3.812   6.688
 7557TIP3    H222613   5.609   3.960   6.700
 7558TIP3   OH222614   2.003   4.560   6.030
 7558TIP3    H122615   1.925   4.513   6.001
 7558TIP3    H222616   1.996   4.647   5.990
 7559TIP3   OH222617   2.435   4.917   0.575
 7559TIP3    H122618   2.475   4.925   0.489
 7559TIP3    H222619   2.508   4.922   0.637
 7560TIP3   OH222620   1.174   6.074   4.639
 7560TIP3    H122621   1.230   6.136   4.685
 7560TIP3    H222622   1.102   6.127   4.604
 7561TIP3   OH222623   4.017   2.451   5.167
 7561TIP3    H122624   4.023   2.384   5.235
 7561TIP3    H222625   3.994   2.532   5.213
 7562TIP3   OH222626   0.149   2.766   0.123
 7562TIP3    H122627   0.182   2.789   0.036
 7562TIP3    H222628   0.148   2.670   0.123
 7563TIP3   OH222629   3.403   2.584   0.757
 7563TIP3    H122630   3.420   2.631   0.838
 7563TIP3    H222631   3.308   2.567   0.759
 7564TIP3   OH222632   4.340   3.939   1.524
 7564TIP3    H122633   4.409   3.873   1.534
 7564TIP3    H222634   4.264   3.900   1.567
 7565TIP3   OH222635   2.312   5.380   3.564
 7565TIP3    H122636   2.314   5.345   3.475
 7565TIP3    H222637   2.398   5.358   3.601
 7566TIP3   OH222638   1.905   0.354   4.069
 7566TIP3    H122639   1.853   0.352   3.989
 7566TIP3    H222640   1.895   0.443   4.102
 7567TIP3   OH222641   7.318   4.813   1.823
 7567TIP3    H122642   7.375   4.739   1.801
 7567TIP3    H222643   7.230   4.776   1.824
 7568TIP3   OH222644   2.241   1.641   5.920
 7568TIP3    H122645   2.223   1.715   5.977
 7568TIP3    H222646   2.155   1.611   5.890
 7569TIP3   OH222647   3.726   6.252   4.125
 7569TIP3    H122648   3.724   6.156   4.131
 7569TIP3    H222649   3.638   6.277   4.099
 7570TIP3   OH222650   3.216   6.450   0.503
 7570TIP3    H122651   3.302   6.472   0.540
 7570TIP3    H222652   3.232   6.372   0.450
 7571TIP3   OH222653   4.125   4.759   5.106
 7571TIP3    H122654   4.058   4.745   5.040
 7571TIP3    H222655   4.167   4.674   5.117
 7572TIP3   OH222656   8.329   1.449   5.920
 7572TIP3    H122657   8.329   1.543   5.935
 7572TIP3    H222658   8.415   1.429   5.885
 7573TIP3   OH222659   1.284   2.180   5.698
 7573TIP3    H122660   1.241   2.233   5.766
 7573TIP3    H222661   1.213   2.152   5.641
 7574TIP3   OH222662   8.311   5.034   1.420
 7574TIP3    H122663   8.318   5.074   1.507
 7574TIP3    H222664   8.319   5.108   1.360
 7575TIP3   OH222665   5.883   4.799   4.736
 7575TIP3    H122666   5.832   4.738   4.683
 7575TIP3    H222667   5.897   4.875   4.679
 7576TIP3   OH222668   2.269   6.881   5.704
 7576TIP3    H122669   2.274   6.878   5.608
 7576TIP3    H222670   2.280   6.790   5.731
 7577TIP3   OH222671   5.036   7.715   0.155
 7577TIP3    H122672   5.048   7.703   0.250
 7577TIP3    H222673   5.072   7.802   0.138
 7578TIP3   OH222674   2.862   2.913   2.454
 7578TIP3    H122675   2.783   2.967   2.450
 7578TIP3    H222676   2.830   2.825   2.477
 7579TIP3   OH222677   6.862   1.050   5.139
 7579TIP3    H122678   6.842   1.130   5.187
 7579TIP3    H222679   6.947   1.067   5.098
 7580TIP3   OH222680   0.312   4.299   5.735
 7580TIP3    H122681   0.292   4.230   5.671
 7580TIP3    H222682   0.302   4.381   5.687
 7581TIP3   OH222683   6.110   6.636   1.739
 7581TIP3    H122684   6.089   6.700   1.671
 7581TIP3    H222685   6.167   6.683   1.800
 7582TIP3   OH222686   6.943   1.869   6.163
 7582TIP3    H122687   6.959   1.936   6.096
 7582TIP3    H222688   7.029   1.829   6.177
 7583TIP3   OH222689   0.036   6.336   6.787
 7583TIP3    H122690  -0.009   6.399   6.843
 7583TIP3    H222691   0.126   6.333   6.821
 7584TIP3   OH222692   1.580   4.304   0.370
 7584TIP3    H122693   1.563   4.383   0.422
 7584TIP3    H222694   1.666   4.274   0.399
 7585TIP3   OH222695   7.738   4.872   1.456
 7585TIP3    H122696   7.792   4.818   1.514
 7585TIP3    H222697   7.664   4.898   1.510
 7586TIP3   OH222698   2.516   1.466   5.820
 7586TIP3    H122699   2.526   1.403   5.749
 7586TIP3    H222700   2.494   1.549   5.776
 7587TIP3   OH222701   3.603   1.340   0.392
 7587TIP3    H122702   3.514   1.316   0.369
 7587TIP3    H222703   3.642   1.368   0.310
 7588TIP3   OH222704   0.594   1.740   6.590
 7588TIP3    H122705   0.551   1.688   6.522
 7588TIP3    H222706   0.582   1.690   6.670
 7589TIP3   OH222707   7.363   7.293   0.225
 7589TIP3    H122708   7.381   7.303   0.132
 7589TIP3    H222709   7.275   7.329   0.237
 7590TIP3   OH222710   7.575   3.037   5.875
 7590TIP3    H122711   7.519   2.976   5.924
 7590TIP3    H222712   7.517   3.076   5.809
 7591TIP3   OH222713   5.363   7.011   2.479
 7591TIP3    H122714   5.425   7.079   2.452
 7591TIP3    H222715   5.344   6.964   2.398
 7592TIP3   OH222716   2.557   6.596   1.788
 7592TIP3    H122717   2.544   6.691   1.788
 7592TIP3    H222718   2.651   6.584   1.799
 7593TIP3   OH222719   7.956   7.779   0.294
 7593TIP3    H122720   8.033   7.741   0.252
 7593TIP3    H222721   7.902   7.810   0.222
 7594TIP3   OH222722   1.611   1.922   5.125
 7594TIP3    H122723   1.561   1.996   5.090
 7594TIP3    H222724   1.669   1.961   5.190
 7595TIP3   OH222725   5.680   4.374   4.596
 7595TIP3    H122726   5.679   4.469   4.583
 7595TIP3    H222727   5.618   4.340   4.532
 7596TIP3   OH222728   3.913   0.645   2.997
 7596TIP3    H122729   3.892   0.730   3.036
 7596TIP3    H222730   3.989   0.663   2.942
 7597TIP3   OH222731   5.309   5.149   0.596
 7597TIP3    H122732   5.297   5.167   0.502
 7597TIP3    H222733   5.312   5.053   0.601
 7598TIP3   OH222734   5.334   2.545   5.024
 7598TIP3    H122735   5.389   2.478   4.983
 7598TIP3    H222736   5.244   2.516   5.007
 7599TIP3   OH222737   4.727   2.346   5.302
 7599TIP3    H122738   4.782   2.286   5.353
 7599TIP3    H222739   4.651   2.294   5.278
 7600TIP3   OH222740   1.404   6.478   5.465
 7600TIP3    H122741   1.441   6.530   5.393
 7600TIP3    H222742   1.328   6.435   5.425
 7601TIP3   OH222743   3.627   4.103   5.747
 7601TIP3    H122744   3.533   4.120   5.742
 7601TIP3    H222745   3.649   4.059   5.665
 7602TIP3   OH222746   7.007   6.953   4.302
 7602TIP3    H122747   7.016   6.933   4.209
 7602TIP3    H222748   7.048   6.879   4.347
 7603TIP3   OH222749   6.437   7.608   0.389
 7603TIP3    H122750   6.401   7.697   0.389
 7603TIP3    H222751   6.377   7.558   0.445
 7604TIP3   OH222752   7.980   0.730   6.235
 7604TIP3    H122753   7.901   0.716   6.286
 7604TIP3    H222754   8.013   0.641   6.218
 7605TIP3   OH222755   4.825   4.257   4.093
 7605TIP3    H122756   4.834   4.166   4.122
 7605TIP3    H222757   4.857   4.309   4.167
 7606TIP3   OH222758   2.631   7.268   4.299
 7606TIP3    H122759   2.604   7.297   4.212
 7606TIP3    H222760   2.672   7.182   4.285
 7607TIP3   OH222761   7.715   3.052   6.617
 7607TIP3    H122762   7.657   3.052   6.693
 7607TIP3    H222763   7.662   3.017   6.545
 7608TIP3   OH222764   5.462   4.436   2.104
 7608TIP3    H122765   5.482   4.526   2.080
 7608TIP3    H222766   5.370   4.438   2.132
 7609TIP3   OH222767   6.490   7.006   0.287
 7609TIP3    H122768   6.448   7.077   0.335
 7609TIP3    H222769   6.466   7.022   0.196
 7610TIP3   OH222770   8.152   0.077   1.195
 7610TIP3    H122771   8.151   0.006   1.130
 7610TIP3    H222772   8.148   0.032   1.280
 7611TIP3   OH222773   1.553   5.055   4.617
 7611TIP3    H122774   1.472   5.005   4.630
 7611TIP3    H222775   1.592   5.062   4.704
 7612TIP3   OH222776   6.429   2.567   2.827
 7612TIP3    H122777   6.467   2.488   2.789
 7612TIP3    H222778   6.493   2.593   2.894
 7613TIP3   OH222779   5.321   2.936   3.497
 7613TIP3    H122780   5.397   2.879   3.482
 7613TIP3    H222781   5.359   3.021   3.519
 7614TIP3   OH222782   5.551   1.513   0.521
 7614TIP3    H122783   5.499   1.589   0.495
 7614TIP3    H222784   5.599   1.489   0.442
 7615TIP3   OH222785   4.899   1.296   2.426
 7615TIP3    H122786   4.979   1.343   2.403
 7615TIP3    H222787   4.839   1.316   2.354
 7616TIP3   OH222788   3.705   1.193   2.373
 7616TIP3    H122789   3.794   1.222   2.395
 7616TIP3    H222790   3.685   1.127   2.439
 7617TIP3   OH222791   4.741   6.061   1.221
 7617TIP3    H122792   4.656   6.035   1.186
 7617TIP3    H222793   4.800   6.056   1.146
 7618TIP3   OH222794   4.045   7.460   0.800
 7618TIP3    H122795   4.084   7.421   0.722
 7618TIP3    H222796   3.951   7.460   0.783
 7619TIP3   OH222797   0.867   0.691   1.708
 7619TIP3    H122798   0.954   0.670   1.742
 7619TIP3    H222799   0.812   0.699   1.786
 7620TIP3   OH222800   7.990   2.289   6.145
 7620TIP3    H122801   8.023   2.313   6.058
 7620TIP3    H222802   7.969   2.373   6.186
 7621TIP3   OH222803   4.866   5.119   6.486
 7621TIP3    H122804   4.795   5.148   6.429
 7621TIP3    H222805   4.935   5.185   6.474
 7622TIP3   OH222806   1.509   7.918   5.954
 7622TIP3    H122807   1.533   7.874   6.036
 7622TIP3    H222808   1.422   7.886   5.933
 7623TIP3   OH222809   1.911   4.347   5.891
 7623TIP3    H122810   1.936   4.273   5.946
 7623TIP3    H222811   1.958   4.334   5.809
 7624TIP3   OH222812   0.858   0.100   2.303
 7624TIP3    H122813   0.852   0.192   2.276
 7624TIP3    H222814   0.830   0.101   2.395
 7625TIP3   OH222815   7.224   3.114   4.498
 7625TIP3    H122816   7.251   3.117   4.589
 7625TIP3    H222817   7.149   3.175   4.494
 7626TIP3   OH222818   5.346   0.262   5.020
 7626TIP3    H122819   5.387   0.198   5.078
 7626TIP3    H222820   5.356   0.345   5.066
 7627TIP3   OH222821   6.115   1.309   0.670
 7627TIP3    H122822   6.153   1.354   0.745
 7627TIP3    H222823   6.021   1.306   0.688
 7628TIP3   OH222824   7.598   5.927   6.705
 7628TIP3    H122825   7.687   5.958   6.690
 7628TIP3    H222826   7.550   5.956   6.628
 7629TIP3   OH222827   7.799   7.502   5.095
 7629TIP3    H122828   7.785   7.508   5.000
 7629TIP3    H222829   7.711   7.507   5.133
 7630TIP3   OH222830   2.816   7.448   4.534
 7630TIP3    H122831   2.725   7.471   4.512
 7630TIP3    H222832   2.865   7.528   4.517
 7631TIP3   OH222833   7.830   7.209   4.901
 7631TIP3    H122834   7.923   7.227   4.898
 7631TIP3    H222835   7.795   7.245   4.820
 7632TIP3   OH222836   0.010   4.510   6.598
 7632TIP3    H122837   0.087   4.518   6.654
 7632TIP3    H222838  -0.044   4.586   6.621
 7633TIP3   OH222839   5.927   3.058   1.105
 7633TIP3    H122840   6.020   3.035   1.109
 7633TIP3    H222841   5.911   3.108   1.185
 7634TIP3   OH222842   6.986   1.761   1.483
 7634TIP3    H122843   6.988   1.702   1.558
 7634TIP3    H222844   7.037   1.837   1.510
 7635TIP3   OH222845   1.268   0.544   2.444
 7635TIP3    H122846   1.211   0.592   2.504
 7635TIP3    H222847   1.253   0.452   2.465
 7636TIP3   OH222848   2.969   7.262   1.953
 7636TIP3    H122849   3.058   7.237   1.977
 7636TIP3    H222850   2.924   7.276   2.036
 7637TIP3   OH222851   4.773   2.574   5.520
 7637TIP3    H122852   4.799   2.498   5.468
 7637TIP3    H222853   4.824   2.566   5.600
 7638TIP3   OH222854   5.295   1.363   6.354
 7638TIP3    H122855   5.249   1.360   6.270
 7638TIP3    H222856   5.386   1.382   6.331
 7639TIP3   OH222857   4.521   6.366   0.200
 7639TIP3    H122858   4.494   6.319   0.121
 7639TIP3    H222859   4.613   6.344   0.211
 7640TIP3   OH222860   8.180   0.375   3.673
 7640TIP3    H122861   8.251   0.322   3.708
 7640TIP3    H222862   8.178   0.353   3.579
 7641TIP3   OH222863   4.921   6.272   6.685
 7641TIP3    H122864   4.846   6.328   6.704
 7641TIP3    H222865   4.911   6.197   6.744
 7642TIP3   OH222866   4.797   3.818   3.684
 7642TIP3    H122867   4.884   3.821   3.724
 7642TIP3    H222868   4.786   3.904   3.645
 7643TIP3   OH222869   5.547   0.062   0.407
 7643TIP3    H122870   5.626   0.009   0.416
 7643TIP3    H222871   5.507   0.033   0.325
 7644TIP3   OH222872   2.745   2.652   6.761
 7644TIP3    H122873   2.702   2.567   6.751
 7644TIP3    H222874   2.820   2.634   6.817
 7645TIP3   OH222875   1.505   4.617   1.619
 7645TIP3    H122876   1.427   4.673   1.619
 7645TIP3    H222877   1.565   4.659   1.557
 7646TIP3   OH222878   7.543   1.073   6.152
 7646TIP3    H122879   7.599   1.075   6.230
 7646TIP3    H222880   7.602   1.088   6.079
 7647TIP3   OH222881   7.759   2.435   4.026
 7647TIP3    H122882   7.749   2.355   3.975
 7647TIP3    H222883   7.680   2.486   4.006
 7648TIP3   OH222884   6.028   7.328   1.208
 7648TIP3    H122885   5.957   7.268   1.184
 7648TIP3    H222886   5.987   7.414   1.212
 7649TIP3   OH222887   4.406   4.823   5.683
 7649TIP3    H122888   4.483   4.810   5.737
 7649TIP3    H222889   4.332   4.816   5.743
 7650TIP3   OH222890   4.885   1.650   5.531
 7650TIP3    H122891   4.901   1.619   5.620
 7650TIP3    H222892   4.805   1.702   5.537
 7651TIP3   OH222893   0.753   4.005   2.105
 7651TIP3    H122894   0.824   3.941   2.102
 7651TIP3    H222895   0.736   4.018   2.198
 7652TIP3   OH222896   4.957   6.992   6.060
 7652TIP3    H122897   4.997   7.013   6.145
 7652TIP3    H222898   4.873   6.951   6.083
 7653TIP3   OH222899   3.126   4.852   5.480
 7653TIP3    H122900   3.155   4.761   5.489
 7653TIP3    H222901   3.065   4.850   5.406
 7654TIP3   OH222902   7.966   7.205   3.774
 7654TIP3    H122903   8.030   7.232   3.709
 7654TIP3    H222904   8.010   7.136   3.824
 7655TIP3   OH222905   0.062   4.901   3.618
 7655TIP3    H122906   0.136   4.856   3.658
 7655TIP3    H222907   0.032   4.841   3.550
 7656TIP3   OH222908   5.900   1.017   0.870
 7656TIP3    H122909   5.970   0.986   0.813
 7656TIP3    H222910   5.845   0.941   0.886
 7657TIP3   OH222911   4.766   6.226   4.623
 7657TIP3    H122912   4.766   6.146   4.674
 7657TIP3    H222913   4.691   6.217   4.564
 7658TIP3   OH222914   7.365   6.415   3.604
 7658TIP3    H122915   7.448   6.372   3.583
 7658TIP3    H222916   7.375   6.443   3.695
 7659TIP3   OH222917   3.080   4.796   3.005
 7659TIP3    H122918   3.147   4.842   2.955
 7659TIP3    H222919   2.997   4.821   2.964
 7660TIP3   OH222920   2.839   7.793   0.614
 7660TIP3    H122921   2.759   7.763   0.570
 7660TIP3    H222922   2.864   7.721   0.672
 7661TIP3   OH222923   0.657   5.424   2.938
 7661TIP3    H122924   0.568   5.415   2.973
 7661TIP3    H222925   0.644   5.436   2.844
 7662TIP3   OH222926   3.282   1.860   3.010
 7662TIP3    H122927   3.335   1.845   2.932
 7662TIP3    H222928   3.329   1.928   3.058
 7663TIP3   OH222929   1.032   4.196   3.350
 7663TIP3    H122930   1.003   4.279   3.387
 7663TIP3    H222931   0.950   4.149   3.330
 7664TIP3   OH222932   7.213   2.804   2.780
 7664TIP3    H122933   7.241   2.886   2.738
 7664TIP3    H222934   7.293   2.768   2.818
 7665TIP3   OH222935   5.581   3.765   1.216
 7665TIP3    H122936   5.497   3.810   1.226
 7665TIP3    H222937   5.640   3.831   1.180
 7666TIP3   OH222938   2.716   0.238   5.741
 7666TIP3    H122939   2.781   0.176   5.772
 7666TIP3    H222940   2.701   0.296   5.815
 7667TIP3   OH222941   5.131   4.148   6.416
 7667TIP3    H122942   5.109   4.221   6.359
 7667TIP3    H222943   5.090   4.072   6.375
 7668TIP3   OH222944   3.456   1.124   4.005
 7668TIP3    H122945   3.386   1.076   3.961
 7668TIP3    H222946   3.512   1.156   3.934
 7669TIP3   OH222947   2.856   2.334   1.201
 7669TIP3    H122948   2.769   2.317   1.166
 7669TIP3    H222949   2.865   2.274   1.275
 7670TIP3   OH222950   5.489   2.525   0.381
 7670TIP3    H122951   5.511   2.546   0.472
 7670TIP3    H222952   5.393   2.529   0.378
 7671TIP3   OH222953   4.101   0.860   2.974
 7671TIP3    H122954   4.142   0.837   2.891
 7671TIP3    H222955   4.174   0.873   3.035
 7672TIP3   OH222956   3.871   5.012   5.440
 7672TIP3    H122957   3.810   5.084   5.424
 7672TIP3    H222958   3.828   4.960   5.508
 7673TIP3   OH222959   5.615   5.241   3.127
 7673TIP3    H122960   5.692   5.279   3.085
 7673TIP3    H222961   5.613   5.280   3.214
 7674TIP3   OH222962   8.007   7.470   3.610
 7674TIP3    H122963   8.023   7.404   3.543
 7674TIP3    H222964   8.023   7.553   3.567
 7675TIP3   OH222965   2.660   4.394   6.414
 7675TIP3    H122966   2.739   4.419   6.461
 7675TIP3    H222967   2.589   4.437   6.462
 7676TIP3   OH222968   8.187   3.834   6.051
 7676TIP3    H122969   8.180   3.926   6.078
 7676TIP3    H222970   8.207   3.787   6.132
 7677TIP3   OH222971   4.847   1.534   0.993
 7677TIP3    H122972   4.938   1.547   1.018
 7677TIP3    H222973   4.833   1.440   1.001
 7678TIP3   OH222974   5.879   1.622   0.592
 7678TIP3    H122975   5.851   1.550   0.648
 7678TIP3    H222976   5.815   1.691   0.607
 7679TIP3   OH222977   0.007   5.618   0.497
 7679TIP3    H122978  -0.006   5.712   0.487
 7679TIP3    H222979   0.096   5.609   0.531
 7680TIP3   OH222980   8.209   3.384   4.536
 7680TIP3    H122981   8.141   3.385   4.468
 7680TIP3    H222982   8.250   3.298   4.526
 7681TIP3   OH222983   3.464   3.568   6.329
 7681TIP3    H122984   3.511   3.637   6.377
 7681TIP3    H222985   3.417   3.614   6.260
 7682TIP3   OH222986   1.827   4.539   2.365
 7682TIP3    H122987   1.822   4.467   2.303
 7682TIP3    H222988   1.751   4.594   2.343
 7683TIP3   OH222989   7.916   4.419   0.513
 7683TIP3    H122990   8.003   4.453   0.532
 7683TIP3    H222991   7.880   4.395   0.598
 7684TIP3   OH222992   6.351   1.781   0.426
 7684TIP3    H122993   6.332   1.837   0.501
 7684TIP3    H222994   6.286   1.711   0.430
 7685TIP3   OH222995   8.120   3.582   2.038
 7685TIP3    H122996   8.119   3.567   1.943
 7685TIP3    H222997   8.211   3.602   2.058
 7686TIP3   OH222998   6.167   7.200   4.556
 7686TIP3    H122999   6.158   7.295   4.554
 7686TIP3    H223000   6.210   7.182   4.640
 7687TIP3   OH223001   4.013   1.557   3.781
 7687TIP3    H123002   4.052   1.617   3.845
 7687TIP3    H223003   4.035   1.470   3.812
 7688TIP3   OH223004   7.187   3.166   4.853
 7688TIP3    H123005   7.151   3.247   4.816
 7688TIP3    H223006   7.144   3.096   4.804
 7689TIP3   OH223007   0.576   1.938   2.938
 7689TIP3    H123008   0.511   2.005   2.961
 7689TIP3    H223009   0.599   1.898   3.022
 7690TIP3   OH223010   8.329   5.494   1.628
 7690TIP3    H123011   8.236   5.513   1.616
 7690TIP3    H223012   8.367   5.575   1.662
 7691TIP3   OH223013   1.803   0.266   1.574
 7691TIP3    H123014   1.739   0.327   1.537
 7691TIP3    H223015   1.765   0.240   1.659
 7692TIP3   OH223016   1.113   3.042   0.395
 7692TIP3    H123017   1.105   3.014   0.304
 7692TIP3    H223018   1.148   2.966   0.441
 7693TIP3   OH223019   7.033   4.275   2.230
 7693TIP3    H123020   7.043   4.336   2.156
 7693TIP3    H223021   7.102   4.300   2.291
 7694TIP3   OH223022   8.261   4.228   3.237
 7694TIP3    H123023   8.252   4.162   3.169
 7694TIP3    H223024   8.173   4.236   3.274
 7695TIP3   OH223025   5.332   2.705   0.581
 7695TIP3    H123026   5.251   2.670   0.620
 7695TIP3    H223027   5.401   2.649   0.616
 7696TIP3   OH223028   5.261   3.518   4.080
 7696TIP3    H123029   5.233   3.444   4.134
 7696TIP3    H223030   5.356   3.522   4.093
 7697TIP3   OH223031   3.085   3.568   0.273
 7697TIP3    H123032   3.019   3.519   0.223
 7697TIP3    H223033   3.079   3.658   0.239
 7698TIP3   OH223034   7.021   6.331   6.692
 7698TIP3    H123035   7.002   6.239   6.673
 7698TIP3    H223036   7.082   6.328   6.766
 7699TIP3   OH223037   3.867   1.911   6.081
 7699TIP3    H123038   3.865   1.955   6.166
 7699TIP3    H223039   3.938   1.846   6.090
 7700TIP3   OH223040   7.341   2.518   3.017
 7700TIP3    H123041   7.341   2.613   3.003
 7700TIP3    H223042   7.317   2.508   3.109
 7701TIP3   OH223043   5.321   5.142   6.023
 7701TIP3    H123044   5.242   5.194   6.036
 7701TIP3    H223045   5.387   5.205   5.994
 7702TIP3   OH223046   2.661   4.474   2.834
 7702TIP3    H123047   2.722   4.487   2.906
 7702TIP3    H223048   2.693   4.395   2.789
 7703TIP3   OH223049   6.186   2.810   3.845
 7703TIP3    H123050   6.223   2.898   3.845
 7703TIP3    H223051   6.109   2.816   3.903
 7704TIP3   OH223052   3.598   4.751   6.870
 7704TIP3    H123053   3.600   4.742   6.774
 7704TIP3    H223054   3.644   4.674   6.902
 7705TIP3   OH223055   6.877   5.479   3.836
 7705TIP3    H123056   6.924   5.561   3.819
 7705TIP3    H223057   6.916   5.445   3.916
 7706TIP3   OH223058   4.694   6.520   4.245
 7706TIP3    H123059   4.651   6.459   4.186
 7706TIP3    H223060   4.688   6.479   4.331
 7707TIP3   OH223061   4.861   3.808   0.371
 7707TIP3    H123062   4.853   3.880   0.309
 7707TIP3    H223063   4.776   3.804   0.414
 7708TIP3   OH223064   7.420   2.023   3.172
 7708TIP3    H123065   7.474   2.046   3.096
 7708TIP3    H223066   7.389   2.106   3.207
 7709TIP3   OH223067   7.155   1.348   4.479
 7709TIP3    H123068   7.157   1.383   4.569
 7709TIP3    H223069   7.090   1.278   4.483
 7710TIP3   OH223070   6.470   1.566   4.744
 7710TIP3    H123071   6.520   1.536   4.820
 7710TIP3    H223072   6.464   1.489   4.687
 7711TIP3   OH223073   1.384   4.555   5.164
 7711TIP3    H123074   1.407   4.630   5.218
 7711TIP3    H223075   1.433   4.568   5.083
 7712TIP3   OH223076   7.332   1.947   5.704
 7712TIP3    H123077   7.416   1.910   5.730
 7712TIP3    H223078   7.321   1.920   5.613
 7713TIP3   OH223079   4.370   6.091   2.419
 7713TIP3    H123080   4.450   6.121   2.375
 7713TIP3    H223081   4.300   6.110   2.356
 7714TIP3   OH223082   0.100   1.195   0.274
 7714TIP3    H123083   0.045   1.187   0.196
 7714TIP3    H223084   0.137   1.107   0.286
 7715TIP3   OH223085   3.016   7.805   2.675
 7715TIP3    H123086   3.019   7.876   2.740
 7715TIP3    H223087   3.018   7.725   2.727
 7716TIP3   OH223088   1.705   5.882   0.193
 7716TIP3    H123089   1.678   5.822   0.124
 7716TIP3    H223090   1.789   5.849   0.223
 7717TIP3   OH223091   4.341   4.042   1.257
 7717TIP3    H123092   4.418   4.008   1.211
 7717TIP3    H223093   4.353   4.014   1.348
 7718TIP3   OH223094   5.150   3.716   1.145
 7718TIP3    H123095   5.164   3.646   1.080
 7718TIP3    H223096   5.158   3.672   1.229
 7719TIP3   OH223097   8.364   4.877   6.269
 7719TIP3    H123098   8.454   4.861   6.238
 7719TIP3    H223099   8.320   4.917   6.194
 7720TIP3   OH223100   1.422   1.263   2.464
 7720TIP3    H123101   1.515   1.242   2.452
 7720TIP3    H223102   1.379   1.230   2.385
 7721TIP3   OH223103   6.078   3.196   4.075
 7721TIP3    H123104   6.116   3.148   4.002
 7721TIP3    H223105   6.099   3.288   4.056
 7722TIP3   OH223106   0.340   6.289   5.350
 7722TIP3    H123107   0.298   6.250   5.426
 7722TIP3    H223108   0.306   6.379   5.347
 7723TIP3   OH223109   3.761   5.201   3.064
 7723TIP3    H123110   3.828   5.216   2.997
 7723TIP3    H223111   3.800   5.236   3.144
 7724TIP3   OH223112   5.134   5.151   3.796
 7724TIP3    H123113   5.224   5.120   3.783
 7724TIP3    H223114   5.079   5.087   3.750
 7725TIP3   OH223115   6.083   3.294   6.583
 7725TIP3    H123116   6.064   3.388   6.584
 7725TIP3    H223117   6.155   3.283   6.644
 7726TIP3   OH223118   4.510   0.993   1.915
 7726TIP3    H123119   4.576   1.058   1.938
 7726TIP3    H223120   4.559   0.911   1.909
 7727TIP3   OH223121   6.372   3.062   2.061
 7727TIP3    H123122   6.458   3.089   2.030
 7727TIP3    H223123   6.382   3.053   2.155
 7728TIP3   OH223124   4.822   3.334   6.601
 7728TIP3    H123125   4.772   3.399   6.551
 7728TIP3    H223126   4.895   3.383   6.639
 7729TIP3   OH223127   5.345   4.856   0.836
 7729TIP3    H123128   5.380   4.769   0.821
 7729TIP3    H223129   5.252   4.849   0.811
 7730TIP3   OH223130   5.852   2.504   4.866
 7730TIP3    H123131   5.758   2.486   4.870
 7730TIP3    H223132   5.885   2.476   4.951
 7731TIP3   OH223133   3.663   0.804   1.172
 7731TIP3    H123134   3.692   0.769   1.087
 7731TIP3    H223135   3.695   0.741   1.236
 7732TIP3   OH223136   2.179   6.371   0.968
 7732TIP3    H123137   2.244   6.313   1.007
 7732TIP3    H223138   2.096   6.344   1.008
 7733TIP3   OH223139   3.483   4.267   2.842
 7733TIP3    H123140   3.417   4.299   2.780
 7733TIP3    H223141   3.447   4.288   2.928
 7734TIP3   OH223142   6.440   3.715   4.586
 7734TIP3    H123143   6.382   3.763   4.646
 7734TIP3    H223144   6.528   3.744   4.610
 7735TIP3   OH223145   8.297   1.361   0.399
 7735TIP3    H123146   8.264   1.319   0.478
 7735TIP3    H223147   8.360   1.298   0.363
 7736TIP3   OH223148   2.040   4.373   0.728
 7736TIP3    H123149   1.998   4.358   0.813
 7736TIP3    H223150   2.025   4.291   0.680
 7737TIP3   OH223151   0.152   1.329   6.188
 7737TIP3    H123152   0.088   1.277   6.237
 7737TIP3    H223153   0.189   1.389   6.252
 7738TIP3   OH223154   7.596   0.494   0.826
 7738TIP3    H123155   7.672   0.539   0.791
 7738TIP3    H223156   7.525   0.515   0.766
 7739TIP3   OH223157   3.634   4.455   4.542
 7739TIP3    H123158   3.601   4.515   4.609
 7739TIP3    H223159   3.724   4.483   4.526
 7740TIP3   OH223160   5.923   3.931   0.165
 7740TIP3    H123161   5.999   3.984   0.187
 7740TIP3    H223162   5.916   3.868   0.237
 7741TIP3   OH223163   4.770   5.384   4.029
 7741TIP3    H123164   4.761   5.391   4.124
 7741TIP3    H223165   4.823   5.305   4.016
 7742TIP3   OH223166   8.212   0.542   6.014
 7742TIP3    H123167   8.165   0.484   6.074
 7742TIP3    H223168   8.149   0.609   5.991
 7743TIP3   OH223169   2.615   4.162   4.187
 7743TIP3    H123170   2.687   4.220   4.160
 7743TIP3    H223171   2.633   4.079   4.143
 7744TIP3   OH223172   3.114   5.847   4.339
 7744TIP3    H123173   3.192   5.900   4.324
 7744TIP3    H223174   3.048   5.908   4.371
 7745TIP3   OH223175   1.869   2.064   3.400
 7745TIP3    H123176   1.862   2.110   3.483
 7745TIP3    H223177   1.849   2.130   3.333
 7746TIP3   OH223178   3.502   1.001   5.632
 7746TIP3    H123179   3.504   1.056   5.553
 7746TIP3    H223180   3.444   0.929   5.609
 7747TIP3   OH223181   5.433   5.928   3.466
 7747TIP3    H123182   5.340   5.953   3.469
 7747TIP3    H223183   5.479   6.002   3.505
 7748TIP3   OH223184   4.967   1.057   6.586
 7748TIP3    H123185   4.937   0.995   6.519
 7748TIP3    H223186   4.947   1.143   6.550
 7749TIP3   OH223187   2.828   5.113   4.056
 7749TIP3    H123188   2.870   5.195   4.029
 7749TIP3    H223189   2.814   5.123   4.150
 7750TIP3   OH223190   1.691   1.398   1.997
 7750TIP3    H123191   1.639   1.365   2.070
 7750TIP3    H223192   1.627   1.415   1.928
 7751TIP3   OH223193   5.927   7.192   6.434
 7751TIP3    H123194   5.926   7.219   6.343
 7751TIP3    H223195   5.835   7.194   6.461
 7752TIP3   OH223196   8.367   4.444   2.135
 7752TIP3    H123197   8.462   4.452   2.146
 7752TIP3    H223198   8.355   4.433   2.041
 7753TIP3   OH223199   2.210   6.963   1.556
 7753TIP3    H123200   2.253   6.958   1.471
 7753TIP3    H223201   2.128   7.011   1.539
 7754TIP3   OH223202   0.266   5.190   4.393
 7754TIP3    H123203   0.212   5.268   4.382
 7754TIP3    H223204   0.223   5.123   4.340
 7755TIP3   OH223205   4.431   0.874   3.757
 7755TIP3    H123206   4.514   0.921   3.763
 7755TIP3    H223207   4.423   0.829   3.841
 7756TIP3   OH223208   8.218   3.865   2.873
 7756TIP3    H123209   8.307   3.853   2.839
 7756TIP3    H223210   8.225   3.939   2.932
 7757TIP3   OH223211   0.685   7.481   0.985
 7757TIP3    H123212   0.677   7.386   0.970
 7757TIP3    H223213   0.653   7.494   1.074
 7758TIP3   OH223214   6.784   7.039   4.463
 7758TIP3    H123215   6.812   6.996   4.383
 7758TIP3    H223216   6.707   6.989   4.491
 7759TIP3   OH223217   5.892   4.012   6.720
 7759TIP3    H123218   5.858   3.925   6.698
 7759TIP3    H223219   5.863   4.026   6.810
 7760TIP3   OH223220   0.942   4.573   5.644
 7760TIP3    H123221   0.900   4.632   5.706
 7760TIP3    H223222   0.998   4.629   5.591
 7761TIP3   OH223223   6.205   2.551   3.956
 7761TIP3    H123224   6.287   2.543   4.006
 7761TIP3    H223225   6.217   2.629   3.903
 7762TIP3   OH223226   4.724   1.238   6.825
 7762TIP3    H123227   4.772   1.313   6.860
 7762TIP3    H223228   4.726   1.173   6.895
 7763TIP3   OH223229   7.721   5.679   0.526
 7763TIP3    H123230   7.698   5.591   0.497
 7763TIP3    H223231   7.817   5.683   0.519
 7764TIP3   OH223232   3.014   7.539   3.525
 7764TIP3    H123233   3.098   7.579   3.547
 7764TIP3    H223234   3.036   7.454   3.489
 7765TIP3   OH223235   3.971   4.526   0.498
 7765TIP3    H123236   3.977   4.442   0.452
 7765TIP3    H223237   4.034   4.582   0.453
 7766TIP3   OH223238   1.043   4.632   0.745
 7766TIP3    H123239   1.081   4.551   0.710
 7766TIP3    H223240   1.072   4.700   0.684
 7767TIP3   OH223241   4.537   0.967   3.301
 7767TIP3    H123242   4.467   0.934   3.359
 7767TIP3    H223243   4.611   0.909   3.319
 7768TIP3   OH223244   5.559   2.240   0.799
 7768TIP3    H123245   5.624   2.170   0.805
 7768TIP3    H223246   5.520   2.230   0.712
 7769TIP3   OH223247   1.367   4.805   1.181
 7769TIP3    H123248   1.377   4.887   1.229
 7769TIP3    H223249   1.457   4.775   1.166
 7770TIP3   OH223250   6.546   6.877   1.076
 7770TIP3    H123251   6.575   6.951   1.022
 7770TIP3    H223252   6.563   6.906   1.166
 7771TIP3   OH223253   1.761   4.071   4.237
 7771TIP3    H123254   1.852   4.041   4.239
 7771TIP3    H223255   1.766   4.161   4.205
 7772TIP3   OH223256   2.609   3.119   2.172
 7772TIP3    H123257   2.630   3.104   2.264
 7772TIP3    H223258   2.566   3.039   2.144
 7773TIP3   OH223259   3.731   5.402   0.761
 7773TIP3    H123260   3.673   5.398   0.685
 7773TIP3    H223261   3.818   5.414   0.724
 7774TIP3   OH223262   3.981   6.702   4.840
 7774TIP3    H123263   3.896   6.734   4.868
 7774TIP3    H223264   4.044   6.749   4.896
 7775TIP3   OH223265   3.405   4.431   1.140
 7775TIP3    H123266   3.501   4.429   1.143
 7775TIP3    H223267   3.384   4.515   1.100
 7776TIP3   OH223268   6.987   2.658   3.746
 7776TIP3    H123269   6.976   2.746   3.782
 7776TIP3    H223270   6.913   2.648   3.686
 7777TIP3   OH223271   6.108   6.077   1.759
 7777TIP3    H123272   6.032   6.066   1.816
 7777TIP3    H223273   6.152   6.155   1.793
 7778TIP3   OH223274   3.269   5.386   1.279
 7778TIP3    H123275   3.203   5.455   1.275
 7778TIP3    H223276   3.326   5.403   1.204
 7779TIP3   OH223277   2.579   1.322   4.184
 7779TIP3    H123278   2.564   1.303   4.092
 7779TIP3    H223279   2.516   1.391   4.205
 7780TIP3   OH223280   5.791   6.354   1.602
 7780TIP3    H123281   5.865   6.352   1.541
 7780TIP3    H223282   5.714   6.344   1.546
 7781TIP3   OH223283   1.553   1.039   1.769
 7781TIP3    H123284   1.502   0.989   1.832
 7781TIP3    H223285   1.643   1.008   1.781
 7782TIP3   OH223286   3.142   5.213   4.520
 7782TIP3    H123287   3.160   5.302   4.489
 7782TIP3    H223288   3.047   5.212   4.534
 7783TIP3   OH223289   0.115   1.922   6.397
 7783TIP3    H123290   0.138   1.839   6.439
 7783TIP3    H223291   0.083   1.897   6.310
 7784TIP3   OH223292   6.548   0.430   0.824
 7784TIP3    H123293   6.494   0.481   0.765
 7784TIP3    H223294   6.599   0.495   0.873
 7785TIP3   OH223295   7.823   4.710   0.400
 7785TIP3    H123296   7.854   4.699   0.310
 7785TIP3    H223297   7.883   4.658   0.453
 7786TIP3   OH223298   2.822   3.031   1.339
 7786TIP3    H123299   2.886   3.037   1.409
 7786TIP3    H223300   2.812   2.937   1.323
 7787TIP3   OH223301   2.561   5.144   2.489
 7787TIP3    H123302   2.473   5.109   2.503
 7787TIP3    H223303   2.620   5.070   2.508
 7788TIP3   OH223304   5.414   6.321   6.573
 7788TIP3    H123305   5.320   6.334   6.566
 7788TIP3    H223306   5.449   6.357   6.491
 7789TIP3   OH223307   1.445   2.137   4.903
 7789TIP3    H123308   1.352   2.146   4.927
 7789TIP3    H223309   1.447   2.060   4.846
 7790TIP3   OH223310   4.816   0.242   5.641
 7790TIP3    H123311   4.773   0.157   5.640
 7790TIP3    H223312   4.899   0.227   5.687
 7791TIP3   OH223313   6.153   6.440   3.095
 7791TIP3    H123314   6.163   6.383   3.171
 7791TIP3    H223315   6.199   6.520   3.119
 7792TIP3   OH223316   1.719   7.827   5.778
 7792TIP3    H123317   1.709   7.733   5.792
 7792TIP3    H223318   1.653   7.866   5.835
 7793TIP3   OH223319   6.674   2.553   6.767
 7793TIP3    H123320   6.748   2.510   6.810
 7793TIP3    H223321   6.635   2.609   6.835
 7794TIP3   OH223322   2.383   2.341   5.203
 7794TIP3    H123323   2.443   2.400   5.246
 7794TIP3    H223324   2.430   2.258   5.197
 7795TIP3   OH223325   3.071   5.447   0.762
 7795TIP3    H123326   3.148   5.500   0.740
 7795TIP3    H223327   3.046   5.407   0.678
 7796TIP3   OH223328   5.945   3.788   4.458
 7796TIP3    H123329   5.955   3.736   4.379
 7796TIP3    H223330   5.891   3.734   4.516
 7797TIP3   OH223331   6.424   1.972   6.403
 7797TIP3    H123332   6.337   1.934   6.408
 7797TIP3    H223333   6.464   1.932   6.326
 7798TIP3   OH223334   0.521   4.201   5.477
 7798TIP3    H123335   0.429   4.192   5.503
 7798TIP3    H223336   0.525   4.167   5.388
 7799TIP3   OH223337   5.234   6.658   1.837
 7799TIP3    H123338   5.165   6.704   1.885
 7799TIP3    H223339   5.243   6.707   1.755
 7800TIP3   OH223340   2.183   1.859   0.268
 7800TIP3    H123341   2.133   1.855   0.186
 7800TIP3    H223342   2.274   1.847   0.241
 7801TIP3   OH223343   5.215   3.806   4.598
 7801TIP3    H123344   5.288   3.751   4.627
 7801TIP3    H223345   5.176   3.758   4.525
 7802TIP3   OH223346   1.840   4.832   6.419
 7802TIP3    H123347   1.784   4.891   6.469
 7802TIP3    H223348   1.783   4.758   6.398
 7803TIP3   OH223349   7.639   2.054   0.446
 7803TIP3    H123350   7.711   2.110   0.474
 7803TIP3    H223351   7.566   2.081   0.501
 7804TIP3   OH223352   1.826   5.570   5.089
 7804TIP3    H123353   1.760   5.513   5.051
 7804TIP3    H223354   1.811   5.565   5.184
 7805TIP3   OH223355   4.405   2.996   1.763
 7805TIP3    H123356   4.373   3.028   1.679
 7805TIP3    H223357   4.440   3.074   1.807
 7806TIP3   OH223358   4.628   4.185   0.703
 7806TIP3    H123359   4.549   4.149   0.664
 7806TIP3    H223360   4.700   4.135   0.663
 7807TIP3   OH223361   1.594   6.804   4.863
 7807TIP3    H123362   1.527   6.871   4.877
 7807TIP3    H223363   1.657   6.818   4.933
 7808TIP3   OH223364   7.658   1.590   6.648
 7808TIP3    H123365   7.620   1.520   6.595
 7808TIP3    H223366   7.584   1.625   6.698
 7809TIP3   OH223367   7.069   4.425   3.264
 7809TIP3    H123368   7.107   4.378   3.189
 7809TIP3    H223369   7.137   4.486   3.291
 7810TIP3   OH223370   1.252   1.662   3.032
 7810TIP3    H123371   1.269   1.614   3.113
 7810TIP3    H223372   1.157   1.672   3.030
 7811TIP3   OH223373   6.298   6.101   2.412
 7811TIP3    H123374   6.280   6.100   2.506
 7811TIP3    H223375   6.365   6.169   2.401
 7812TIP3   OH223376   1.507   4.378   4.764
 7812TIP3    H123377   1.535   4.396   4.674
 7812TIP3    H223378   1.416   4.349   4.756
 7813TIP3   OH223379   4.884   6.176   5.295
 7813TIP3    H123380   4.835   6.095   5.309
 7813TIP3    H223381   4.822   6.246   5.315
 7814TIP3   OH223382   4.597   3.152   4.766
 7814TIP3    H123383   4.596   3.243   4.797
 7814TIP3    H223384   4.652   3.106   4.829
 7815TIP3   OH223385   4.206   0.171   4.060
 7815TIP3    H123386   4.236   0.135   4.143
 7815TIP3    H223387   4.282   0.217   4.025
 7816TIP3   OH223388   7.094   4.680   2.225
 7816TIP3    H123389   7.066   4.739   2.295
 7816TIP3    H223390   7.047   4.710   2.148
 7817TIP3   OH223391   5.644   5.487   1.328
 7817TIP3    H123392   5.596   5.482   1.410
 7817TIP3    H223393   5.646   5.580   1.307
 7818TIP3   OH223394   3.115   7.441   4.261
 7818TIP3    H123395   3.043   7.432   4.198
 7818TIP3    H223396   3.154   7.354   4.265
 7819TIP3   OH223397   4.759   5.771   0.852
 7819TIP3    H123398   4.827   5.768   0.785
 7819TIP3    H223399   4.683   5.810   0.808
 7820TIP3   OH223400   7.574   6.154   4.152
 7820TIP3    H123401   7.520   6.114   4.084
 7820TIP3    H223402   7.511   6.186   4.217
 7821TIP3   OH223403   5.083   1.814   2.320
 7821TIP3    H123404   5.017   1.852   2.378
 7821TIP3    H223405   5.071   1.859   2.237
 7822TIP3   OH223406   5.999   3.648   1.615
 7822TIP3    H123407   6.023   3.559   1.641
 7822TIP3    H223408   6.031   3.703   1.686
 7823TIP3   OH223409   2.139   2.397   5.338
 7823TIP3    H123410   2.207   2.351   5.288
 7823TIP3    H223411   2.059   2.383   5.287
 7824TIP3   OH223412   7.379   0.352   3.442
 7824TIP3    H123413   7.370   0.447   3.442
 7824TIP3    H223414   7.289   0.320   3.437
 7825TIP3   OH223415   7.149   5.104   6.235
 7825TIP3    H123416   7.116   5.151   6.158
 7825TIP3    H223417   7.214   5.043   6.199
 7826TIP3   OH223418   5.885   1.279   1.869
 7826TIP3    H123419   5.830   1.320   1.936
 7826TIP3    H223420   5.848   1.309   1.786
 7827TIP3   OH223421   0.152   2.903   6.640
 7827TIP3    H123422   0.236   2.946   6.653
 7827TIP3    H223423   0.124   2.876   6.727
 7828TIP3   OH223424   3.193   5.236   0.416
 7828TIP3    H123425   3.117   5.211   0.469
 7828TIP3    H223426   3.191   5.331   0.415
 7829TIP3   OH223427   6.408   0.837   1.932
 7829TIP3    H123428   6.427   0.797   1.847
 7829TIP3    H223429   6.314   0.826   1.943
 7830TIP3   OH223430   4.223   6.078   1.775
 7830TIP3    H123431   4.162   6.063   1.847
 7830TIP3    H223432   4.296   6.126   1.815
 7831TIP3   OH223433   4.504   7.871   2.867
 7831TIP3    H123434   4.474   7.907   2.951
 7831TIP3    H223435   4.598   7.863   2.877
 7832TIP3   OH223436   5.937   0.651   2.760
 7832TIP3    H123437   6.027   0.646   2.725
 7832TIP3    H223438   5.946   0.625   2.852
 7833TIP3   OH223439   3.997   0.895   3.724
 7833TIP3    H123440   3.919   0.926   3.771
 7833TIP3    H223441   4.050   0.853   3.791
 7834TIP3   OH223442   7.021   7.260   5.645
 7834TIP3    H123443   6.951   7.196   5.641
 7834TIP3    H223444   6.978   7.344   5.628
 7835TIP3   OH223445   0.139   0.693   0.201
 7835TIP3    H123446   0.060   0.665   0.247
 7835TIP3    H223447   0.204   0.625   0.222
 7836TIP3   OH223448   2.724   7.298   0.527
 7836TIP3    H123449   2.705   7.359   0.456
 7836TIP3    H223450   2.817   7.313   0.548
 7837TIP3   OH223451   1.365   7.649   2.774
 7837TIP3    H123452   1.341   7.741   2.758
 7837TIP3    H223453   1.378   7.643   2.868
 7838TIP3   OH223454   4.253   6.848   3.119
 7838TIP3    H123455   4.297   6.932   3.103
 7838TIP3    H223456   4.287   6.819   3.204
 7839TIP3   OH223457   5.499   1.491   1.081
 7839TIP3    H123458   5.492   1.395   1.074
 7839TIP3    H223459   5.471   1.511   1.170
 7840TIP3   OH223460   5.275   0.937   5.377
 7840TIP3    H123461   5.335   0.863   5.380
 7840TIP3    H223462   5.243   0.938   5.287
 7841TIP3   OH223463   0.972   4.869   6.779
 7841TIP3    H123464   0.961   4.875   6.684
 7841TIP3    H223465   1.053   4.917   6.797
 7842TIP3   OH223466   3.968   5.546   3.969
 7842TIP3    H123467   3.888   5.549   4.021
 7842TIP3    H223468   4.015   5.469   4.001
 7843TIP3   OH223469   5.107   2.586   4.725
 7843TIP3    H123470   5.189   2.538   4.726
 7843TIP3    H223471   5.044   2.527   4.766
 7844TIP3   OH223472   3.404   5.344   5.020
 7844TIP3    H123473   3.316   5.381   5.027
 7844TIP3    H223474   3.396   5.257   5.059
 7845TIP3   OH223475   6.063   7.416   2.636
 7845TIP3    H123476   6.111   7.496   2.659
 7845TIP3    H223477   6.049   7.371   2.719
 7846TIP3   OH223478   3.998   4.636   3.304
 7846TIP3    H123479   3.975   4.617   3.213
 7846TIP3    H223480   4.045   4.719   3.299
 7847TIP3   OH223481   2.041   4.754   4.160
 7847TIP3    H123482   1.965   4.779   4.107
 7847TIP3    H223483   2.051   4.826   4.223
 7848TIP3   OH223484   4.606   2.900   3.322
 7848TIP3    H123485   4.681   2.855   3.360
 7848TIP3    H223486   4.593   2.858   3.237
 7849TIP3   OH223487   1.090   0.989   1.352
 7849TIP3    H123488   1.027   0.986   1.424
 7849TIP3    H223489   1.135   1.073   1.363
 7850TIP3   OH223490   0.928   2.336   6.012
 7850TIP3    H123491   0.882   2.254   6.029
 7850TIP3    H223492   0.987   2.346   6.087
 7851TIP3   OH223493   3.655   7.614   6.736
 7851TIP3    H123494   3.625   7.636   6.648
 7851TIP3    H223495   3.743   7.651   6.741
 7852TIP3   OH223496   2.636   0.044   5.968
 7852TIP3    H123497   2.679   0.125   5.996
 7852TIP3    H223498   2.638  -0.012   6.045
 7853TIP3   OH223499   4.657   0.902   1.623
 7853TIP3    H123500   4.658   0.831   1.687
 7853TIP3    H223501   4.612   0.865   1.547
 7854TIP3   OH223502   1.801   7.787   1.887
 7854TIP3    H123503   1.787   7.801   1.793
 7854TIP3    H223504   1.797   7.875   1.925
 7855TIP3   OH223505   5.164   5.011   4.890
 7855TIP3    H123506   5.218   4.980   4.962
 7855TIP3    H223507   5.079   5.029   4.930
 7856TIP3   OH223508   7.315   2.757   0.166
 7856TIP3    H123509   7.365   2.730   0.090
 7856TIP3    H223510   7.372   2.737   0.241
 7857TIP3   OH223511   1.364   6.052   1.711
 7857TIP3    H123512   1.434   5.988   1.726
 7857TIP3    H223513   1.285   5.999   1.701
 7858TIP3   OH223514   2.285   4.120   4.449
 7858TIP3    H123515   2.310   4.049   4.389
 7858TIP3    H223516   2.215   4.166   4.402
 7859TIP3   OH223517   4.664   0.244   3.410
 7859TIP3    H123518   4.602   0.256   3.482
 7859TIP3    H223519   4.655   0.152   3.385
 7860TIP3   OH223520   6.106   5.837   2.746
 7860TIP3    H123521   6.143   5.846   2.658
 7860TIP3    H223522   6.173   5.791   2.796
 7861TIP3   OH223523   1.013   6.919   0.804
 7861TIP3    H123524   1.043   6.832   0.779
 7861TIP3    H223525   1.017   6.919   0.900
 7862TIP3   OH223526   5.169   2.003   5.370
 7862TIP3    H123527   5.180   2.093   5.340
 7862TIP3    H223528   5.209   1.950   5.302
 7863TIP3   OH223529   3.529   3.305   4.737
 7863TIP3    H123530   3.537   3.277   4.828
 7863TIP3    H223531   3.466   3.378   4.739
 7864TIP3   OH223532   4.807   0.649   5.862
 7864TIP3    H123533   4.847   0.736   5.856
 7864TIP3    H223534   4.820   0.611   5.775
 7865TIP3   OH223535   2.568   7.327   4.053
 7865TIP3    H123536   2.547   7.246   4.005
 7865TIP3    H223537   2.596   7.388   3.985
 7866TIP3   OH223538   8.319   7.452   2.038
 7866TIP3    H123539   8.296   7.373   2.087
 7866TIP3    H223540   8.266   7.447   1.959
 7867TIP3   OH223541   5.671   3.735   5.954
 7867TIP3    H123542   5.748   3.779   5.916
 7867TIP3    H223543   5.614   3.719   5.879
 7868TIP3   OH223544   4.327   6.092   0.638
 7868TIP3    H123545   4.270   6.165   0.612
 7868TIP3    H223546   4.362   6.059   0.555
 7869TIP3   OH223547   1.173   5.609   5.261
 7869TIP3    H123548   1.219   5.534   5.298
 7869TIP3    H223549   1.149   5.663   5.336
 7870TIP3   OH223550   3.377   7.424   1.112
 7870TIP3    H123551   3.378   7.520   1.110
 7870TIP3    H223552   3.415   7.402   1.198
 7871TIP3   OH223553   3.176   1.657   0.046
 7871TIP3    H123554   3.158   1.720  -0.024
 7871TIP3    H223555   3.103   1.595   0.042
 7872TIP3   OH223556   4.512   5.889   0.724
 7872TIP3    H123557   4.446   5.958   0.738
 7872TIP3    H223558   4.486   5.819   0.784
 7873TIP3   OH223559   4.834   6.749   1.791
 7873TIP3    H123560   4.858   6.773   1.702
 7873TIP3    H223561   4.747   6.786   1.804
 7874TIP3   OH223562   0.497   7.476   3.769
 7874TIP3    H123563   0.554   7.507   3.698
 7874TIP3    H223564   0.526   7.526   3.846
 7875TIP3   OH223565   4.499   4.906   0.048
 7875TIP3    H123566   4.515   4.889  -0.045
 7875TIP3    H223567   4.407   4.884   0.061
 7876TIP3   OH223568   7.589   6.180   0.693
 7876TIP3    H123569   7.494   6.189   0.701
 7876TIP3    H223570   7.611   6.108   0.752
 7877TIP3   OH223571   5.787   5.744   4.464
 7877TIP3    H123572   5.783   5.781   4.376
 7877TIP3    H223573   5.878   5.753   4.490
 7878TIP3   OH223574   8.098   6.415   2.356
 7878TIP3    H123575   8.097   6.498   2.405
 7878TIP3    H223576   8.050   6.434   2.276
 7879TIP3   OH223577   8.233   1.773   6.433
 7879TIP3    H123578   8.204   1.861   6.457
 7879TIP3    H223579   8.321   1.785   6.400
 7880TIP3   OH223580   5.110   6.760   2.650
 7880TIP3    H123581   5.178   6.693   2.643
 7880TIP3    H223582   5.058   6.733   2.726
 7881TIP3   OH223583   1.848   6.605   0.631
 7881TIP3    H123584   1.899   6.542   0.680
 7881TIP3    H223585   1.825   6.673   0.694
 7882TIP3   OH223586   5.334   0.432   6.445
 7882TIP3    H123587   5.306   0.340   6.448
 7882TIP3    H223588   5.402   0.433   6.378
 7883TIP3   OH223589   1.788   7.391   0.785
 7883TIP3    H123590   1.759   7.319   0.729
 7883TIP3    H223591   1.722   7.395   0.854
 7884TIP3   OH223592   5.897   5.974   3.278
 7884TIP3    H123593   5.882   6.068   3.272
 7884TIP3    H223594   5.902   5.944   3.187
 7885TIP3   OH223595   5.602   4.823   3.492
 7885TIP3    H123596   5.650   4.833   3.574
 7885TIP3    H223597   5.593   4.729   3.480
 7886TIP3   OH223598   5.820   2.061   0.181
 7886TIP3    H123599   5.811   1.975   0.224
 7886TIP3    H223600   5.912   2.065   0.155
 7887TIP3   OH223601   1.642   4.364   2.577
 7887TIP3    H123602   1.565   4.386   2.524
 7887TIP3    H223603   1.716   4.398   2.527
 7888TIP3   OH223604   4.951   5.143   4.040
 7888TIP3    H123605   5.016   5.135   3.970
 7888TIP3    H223606   4.997   5.112   4.118
 7889TIP3   OH223607   6.509   5.555   2.037
 7889TIP3    H123608   6.462   5.587   2.114
 7889TIP3    H223609   6.600   5.577   2.053
 7890TIP3   OH223610   8.343   5.622   5.693
 7890TIP3    H123611   8.276   5.681   5.658
 7890TIP3    H223612   8.294   5.555   5.740
 7891TIP3   OH223613   5.104   7.506   2.969
 7891TIP3    H123614   5.008   7.505   2.963
 7891TIP3    H223615   5.133   7.547   2.888
 7892TIP3   OH223616   3.632   4.928   6.375
 7892TIP3    H123617   3.663   4.840   6.355
 7892TIP3    H223618   3.705   4.985   6.353
 7893TIP3   OH223619   6.479   2.019   5.815
 7893TIP3    H123620   6.508   2.033   5.724
 7893TIP3    H223621   6.432   1.937   5.812
 7894TIP3   OH223622   6.030   0.475   1.030
 7894TIP3    H123623   6.109   0.421   1.035
 7894TIP3    H223624   5.995   0.475   1.119
 7895TIP3   OH223625   0.115   4.869   5.970
 7895TIP3    H123626   0.041   4.928   5.954
 7895TIP3    H223627   0.078   4.781   5.962
 7896TIP3   OH223628   7.071   2.586   4.421
 7896TIP3    H123629   7.101   2.512   4.367
 7896TIP3    H223630   7.005   2.549   4.479
 7897TIP3   OH223631   2.210   6.634   2.013
 7897TIP3    H123632   2.295   6.677   2.000
 7897TIP3    H223633   2.231   6.541   2.019
 7898TIP3   OH223634   2.216   5.550   1.861
 7898TIP3    H123635   2.194   5.500   1.783
 7898TIP3    H223636   2.299   5.593   1.840
 7899TIP3   OH223637   5.806   3.542   4.116
 7899TIP3    H123638   5.845   3.552   4.029
 7899TIP3    H223639   5.874   3.499   4.168
 7900TIP3   OH223640   1.712   7.545   6.138
 7900TIP3    H123641   1.783   7.577   6.082
 7900TIP3    H223642   1.671   7.475   6.087
 7901TIP3   OH223643   1.199   7.925   0.531
 7901TIP3    H123644   1.148   7.956   0.455
 7901TIP3    H223645   1.188   7.830   0.530
 7902TIP3   OH223646   6.174   6.536   4.604
 7902TIP3    H123647   6.135   6.606   4.657
 7902TIP3    H223648   6.102   6.474   4.591
 7903TIP3   OH223649   8.077   5.957   6.056
 7903TIP3    H123650   8.022   5.911   5.992
 7903TIP3    H223651   8.162   5.914   6.050
 7904TIP3   OH223652   4.553   3.165   3.420
 7904TIP3    H123653   4.590   3.089   3.376
 7904TIP3    H223654   4.494   3.204   3.356
 7905TIP3   OH223655   4.832   1.779   3.065
 7905TIP3    H123656   4.827   1.752   3.156
 7905TIP3    H223657   4.756   1.738   3.024
 7906TIP3   OH223658   6.641   3.762   2.276
 7906TIP3    H123659   6.648   3.834   2.338
 7906TIP3    H223660   6.602   3.802   2.198
 7907TIP3   OH223661   4.219   6.078   2.718
 7907TIP3    H123662   4.133   6.050   2.686
 7907TIP3    H223663   4.275   6.001   2.708
 7908TIP3   OH223664   6.902   7.437   2.514
 7908TIP3    H123665   6.818   7.417   2.554
 7908TIP3    H223666   6.889   7.421   2.420
 7909TIP3   OH223667   4.801   1.932   1.059
 7909TIP3    H123668   4.836   2.011   1.098
 7909TIP3    H223669   4.707   1.947   1.052
 7910TIP3   OH223670   0.210   2.429   4.084
 7910TIP3    H123671   0.186   2.351   4.134
 7910TIP3    H223672   0.145   2.432   4.013
 7911TIP3   OH223673   4.290   4.835   1.184
 7911TIP3    H123674   4.312   4.874   1.269
 7911TIP3    H223675   4.333   4.749   1.185
 7912TIP3   OH223676   4.681   6.017   5.409
 7912TIP3    H123677   4.669   6.109   5.436
 7912TIP3    H223678   4.596   5.990   5.375
 7913TIP3   OH223679   3.833   4.604   2.524
 7913TIP3    H123680   3.741   4.609   2.498
 7913TIP3    H223681   3.879   4.583   2.443
 7914TIP3   OH223682   7.787   6.536   1.660
 7914TIP3    H123683   7.824   6.609   1.611
 7914TIP3    H223684   7.738   6.486   1.595
 7915TIP3   OH223685   1.913   2.287   3.599
 7915TIP3    H123686   1.857   2.355   3.563
 7915TIP3    H223687   2.001   2.325   3.599
 7916TIP3   OH223688   2.829   1.309   3.180
 7916TIP3    H123689   2.819   1.214   3.189
 7916TIP3    H223690   2.924   1.323   3.175
 7917TIP3   OH223691   8.402   1.743   0.494
 7917TIP3    H123692   8.317   1.701   0.506
 7917TIP3    H223693   8.417   1.790   0.576
 7918TIP3   OH223694   0.891   2.336   3.679
 7918TIP3    H123695   0.875   2.426   3.708
 7918TIP3    H223696   0.891   2.284   3.759
 7919TIP3   OH223697   7.667   4.433   3.292
 7919TIP3    H123698   7.631   4.361   3.343
 7919TIP3    H223699   7.762   4.425   3.303
 7920TIP3   OH223700   8.221   7.124   3.003
 7920TIP3    H123701   8.306   7.138   3.045
 7920TIP3    H223702   8.225   7.035   2.969
 7921TIP3   OH223703   2.750   2.799   0.178
 7921TIP3    H123704   2.758   2.768   0.088
 7921TIP3    H223705   2.826   2.762   0.223
 7922TIP3   OH223706   1.862   6.785   4.634
 7922TIP3    H123707   1.899   6.747   4.715
 7922TIP3    H223708   1.880   6.719   4.567
 7923TIP3   OH223709   8.040   1.885   2.497
 7923TIP3    H123710   8.077   1.943   2.431
 7923TIP3    H223711   8.097   1.808   2.496
 7924TIP3   OH223712   0.884   1.553   5.295
 7924TIP3    H123713   0.920   1.538   5.207
 7924TIP3    H223714   0.961   1.566   5.350
 7925TIP3   OH223715   1.243   5.646   1.733
 7925TIP3    H123716   1.154   5.661   1.763
 7925TIP3    H223717   1.259   5.714   1.668
 7926TIP3   OH223718   7.423   6.639   4.237
 7926TIP3    H123719   7.434   6.730   4.211
 7926TIP3    H223720   7.511   6.607   4.255
 7927TIP3   OH223721   3.131   4.579   5.418
 7927TIP3    H123722   3.184   4.503   5.392
 7927TIP3    H223723   3.113   4.624   5.335
 7928TIP3   OH223724   2.582   6.011   3.359
 7928TIP3    H123725   2.601   5.925   3.322
 7928TIP3    H223726   2.658   6.064   3.338
 7929TIP3   OH223727   1.178   3.293   4.908
 7929TIP3    H123728   1.232   3.266   4.833
 7929TIP3    H223729   1.099   3.329   4.868
 7930TIP3   OH223730   3.175   3.567   6.869
 7930TIP3    H123731   3.199   3.494   6.926
 7930TIP3    H223732   3.146   3.525   6.788
 7931TIP3   OH223733   4.312   1.221   2.268
 7931TIP3    H123734   4.263   1.184   2.195
 7931TIP3    H223735   4.297   1.316   2.261
 7932TIP3   OH223736   5.631   6.420   6.079
 7932TIP3    H123737   5.536   6.418   6.066
 7932TIP3    H223738   5.642   6.442   6.171
 7933TIP3   OH223739   4.009   6.332   2.448
 7933TIP3    H123740   4.074   6.317   2.379
 7933TIP3    H223741   4.029   6.420   2.481
 7934TIP3   OH223742   0.321   1.685   2.462
 7934TIP3    H123743   0.297   1.738   2.538
 7934TIP3    H223744   0.416   1.672   2.471
 7935TIP3   OH223745   7.558   4.852   2.988
 7935TIP3    H123746   7.543   4.945   2.973
 7935TIP3    H223747   7.521   4.809   2.911
 7936TIP3   OH223748   5.927   0.936   5.248
 7936TIP3    H123749   6.014   0.976   5.245
 7936TIP3    H223750   5.896   0.953   5.337
 7937TIP3   OH223751   1.132   0.625   1.740
 7937TIP3    H123752   1.200   0.685   1.708
 7937TIP3    H223753   1.175   0.540   1.743
 7938TIP3   OH223754   4.603   1.607   4.233
 7938TIP3    H123755   4.532   1.608   4.297
 7938TIP3    H223756   4.591   1.526   4.184
 7939TIP3   OH223757   3.866   1.296   2.996
 7939TIP3    H123758   3.839   1.378   2.954
 7939TIP3    H223759   3.952   1.315   3.032
 7940TIP3   OH223760   1.082   2.194   2.339
 7940TIP3    H123761   1.073   2.162   2.250
 7940TIP3    H223762   1.018   2.264   2.347
 7941TIP3   OH223763   7.017   2.784   6.202
 7941TIP3    H123764   7.087   2.719   6.214
 7941TIP3    H223765   6.945   2.752   6.256
 7942TIP3   OH223766   6.899   0.232   5.763
 7942TIP3    H123767   6.975   0.212   5.817
 7942TIP3    H223768   6.871   0.147   5.729
 7943TIP3   OH223769   4.597   0.284   2.953
 7943TIP3    H123770   4.518   0.264   3.002
 7943TIP3    H223771   4.566   0.316   2.869
 7944TIP3   OH223772   6.611   4.960   4.322
 7944TIP3    H123773   6.563   4.919   4.394
 7944TIP3    H223774   6.702   4.962   4.352
 7945TIP3   OH223775   4.825   6.439   1.890
 7945TIP3    H123776   4.836   6.514   1.832
 7945TIP3    H223777   4.832   6.476   1.978
 7946TIP3   OH223778   0.951   5.534   2.170
 7946TIP3    H123779   0.958   5.530   2.265
 7946TIP3    H223780   0.970   5.625   2.148
 7947TIP3   OH223781   0.569   2.509   2.182
 7947TIP3    H123782   0.563   2.418   2.156
 7947TIP3    H223783   0.622   2.551   2.114
 7948TIP3   OH223784   7.850   2.575   6.747
 7948TIP3    H123785   7.880   2.661   6.717
 7948TIP3    H223786   7.780   2.594   6.809
 7949TIP3   OH223787   2.303   4.321   2.012
 7949TIP3    H123788   2.236   4.389   2.019
 7949TIP3    H223789   2.386   4.369   2.011
 7950TIP3   OH223790   5.231   5.990   1.911
 7950TIP3    H123791   5.203   6.050   1.981
 7950TIP3    H223792   5.326   5.985   1.920
 7951TIP3   OH223793   2.809   7.731   5.769
 7951TIP3    H123794   2.842   7.775   5.691
 7951TIP3    H223795   2.795   7.640   5.741
 7952TIP3   OH223796   4.036   4.045   2.534
 7952TIP3    H123797   3.955   4.064   2.581
 7952TIP3    H223798   4.028   4.091   2.451
 7953TIP3   OH223799   1.632   0.064   3.784
 7953TIP3    H123800   1.606   0.150   3.751
 7953TIP3    H223801   1.708   0.039   3.731
 7954TIP3   OH223802   6.780   5.204   6.166
 7954TIP3    H123803   6.710   5.146   6.197
 7954TIP3    H223804   6.768   5.285   6.216
 7955TIP3   OH223805   0.185   6.726   2.896
 7955TIP3    H123806   0.134   6.648   2.915
 7955TIP3    H223807   0.195   6.725   2.800
 7956TIP3   OH223808   1.862   5.066   0.186
 7956TIP3    H123809   1.953   5.041   0.201
 7956TIP3    H223810   1.819   4.986   0.159
 7957TIP3   OH223811   2.675   3.797   6.254
 7957TIP3    H123812   2.633   3.770   6.173
 7957TIP3    H223813   2.614   3.858   6.295
 7958TIP3   OH223814   8.178   1.025   2.734
 7958TIP3    H123815   8.214   0.937   2.733
 7958TIP3    H223816   8.173   1.051   2.642
 7959TIP3   OH223817   6.464   1.373   0.025
 7959TIP3    H123818   6.448   1.340   0.114
 7959TIP3    H223819   6.558   1.389   0.023
 7960TIP3   OH223820   2.162   5.390   4.679
 7960TIP3    H123821   2.206   5.434   4.606
 7960TIP3    H223822   2.231   5.375   4.743
 7961TIP3   OH223823   0.665   4.411   0.178
 7961TIP3    H123824   0.712   4.329   0.188
 7961TIP3    H223825   0.698   4.447   0.095
 7962TIP3   OH223826   4.421   0.870   3.071
 7962TIP3    H123827   4.352   0.809   3.098
 7962TIP3    H223828   4.442   0.920   3.150
 7963TIP3   OH223829   5.719   4.695   2.921
 7963TIP3    H123830   5.779   4.629   2.886
 7963TIP3    H223831   5.655   4.645   2.972
 7964TIP3   OH223832   1.156   3.451   5.965
 7964TIP3    H123833   1.122   3.539   5.980
 7964TIP3    H223834   1.244   3.453   6.002
 7965TIP3   OH223835   5.467   4.571   4.608
 7965TIP3    H123836   5.384   4.534   4.578
 7965TIP3    H223837   5.449   4.664   4.621
 7966TIP3   OH223838   7.408   0.840   3.865
 7966TIP3    H123839   7.334   0.884   3.823
 7966TIP3    H223840   7.369   0.796   3.941
 7967TIP3   OH223841   1.161   7.656   6.048
 7967TIP3    H123842   1.130   7.591   6.111
 7967TIP3    H223843   1.125   7.629   5.964
 7968TIP3   OH223844   2.966   5.744   5.257
 7968TIP3    H123845   3.045   5.793   5.280
 7968TIP3    H223846   2.922   5.800   5.192
 7969TIP3   OH223847   1.588   2.804   3.189
 7969TIP3    H123848   1.496   2.800   3.163
 7969TIP3    H223849   1.631   2.740   3.132
 7970TIP3   OH223850   6.672   0.830   0.285
 7970TIP3    H123851   6.634   0.903   0.333
 7970TIP3    H223852   6.739   0.871   0.229
 7971TIP3   OH223853   2.396   0.268   6.528
 7971TIP3    H123854   2.376   0.194   6.471
 7971TIP3    H223855   2.402   0.343   6.469
 7972TIP3   OH223856   7.731   4.114   1.711
 7972TIP3    H123857   7.716   4.128   1.617
 7972TIP3    H223858   7.823   4.134   1.724
 7973TIP3   OH223859   7.824   0.905   5.857
 7973TIP3    H123860   7.884   0.840   5.895
 7973TIP3    H223861   7.865   0.989   5.876
 7974TIP3   OH223862   3.897   1.686   0.046
 7974TIP3    H123863   3.897   1.615  -0.018
 7974TIP3    H223864   3.848   1.757   0.004
 7975TIP3   OH223865   2.636   0.960   0.563
 7975TIP3    H123866   2.700   0.914   0.507
 7975TIP3    H223867   2.684   1.034   0.598
 7976TIP3   OH223868   2.915   7.229   4.154
 7976TIP3    H123869   2.884   7.319   4.150
 7976TIP3    H223870   2.841   7.179   4.187
 7977TIP3   OH223871   5.624   7.006   4.975
 7977TIP3    H123872   5.568   7.031   5.048
 7977TIP3    H223873   5.695   6.956   5.015
 7978TIP3   OH223874   3.923   0.543   3.906
 7978TIP3    H123875   3.858   0.611   3.923
 7978TIP3    H223876   3.881   0.484   3.843
 7979TIP3   OH223877   4.607   5.247   6.411
 7979TIP3    H123878   4.538   5.232   6.476
 7979TIP3    H223879   4.570   5.313   6.353
 7980TIP3   OH223880   1.299   0.145   5.047
 7980TIP3    H123881   1.205   0.156   5.062
 7980TIP3    H223882   1.340   0.188   5.122
 7981TIP3   OH223883   0.457   3.726   2.588
 7981TIP3    H123884   0.438   3.820   2.595
 7981TIP3    H223885   0.515   3.719   2.512
 7982TIP3   OH223886   6.420   1.679   3.573
 7982TIP3    H123887   6.427   1.592   3.612
 7982TIP3    H223888   6.504   1.721   3.591
 7983TIP3   OH223889   4.274   6.209   1.414
 7983TIP3    H123890   4.330   6.281   1.384
 7983TIP3    H223891   4.235   6.241   1.495
 7984TIP3   OH223892   2.671   0.241   1.333
 7984TIP3    H123893   2.681   0.233   1.239
 7984TIP3    H223894   2.639   0.155   1.361
 7985TIP3   OH223895   4.813   3.348   4.287
 7985TIP3    H123896   4.894   3.372   4.333
 7985TIP3    H223897   4.743   3.386   4.340
 7986TIP3   OH223898   6.356   2.712   1.517
 7986TIP3    H123899   6.381   2.620   1.530
 7986TIP3    H223900   6.318   2.714   1.429
 7987TIP3   OH223901   5.011   2.928   1.436
 7987TIP3    H123902   5.034   2.956   1.525
 7987TIP3    H223903   5.058   2.989   1.379
 7988TIP3   OH223904   3.317   2.710   2.924
 7988TIP3    H123905   3.395   2.689   2.872
 7988TIP3    H223906   3.348   2.769   2.992
 7989TIP3   OH223907   2.540   6.708   2.338
 7989TIP3    H123908   2.495   6.793   2.329
 7989TIP3    H223909   2.534   6.669   2.250
 7990TIP3   OH223910   0.971   0.463   2.987
 7990TIP3    H123911   0.961   0.507   2.902
 7990TIP3    H223912   1.062   0.478   3.012
 7991TIP3   OH223913   4.961   1.618   5.250
 7991TIP3    H123914   4.902   1.676   5.202
 7991TIP3    H223915   4.938   1.630   5.342
 7992TIP3   OH223916   2.078   6.084   0.721
 7992TIP3    H123917   2.068   6.053   0.811
 7992TIP3    H223918   2.119   6.011   0.674
 7993TIP3   OH223919   5.543   6.160   3.606
 7993TIP3    H123920   5.595   6.111   3.670
 7993TIP3    H223921   5.499   6.228   3.659
 7994TIP3   OH223922   5.696   1.817   0.636
 7994TIP3    H123923   5.719   1.882   0.702
 7994TIP3    H223924   5.605   1.795   0.655
 7995TIP3   OH223925   6.041   3.467   4.951
 7995TIP3    H123926   6.039   3.405   5.023
 7995TIP3    H223927   6.009   3.549   4.988
 7996TIP3   OH223928   6.325   1.531   1.492
 7996TIP3    H123929   6.397   1.593   1.487
 7996TIP3    H223930   6.317   1.511   1.585
 7997TIP3   OH223931   3.963   0.376   4.118
 7997TIP3    H123932   4.034   0.313   4.103
 7997TIP3    H223933   3.965   0.433   4.041
 7998TIP3   OH223934   7.832   1.679   4.719
 7998TIP3    H123935   7.756   1.652   4.771
 7998TIP3    H223936   7.905   1.629   4.757
 7999TIP3   OH223937   0.411   6.558   6.096
 7999TIP3    H123938   0.472   6.550   6.169
 7999TIP3    H223939   0.459   6.609   6.030
 8000TIP3   OH223940   3.923   1.086   6.217
 8000TIP3    H123941   3.921   1.177   6.247
 8000TIP3    H223942   3.831   1.065   6.199
 8001TIP3   OH223943   0.857   2.741   5.127
 8001TIP3    H123944   0.937   2.765   5.078
 8001TIP3    H223945   0.842   2.815   5.186
 8002TIP3   OH223946   8.206   4.391   5.909
 8002TIP3    H123947   8.257   4.350   5.979
 8002TIP3    H223948   8.130   4.429   5.954
 8003TIP3   OH223949   5.648   7.672   3.820
 8003TIP3    H123950   5.726   7.634   3.861
 8003TIP3    H223951   5.581   7.669   3.888
 8004TIP3   OH223952   2.524   7.160   3.531
 8004TIP3    H123953   2.612   7.127   3.511
 8004TIP3    H223954   2.469   7.081   3.532
 8005TIP3   OH223955   5.684   7.780   4.567
 8005TIP3    H123956   5.697   7.870   4.598
 8005TIP3    H223957   5.722   7.779   4.479
 8006TIP3   OH223958   3.065   3.321   2.891
 8006TIP3    H123959   3.021   3.402   2.866
 8006TIP3    H223960   2.998   3.253   2.880
 8007TIP3   OH223961   5.878   1.073   4.258
 8007TIP3    H123962   5.846   1.163   4.265
 8007TIP3    H223963   5.910   1.052   4.346
 8008TIP3   OH223964   0.549   2.206   0.154
 8008TIP3    H123965   0.531   2.276   0.092
 8008TIP3    H223966   0.580   2.133   0.100
 8009TIP3   OH223967   3.663   3.177   1.329
 8009TIP3    H123968   3.735   3.240   1.335
 8009TIP3    H223969   3.684   3.110   1.395
 8010TIP3   OH223970   8.194   7.499   5.862
 8010TIP3    H123971   8.258   7.448   5.911
 8010TIP3    H223972   8.242   7.534   5.788
 8011TIP3   OH223973   4.428   2.810   6.589
 8011TIP3    H123974   4.437   2.718   6.613
 8011TIP3    H223975   4.393   2.852   6.667
 8012TIP3   OH223976   2.312   3.215   3.964
 8012TIP3    H123977   2.232   3.228   4.015
 8012TIP3    H223978   2.365   3.292   3.984
 8013TIP3   OH223979   2.477   4.828   5.196
 8013TIP3    H123980   2.414   4.808   5.265
 8013TIP3    H223981   2.464   4.922   5.179
 8014TIP3   OH223982   3.610   5.183   1.537
 8014TIP3    H123983   3.530   5.191   1.485
 8014TIP3    H223984   3.677   5.227   1.484
 8015TIP3   OH223985   6.141   6.115   2.938
 8015TIP3    H123986   6.223   6.077   2.908
 8015TIP3    H223987   6.140   6.203   2.901
 8016TIP3   OH223988   0.700   5.945   0.797
 8016TIP3    H123989   0.642   6.020   0.785
 8016TIP3    H223990   0.768   5.957   0.732
 8017TIP3   OH223991   7.965   4.761   1.966
 8017TIP3    H123992   7.984   4.850   1.937
 8017TIP3    H223993   8.052   4.722   1.981
 8018TIP3   OH223994   7.106   4.813   3.548
 8018TIP3    H123995   7.154   4.893   3.570
 8018TIP3    H223996   7.032   4.812   3.608
 8019TIP3   OH223997   0.940   2.867   3.750
 8019TIP3    H123998   0.899   2.879   3.835
 8019TIP3    H223999   0.898   2.933   3.694
 8020TIP3   OH224000   8.276   7.386   4.260
 8020TIP3    H124001   8.189   7.358   4.234
 8020TIP3    H224002   8.304   7.446   4.190
 8021TIP3   OH224003   5.952   7.879   3.772
 8021TIP3    H124004   6.000   7.859   3.853
 8021TIP3    H224005   5.970   7.804   3.714
 8022TIP3   OH224006   1.774   1.007   4.982
 8022TIP3    H124007   1.740   1.047   5.062
 8022TIP3    H224008   1.853   0.961   5.010
 8023TIP3   OH224009   6.749   6.993   0.811
 8023TIP3    H124010   6.790   7.072   0.776
 8023TIP3    H224011   6.686   7.025   0.875
 8024TIP3   OH224012   5.224   6.393   1.420
 8024TIP3    H124013   5.314   6.419   1.400
 8024TIP3    H224014   5.229   6.298   1.434
 8025TIP3   OH224015   2.164   7.358   0.254
 8025TIP3    H124016   2.187   7.430   0.195
 8025TIP3    H224017   2.242   7.302   0.255
 8026TIP3   OH224018   4.807   3.001   4.621
 8026TIP3    H124019   4.880   2.941   4.604
 8026TIP3    H224020   4.781   3.032   4.534
 8027TIP3   OH224021   4.568   1.971   1.962
 8027TIP3    H124022   4.495   1.957   1.902
 8027TIP3    H224023   4.610   2.051   1.930
 8028TIP3   OH224024   1.447   5.949   0.737
 8028TIP3    H124025   1.374   5.893   0.711
 8028TIP3    H224026   1.514   5.889   0.768
 8029TIP3   OH224027   8.204   4.380   0.679
 8029TIP3    H124028   8.183   4.447   0.744
 8029TIP3    H224029   8.208   4.298   0.729
 8030TIP3   OH224030   0.232   2.049   5.538
 8030TIP3    H124031   0.161   2.100   5.501
 8030TIP3    H224032   0.210   2.040   5.631
 8031TIP3   OH224033   3.699   3.254   5.350
 8031TIP3    H124034   3.717   3.264   5.443
 8031TIP3    H224035   3.604   3.245   5.344
 8032TIP3   OH224036   3.896   7.762   6.458
 8032TIP3    H124037   3.859   7.674   6.446
 8032TIP3    H224038   3.908   7.770   6.553
 8033TIP3   OH224039   2.339   0.166   3.215
 8033TIP3    H124040   2.287   0.149   3.136
 8033TIP3    H224041   2.376   0.081   3.239
 8034TIP3   OH224042   7.809   7.212   4.222
 8034TIP3    H124043   7.861   7.158   4.282
 8034TIP3    H224044   7.748   7.260   4.278
 8035TIP3   OH224045   5.167   5.975   0.586
 8035TIP3    H124046   5.221   5.942   0.657
 8035TIP3    H224047   5.119   6.049   0.624
 8036TIP3   OH224048   5.611   1.131  -0.067
 8036TIP3    H124049   5.570   1.052  -0.032
 8036TIP3    H224050   5.559   1.202  -0.032
 8037TIP3   OH224051   1.233   6.304   6.128
 8037TIP3    H124052   1.297   6.374   6.140
 8037TIP3    H224053   1.174   6.313   6.203
 8038TIP3   OH224054   4.694   5.104   4.214
 8038TIP3    H124055   4.680   5.014   4.185
 8038TIP3    H224056   4.781   5.127   4.182
 8039TIP3   OH224057   6.169   6.496   6.816
 8039TIP3    H124058   6.158   6.499   6.911
 8039TIP3    H224059   6.263   6.485   6.803
 8040TIP3   OH224060   5.968   6.551   5.185
 8040TIP3    H124061   5.929   6.510   5.262
 8040TIP3    H224062   5.902   6.540   5.116
 8041TIP3   OH224063   1.762   2.619   0.155
 8041TIP3    H124064   1.791   2.639   0.244
 8041TIP3    H224065   1.748   2.705   0.115
 8042TIP3   OH224066   3.188   4.079   5.229
 8042TIP3    H124067   3.178   4.003   5.287
 8042TIP3    H224068   3.257   4.053   5.168
 8043TIP3   OH224069   6.516   7.406   6.490
 8043TIP3    H124070   6.586   7.340   6.492
 8043TIP3    H224071   6.452   7.374   6.554
 8044TIP3   OH224072   1.551   5.909   0.435
 8044TIP3    H124073   1.603   5.939   0.510
 8044TIP3    H224074   1.606   5.927   0.359
 8045TIP3   OH224075   6.916   0.940   2.955
 8045TIP3    H124076   7.007   0.968   2.961
 8045TIP3    H224077   6.878   0.996   2.887
 8046TIP3   OH224078   5.904   1.366   0.147
 8046TIP3    H124079   5.942   1.347   0.233
 8046TIP3    H224080   5.949   1.446   0.118
 8047TIP3   OH224081   0.920   6.705   3.441
 8047TIP3    H124082   0.883   6.660   3.364
 8047TIP3    H224083   0.978   6.641   3.481
 8048TIP3   OH224084   6.256   1.998   6.007
 8048TIP3    H124085   6.344   2.016   5.972
 8048TIP3    H224086   6.243   1.905   5.990
 8049TIP3   OH224087   2.149   5.272   3.312
 8049TIP3    H124088   2.124   5.358   3.345
 8049TIP3    H224089   2.079   5.214   3.344
 8050TIP3   OH224090   5.059   7.697   3.460
 8050TIP3    H124091   5.038   7.790   3.452
 8050TIP3    H224092   5.018   7.671   3.543
 8051TIP3   OH224093   1.686   5.917   3.199
 8051TIP3    H124094   1.677   5.997   3.251
 8051TIP3    H224095   1.773   5.923   3.161
 8052TIP3   OH224096   6.530   0.950   1.668
 8052TIP3    H124097   6.453   0.962   1.612
 8052TIP3    H224098   6.525   1.021   1.732
 8053TIP3   OH224099   0.674   6.390   0.216
 8053TIP3    H124100   0.689   6.482   0.196
 8053TIP3    H224101   0.602   6.391   0.280
 8054TIP3   OH224102   0.921   1.824   6.700
 8054TIP3    H124103   0.884   1.755   6.754
 8054TIP3    H224104   0.895   1.905   6.744
 8055TIP3   OH224105   5.410   4.801   1.088
 8055TIP3    H124106   5.380   4.807   0.997
 8055TIP3    H224107   5.425   4.892   1.115
 8056TIP3   OH224108   4.591   5.245   2.276
 8056TIP3    H124109   4.515   5.212   2.324
 8056TIP3    H224110   4.570   5.337   2.258
 8057TIP3   OH224111   5.740   2.726   0.586
 8057TIP3    H124112   5.709   2.637   0.600
 8057TIP3    H224113   5.831   2.716   0.556
 8058TIP3   OH224114   0.147   5.883   3.786
 8058TIP3    H124115   0.105   5.929   3.858
 8058TIP3    H224116   0.216   5.943   3.755
 8059TIP3   OH224117   3.046   1.497   5.898
 8059TIP3    H124118   2.957   1.483   5.866
 8059TIP3    H224119   3.101   1.448   5.836
 8060TIP3   OH224120   2.013   4.527   1.348
 8060TIP3    H124121   2.010   4.597   1.283
 8060TIP3    H224122   1.950   4.554   1.415
 8061TIP3   OH224123   0.301   1.255   2.704
 8061TIP3    H124124   0.261   1.204   2.635
 8061TIP3    H224125   0.271   1.345   2.688
 8062TIP3   OH224126   5.824   6.563   1.781
 8062TIP3    H124127   5.918   6.569   1.760
 8062TIP3    H224128   5.791   6.497   1.720
 8063TIP3   OH224129   0.407   3.358   0.452
 8063TIP3    H124130   0.440   3.392   0.369
 8063TIP3    H224131   0.315   3.340   0.436
 8064TIP3   OH224132   7.686   5.609   6.591
 8064TIP3    H124133   7.691   5.679   6.526
 8064TIP3    H224134   7.776   5.582   6.605
 8065TIP3   OH224135   0.314   4.657   0.822
 8065TIP3    H124136   0.322   4.730   0.761
 8065TIP3    H224137   0.255   4.595   0.778
 8066TIP3   OH224138   3.285   0.899   3.943
 8066TIP3    H124139   3.227   0.862   4.010
 8066TIP3    H224140   3.259   0.855   3.862
 8067TIP3   OH224141   0.829   6.729   3.700
 8067TIP3    H124142   0.734   6.735   3.688
 8067TIP3    H224143   0.865   6.735   3.611
 8068TIP3   OH224144   0.350   1.579   6.583
 8068TIP3    H124145   0.317   1.640   6.649
 8068TIP3    H224146   0.319   1.493   6.611
 8069TIP3   OH224147   0.583   0.375   3.504
 8069TIP3    H124148   0.499   0.357   3.462
 8069TIP3    H224149   0.609   0.291   3.543
 8070TIP3   OH224150   8.354   7.615   0.512
 8070TIP3    H124151   8.301   7.536   0.521
 8070TIP3    H224152   8.340   7.643   0.421
 8071TIP3   OH224153   7.901   6.798   4.563
 8071TIP3    H124154   7.953   6.718   4.568
 8071TIP3    H224155   7.966   6.868   4.555
 8072TIP3   OH224156   0.388   0.863   2.481
 8072TIP3    H124157   0.305   0.853   2.527
 8072TIP3    H224158   0.443   0.793   2.514
 8073TIP3   OH224159   7.106   5.928   1.355
 8073TIP3    H124160   7.019   5.965   1.367
 8073TIP3    H224161   7.099   5.876   1.274
 8074TIP3   OH224162   6.255   3.795   6.561
 8074TIP3    H124163   6.293   3.869   6.514
 8074TIP3    H224164   6.286   3.804   6.651
 8075TIP3   OH224165   7.440   1.339   3.406
 8075TIP3    H124166   7.525   1.327   3.448
 8075TIP3    H224167   7.445   1.285   3.327
 8076TIP3   OH224168   0.928   0.771   0.327
 8076TIP3    H124169   0.838   0.760   0.356
 8076TIP3    H224170   0.929   0.858   0.286
 8077TIP3   OH224171   7.466   4.612   3.883
 8077TIP3    H124172   7.520   4.539   3.854
 8077TIP3    H224173   7.472   4.610   3.979
 8078TIP3   OH224174   0.861   2.554   5.329
 8078TIP3    H124175   0.859   2.609   5.250
 8078TIP3    H224176   0.893   2.612   5.398
 8079TIP3   OH224177   6.424   7.778   3.939
 8079TIP3    H124178   6.462   7.702   3.895
 8079TIP3    H224179   6.462   7.853   3.893
 8080TIP3   OH224180   0.755   2.272   2.213
 8080TIP3    H124181   0.710   2.284   2.297
 8080TIP3    H224182   0.752   2.357   2.171
 8081TIP3   OH224183   2.110   1.367   4.738
 8081TIP3    H124184   2.151   1.384   4.823
 8081TIP3    H224185   2.019   1.395   4.748
 8082TIP3   OH224186   0.659   6.049   2.805
 8082TIP3    H124187   0.588   6.072   2.744
 8082TIP3    H224188   0.632   6.087   2.888
 8083TIP3   OH224189   6.477   3.848   5.557
 8083TIP3    H124190   6.479   3.833   5.462
 8083TIP3    H224191   6.562   3.886   5.577
 8084TIP3   OH224192   5.539   2.848   3.300
 8084TIP3    H124193   5.551   2.942   3.310
 8084TIP3    H224194   5.593   2.824   3.225
 8085TIP3   OH224195   7.569   6.948   3.246
 8085TIP3    H124196   7.565   6.950   3.342
 8085TIP3    H224197   7.516   7.022   3.218
 8086TIP3   OH224198   1.073   2.176   1.569
 8086TIP3    H124199   1.046   2.091   1.603
 8086TIP3    H224200   1.101   2.225   1.646
 8087TIP3   OH224201   1.187   0.895   2.398
 8087TIP3    H124202   1.246   0.890   2.473
 8087TIP3    H224203   1.101   0.873   2.433
 8088TIP3   OH224204   6.838   2.747   4.030
 8088TIP3    H124205   6.770   2.783   4.087
 8088TIP3    H224206   6.848   2.813   3.961
 8089TIP3   OH224207   0.913   0.519   6.294
 8089TIP3    H124208   0.972   0.513   6.219
 8089TIP3    H224209   0.907   0.613   6.313
 8090TIP3   OH224210   3.306   1.193   3.078
 8090TIP3    H124211   3.392   1.155   3.097
 8090TIP3    H224212   3.303   1.198   2.982
 8091TIP3   OH224213   7.997   6.969   1.884
 8091TIP3    H124214   8.029   6.914   1.812
 8091TIP3    H224215   7.940   7.033   1.842
 8092TIP3   OH224216   6.440   3.234   1.016
 8092TIP3    H124217   6.412   3.237   1.107
 8092TIP3    H224218   6.464   3.324   0.995
 8093TIP3   OH224219   3.586   4.638   0.044
 8093TIP3    H124220   3.604   4.705   0.111
 8093TIP3    H224221   3.491   4.643   0.030
 8094TIP3   OH224222   7.693   7.159   3.759
 8094TIP3    H124223   7.686   7.212   3.680
 8094TIP3    H224224   7.787   7.155   3.777
 8095TIP3   OH224225   0.746   3.906   0.964
 8095TIP3    H124226   0.826   3.910   1.016
 8095TIP3    H224227   0.704   3.990   0.978
 8096TIP3   OH224228   3.859   6.534   3.645
 8096TIP3    H124229   3.919   6.469   3.610
 8096TIP3    H224230   3.813   6.489   3.716
 8097TIP3   OH224231   3.744   6.975   4.730
 8097TIP3    H124232   3.802   6.941   4.663
 8097TIP3    H224233   3.758   6.918   4.806
 8098TIP3   OH224234   3.844   4.782   0.467
 8098TIP3    H124235   3.913   4.782   0.401
 8098TIP3    H224236   3.854   4.698   0.513
 8099TIP3   OH224237   1.342   0.808   0.191
 8099TIP3    H124238   1.430   0.841   0.176
 8099TIP3    H224239   1.285   0.873   0.149
 8100TIP3   OH224240   4.983   6.991   4.252
 8100TIP3    H124241   4.935   6.909   4.237
 8100TIP3    H224242   4.960   7.016   4.341
 8101TIP3   OH224243   6.579   3.765   6.475
 8101TIP3    H124244   6.670   3.797   6.481
 8101TIP3    H224245   6.527   3.834   6.516
 8102TIP3   OH224246   7.630   1.266   2.207
 8102TIP3    H124247   7.536   1.252   2.199
 8102TIP3    H224248   7.651   1.238   2.297
 8103TIP3   OH224249   0.206   3.921   4.787
 8103TIP3    H124250   0.242   3.967   4.711
 8103TIP3    H224251   0.194   3.990   4.853
 8104TIP3   OH224252   3.523   4.085   0.893
 8104TIP3    H124253   3.492   4.003   0.852
 8104TIP3    H224254   3.526   4.148   0.821
 8105TIP3   OH224255   3.118   5.495   0.499
 8105TIP3    H124256   3.058   5.567   0.481
 8105TIP3    H224257   3.200   5.522   0.457
 8106TIP3   OH224258   2.449   7.444   4.942
 8106TIP3    H124259   2.418   7.435   4.851
 8106TIP3    H224260   2.369   7.442   4.994
 8107TIP3   OH224261   5.754   1.473   5.302
 8107TIP3    H124262   5.773   1.507   5.389
 8107TIP3    H224263   5.658   1.479   5.294
 8108TIP3   OH224264   2.257   6.616   1.222
 8108TIP3    H124265   2.319   6.552   1.188
 8108TIP3    H224266   2.211   6.570   1.292
 8109TIP3   OH224267   4.056   2.871   0.113
 8109TIP3    H124268   4.148   2.876   0.138
 8109TIP3    H224269   4.055   2.809   0.040
 8110TIP3   OH224270   2.508   2.447   0.102
 8110TIP3    H124271   2.533   2.462   0.193
 8110TIP3    H224272   2.590   2.426   0.057
 8111TIP3   OH224273   5.713   7.314   5.483
 8111TIP3    H124274   5.794   7.330   5.433
 8111TIP3    H224275   5.713   7.383   5.550
 8112TIP3   OH224276   6.307   5.000   4.012
 8112TIP3    H124277   6.323   4.956   3.929
 8112TIP3    H224278   6.395   5.018   4.046
 8113TIP3   OH224279   7.976   1.033   4.436
 8113TIP3    H124280   7.950   1.125   4.436
 8113TIP3    H224281   8.052   1.030   4.493
 8114TIP3   OH224282   2.857   1.330   4.215
 8114TIP3    H124283   2.857   1.367   4.127
 8114TIP3    H224284   2.768   1.344   4.247
 8115TIP3   OH224285   8.164   2.596   2.197
 8115TIP3    H124286   8.159   2.500   2.201
 8115TIP3    H224287   8.164   2.624   2.289
 8116TIP3   OH224288   3.672   5.825   2.467
 8116TIP3    H124289   3.623   5.891   2.418
 8116TIP3    H224290   3.723   5.778   2.400
 8117TIP3   OH224291   6.568   7.576   3.845
 8117TIP3    H124292   6.510   7.516   3.797
 8117TIP3    H224293   6.641   7.591   3.785
 8118TIP3   OH224294   6.692   5.798   1.732
 8118TIP3    H124295   6.657   5.870   1.680
 8118TIP3    H224296   6.731   5.841   1.808
 8119TIP3   OH224297   5.923   1.749   0.344
 8119TIP3    H124298   5.946   1.703   0.426
 8119TIP3    H224299   5.830   1.768   0.354
 8120TIP3   OH224300   1.058   1.511   5.504
 8120TIP3    H124301   1.093   1.422   5.510
 8120TIP3    H224302   1.116   1.564   5.558
 8121TIP3   OH224303   5.594   7.030   1.604
 8121TIP3    H124304   5.587   7.071   1.690
 8121TIP3    H224305   5.516   7.062   1.557
 8122TIP3   OH224306   4.844   4.742   5.648
 8122TIP3    H124307   4.841   4.651   5.679
 8122TIP3    H224308   4.902   4.787   5.710
 8123TIP3   OH224309   2.829   1.648   3.651
 8123TIP3    H124310   2.734   1.664   3.647
 8123TIP3    H224311   2.836   1.557   3.678
 8124TIP3   OH224312   7.854   2.588   4.524
 8124TIP3    H124313   7.807   2.511   4.556
 8124TIP3    H224314   7.945   2.559   4.516
 8125TIP3   OH224315   3.171   6.413   3.750
 8125TIP3    H124316   3.158   6.383   3.840
 8125TIP3    H224317   3.082   6.431   3.718
 8126TIP3   OH224318   4.917   5.790   6.030
 8126TIP3    H124319   4.973   5.867   6.038
 8126TIP3    H224320   4.867   5.805   5.950
 8127TIP3   OH224321   0.082  -0.021   1.137
 8127TIP3    H124322   0.051  -0.010   1.227
 8127TIP3    H224323   0.087   0.068   1.103
 8128TIP3   OH224324   6.250   5.063   3.537
 8128TIP3    H124325   6.268   5.136   3.597
 8128TIP3    H224326   6.243   5.103   3.451
 8129TIP3   OH224327   2.234   1.752   1.375
 8129TIP3    H124328   2.172   1.699   1.427
 8129TIP3    H224329   2.240   1.835   1.423
 8130TIP3   OH224330   2.805   5.143   5.857
 8130TIP3    H124331   2.893   5.175   5.880
 8130TIP3    H224332   2.821   5.073   5.794
 8131TIP3   OH224333   5.939   5.139   3.669
 8131TIP3    H124334   5.879   5.119   3.740
 8131TIP3    H224335   6.025   5.117   3.704
 8132TIP3   OH224336   2.352   6.872   5.424
 8132TIP3    H124337   2.353   6.781   5.393
 8132TIP3    H224338   2.278   6.912   5.378
 8133TIP3   OH224339   5.870   2.159   5.991
 8133TIP3    H124340   5.880   2.226   5.924
 8133TIP3    H224341   5.811   2.198   6.056
 8134TIP3   OH224342   6.069   5.721   1.136
 8134TIP3    H124343   6.015   5.795   1.163
 8134TIP3    H224344   6.030   5.691   1.054
 8135TIP3   OH224345   0.568   6.752   5.994
 8135TIP3    H124346   0.572   6.845   5.971
 8135TIP3    H224347   0.654   6.718   5.970
 8136TIP3   OH224348   0.557   2.954   5.841
 8136TIP3    H124349   0.630   2.957   5.903
 8136TIP3    H224350   0.568   3.034   5.788
 8137TIP3   OH224351   0.039   4.617   5.933
 8137TIP3    H124352  -0.032   4.568   5.892
 8137TIP3    H224353   0.096   4.550   5.972
 8138TIP3   OH224354   2.631   6.579   0.190
 8138TIP3    H124355   2.577   6.508   0.157
 8138TIP3    H224356   2.570   6.635   0.238
 8139TIP3   OH224357   2.589   1.778   3.407
 8139TIP3    H124358   2.662   1.841   3.406
 8139TIP3    H224359   2.621   1.703   3.358
 8140TIP3   OH224360   2.821   5.872   5.049
 8140TIP3    H124361   2.799   5.881   4.957
 8140TIP3    H224362   2.747   5.826   5.088
 8141TIP3   OH224363   6.179   7.566   1.747
 8141TIP3    H124364   6.141   7.602   1.668
 8141TIP3    H224365   6.184   7.640   1.808
 8142TIP3   OH224366   3.073   1.661   1.874
 8142TIP3    H124367   3.073   1.742   1.825
 8142TIP3    H224368   3.119   1.598   1.819
 8143TIP3   OH224369   6.736   1.364   3.689
 8143TIP3    H124370   6.769   1.381   3.777
 8143TIP3    H224371   6.815   1.348   3.637
 8144TIP3   OH224372   1.435   5.261   0.074
 8144TIP3    H124373   1.367   5.328   0.074
 8144TIP3    H224374   1.508   5.299   0.123
 8145TIP3   OH224375   6.875   5.999   4.182
 8145TIP3    H124376   6.818   6.031   4.112
 8145TIP3    H224377   6.858   6.058   4.256
 8146TIP3   OH224378   8.191   3.243   2.564
 8146TIP3    H124379   8.189   3.258   2.469
 8146TIP3    H224380   8.107   3.276   2.595
 8147TIP3   OH224381   0.881   2.857   0.048
 8147TIP3    H124382   0.821   2.783   0.048
 8147TIP3    H224383   0.829   2.931   0.018
 8148TIP3   OH224384   3.500   6.814   0.727
 8148TIP3    H124385   3.517   6.906   0.746
 8148TIP3    H224386   3.555   6.766   0.789
 8149TIP3   OH224387   7.474   6.750   3.533
 8149TIP3    H124388   7.459   6.746   3.628
 8149TIP3    H224389   7.524   6.671   3.513
 8150TIP3   OH224390   6.855   1.771   2.227
 8150TIP3    H124391   6.814   1.686   2.244
 8150TIP3    H224392   6.893   1.797   2.310
 8151TIP3   OH224393   3.494   2.705   1.262
 8151TIP3    H124394   3.416   2.661   1.228
 8151TIP3    H224395   3.520   2.764   1.192
 8152TIP3   OH224396   3.877   4.146   5.566
 8152TIP3    H124397   3.960   4.118   5.528
 8152TIP3    H224398   3.886   4.130   5.660
 8153TIP3   OH224399   6.996   0.626   0.134
 8153TIP3    H124400   6.953   0.540   0.129
 8153TIP3    H224401   7.084   0.610   0.099
 8154TIP3   OH224402   1.811   4.112   1.459
 8154TIP3    H124403   1.795   4.041   1.522
 8154TIP3    H224404   1.724   4.135   1.426
 8155TIP3   OH224405   7.600   7.718   5.725
 8155TIP3    H124406   7.560   7.659   5.661
 8155TIP3    H224407   7.642   7.786   5.673
 8156TIP3   OH224408   3.874   3.214   6.136
 8156TIP3    H124409   3.828   3.147   6.186
 8156TIP3    H224410   3.967   3.189   6.143
 8157TIP3   OH224411   1.063   5.611   5.720
 8157TIP3    H124412   0.980   5.566   5.739
 8157TIP3    H224413   1.127   5.541   5.710
 8158TIP3   OH224414   7.638   0.783   2.762
 8158TIP3    H124415   7.646   0.875   2.737
 8158TIP3    H224416   7.720   0.763   2.808
 8159TIP3   OH224417   6.028   4.749   4.052
 8159TIP3    H124418   6.117   4.714   4.059
 8159TIP3    H224419   5.973   4.671   4.040
 8160TIP3   OH224420   0.517   0.918   1.521
 8160TIP3    H124421   0.527   0.877   1.607
 8160TIP3    H224422   0.478   1.003   1.539
 8161TIP3   OH224423   6.581   3.954   6.159
 8161TIP3    H124424   6.595   3.970   6.066
 8161TIP3    H224425   6.488   3.931   6.166
 8162TIP3   OH224426   7.739   1.521   4.515
 8162TIP3    H124427   7.779   1.573   4.445
 8162TIP3    H224428   7.765   1.566   4.596
 8163TIP3   OH224429   6.038   0.259   6.782
 8163TIP3    H124430   6.073   0.228   6.866
 8163TIP3    H224431   6.013   0.179   6.735
 8164TIP3   OH224432   8.329   2.212   0.127
 8164TIP3    H124433   8.264   2.152   0.090
 8164TIP3    H224434   8.408   2.195   0.075
 8165TIP3   OH224435   5.232   5.485   0.410
 8165TIP3    H124436   5.315   5.511   0.450
 8165TIP3    H224437   5.250   5.401   0.368
 8166TIP3   OH224438   1.158   5.217   3.749
 8166TIP3    H124439   1.218   5.292   3.757
 8166TIP3    H224440   1.074   5.257   3.726
 8167TIP3   OH224441   6.307   6.706   2.548
 8167TIP3    H124442   6.270   6.717   2.635
 8167TIP3    H224443   6.388   6.657   2.561
 8168TIP3   OH224444   0.376   6.796   1.517
 8168TIP3    H124445   0.403   6.730   1.454
 8168TIP3    H224446   0.298   6.836   1.478
 8169TIP3   OH224447   7.026   7.518   4.275
 8169TIP3    H124448   6.958   7.461   4.239
 8169TIP3    H224449   6.985   7.604   4.280
 8170TIP3   OH224450   6.474   6.829   6.142
 8170TIP3    H124451   6.520   6.799   6.064
 8170TIP3    H224452   6.400   6.769   6.150
 8171TIP3   OH224453   0.885   5.926   2.923
 8171TIP3    H124454   0.936   5.898   2.846
 8171TIP3    H224455   0.814   5.978   2.886
 8172TIP3   OH224456   7.228   4.250   4.422
 8172TIP3    H124457   7.198   4.340   4.410
 8172TIP3    H224458   7.152   4.205   4.458
 8173TIP3   OH224459   8.055   7.674   3.450
 8173TIP3    H124460   8.048   7.711   3.362
 8173TIP3    H224461   8.106   7.739   3.499
 8174TIP3   OH224462   1.177   0.196   6.285
 8174TIP3    H124463   1.142   0.108   6.298
 8174TIP3    H224464   1.135   0.226   6.203
 8175TIP3   OH224465   4.676   3.182   6.808
 8175TIP3    H124466   4.636   3.267   6.788
 8175TIP3    H224467   4.602   3.121   6.810
 8176TIP3   OH224468   5.328   4.949   4.342
 8176TIP3    H124469   5.415   4.918   4.316
 8176TIP3    H224470   5.302   4.890   4.413
 8177TIP3   OH224471   6.424   5.387   5.885
 8177TIP3    H124472   6.336   5.360   5.858
 8177TIP3    H224473   6.451   5.450   5.819
 8178TIP3   OH224474   0.960   3.433   0.753
 8178TIP3    H124475   0.871   3.405   0.775
 8178TIP3    H224476   0.949   3.518   0.710
 8179TIP3   OH224477   7.480   1.837   0.738
 8179TIP3    H124478   7.395   1.881   0.734
 8179TIP3    H224479   7.524   1.861   0.657
 8180TIP3   OH224480   0.354   1.122   5.858
 8180TIP3    H124481   0.361   1.082   5.945
 8180TIP3    H224482   0.443   1.151   5.839
 8181TIP3   OH224483   3.714   7.487   1.520
 8181TIP3    H124484   3.786   7.425   1.509
 8181TIP3    H224485   3.701   7.493   1.615
 8182TIP3   OH224486   2.915   7.596   0.790
 8182TIP3    H124487   2.868   7.518   0.821
 8182TIP3    H224488   3.001   7.590   0.832
 8183TIP3   OH224489   3.362   4.144   4.675
 8183TIP3    H124490   3.407   4.126   4.593
 8183TIP3    H224491   3.316   4.227   4.659
 8184TIP3   OH224492   3.677   2.465   3.854
 8184TIP3    H124493   3.770   2.461   3.873
 8184TIP3    H224494   3.657   2.382   3.811
 8185TIP3   OH224495   5.704   2.245   0.334
 8185TIP3    H124496   5.726   2.158   0.299
 8185TIP3    H224497   5.719   2.304   0.260
 8186TIP3   OH224498   7.156   2.014   1.067
 8186TIP3    H124499   7.193   2.046   0.985
 8186TIP3    H224500   7.219   1.950   1.100
 8187TIP3   OH224501   4.153   4.516   0.855
 8187TIP3    H124502   4.156   4.450   0.924
 8187TIP3    H224503   4.061   4.517   0.827
 8188TIP3   OH224504   4.018   2.855   3.468
 8188TIP3    H124505   4.011   2.937   3.418
 8188TIP3    H224506   3.957   2.796   3.424
 8189TIP3   OH224507   4.944   3.947   5.449
 8189TIP3    H124508   4.947   3.937   5.544
 8189TIP3    H224509   4.980   3.864   5.416
 8190TIP3   OH224510   1.322   4.597   5.462
 8190TIP3    H124511   1.338   4.538   5.535
 8190TIP3    H224512   1.383   4.669   5.475
 8191TIP3   OH224513   6.977   1.775   4.017
 8191TIP3    H124514   7.029   1.745   3.942
 8191TIP3    H224515   6.911   1.707   4.029
 8192TIP3   OH224516   0.469   6.907   6.617
 8192TIP3    H124517   0.464   6.890   6.711
 8192TIP3    H224518   0.429   6.993   6.606
 8193TIP3   OH224519   7.549   5.282   3.372
 8193TIP3    H124520   7.603   5.330   3.310
 8193TIP3    H224521   7.590   5.298   3.457
 8194TIP3   OH224522   7.441   1.036   0.182
 8194TIP3    H124523   7.447   0.941   0.175
 8194TIP3    H224524   7.448   1.054   0.276
 8195TIP3   OH224525   5.758   6.078   5.850
 8195TIP3    H124526   5.793   5.990   5.835
 8195TIP3    H224527   5.684   6.085   5.789
 8196TIP3   OH224528   3.089   4.068   0.831
 8196TIP3    H124529   3.155   4.131   0.859
 8196TIP3    H224530   3.046   4.110   0.756
 8197TIP3   OH224531   7.217   4.650   0.552
 8197TIP3    H124532   7.245   4.722   0.496
 8197TIP3    H224533   7.295   4.624   0.600
 8198TIP3   OH224534   2.296   1.163   4.094
 8198TIP3    H124535   2.327   1.084   4.138
 8198TIP3    H224536   2.357   1.175   4.021
 8199TIP3   OH224537   3.760   4.159   3.503
 8199TIP3    H124538   3.852   4.172   3.480
 8199TIP3    H224539   3.762   4.124   3.592
 8200TIP3   OH224540   1.400   5.814   5.558
 8200TIP3    H124541   1.406   5.773   5.644
 8200TIP3    H224542   1.478   5.784   5.512
 8201TIP3   OH224543   4.415   0.060   1.500
 8201TIP3    H124544   4.330   0.059   1.545
 8201TIP3    H224545   4.473   0.011   1.558
 8202TIP3   OH224546   5.708   0.550   3.908
 8202TIP3    H124547   5.670   0.602   3.838
 8202TIP3    H224548   5.686   0.598   3.988
 8203TIP3   OH224549   4.053   4.888   4.411
 8203TIP3    H124550   4.068   4.858   4.321
 8203TIP3    H224551   4.120   4.844   4.462
 8204TIP3   OH224552   6.747   1.233   5.688
 8204TIP3    H124553   6.841   1.219   5.698
 8204TIP3    H224554   6.713   1.149   5.657
 8205TIP3   OH224555   6.954   7.763   1.555
 8205TIP3    H124556   7.029   7.782   1.499
 8205TIP3    H224557   6.928   7.848   1.589
 8206TIP3   OH224558   6.772   5.501   3.584
 8206TIP3    H124559   6.807   5.468   3.667
 8206TIP3    H224560   6.795   5.594   3.583
 8207TIP3   OH224561   7.299   2.838   3.810
 8207TIP3    H124562   7.331   2.751   3.787
 8207TIP3    H224563   7.253   2.868   3.732
 8208TIP3   OH224564   7.378   5.039   4.523
 8208TIP3    H124565   7.304   5.050   4.463
 8208TIP3    H224566   7.368   4.950   4.558
 8209TIP3   OH224567   5.298   1.227   3.199
 8209TIP3    H124568   5.223   1.182   3.160
 8209TIP3    H224569   5.373   1.172   3.179
 8210TIP3   OH224570   2.265   6.320   3.935
 8210TIP3    H124571   2.191   6.372   3.905
 8210TIP3    H224572   2.327   6.385   3.970
 8211TIP3   OH224573   3.030   1.819   6.536
 8211TIP3    H124574   3.076   1.785   6.614
 8211TIP3    H224575   2.941   1.787   6.546
 8212TIP3   OH224576   1.844   3.843   5.650
 8212TIP3    H124577   1.758   3.805   5.634
 8212TIP3    H224578   1.881   3.791   5.721
 8213TIP3   OH224579   7.117   1.195   6.647
 8213TIP3    H124580   7.156   1.179   6.560
 8213TIP3    H224581   7.085   1.109   6.674
 8214TIP3   OH224582   6.603   1.512   6.160
 8214TIP3    H124583   6.637   1.547   6.078
 8214TIP3    H224584   6.653   1.556   6.228
 8215TIP3   OH224585   3.740   0.925   0.754
 8215TIP3    H124586   3.760   0.851   0.697
 8215TIP3    H224587   3.708   0.993   0.694
 8216TIP3   OH224588   6.300   6.929   6.797
 8216TIP3    H124589   6.298   7.013   6.750
 8216TIP3    H224590   6.390   6.898   6.786
 8217TIP3   OH224591   1.354   6.586   4.223
 8217TIP3    H124592   1.306   6.669   4.224
 8217TIP3    H224593   1.445   6.611   4.241
 8218TIP3   OH224594   1.064   1.545   4.434
 8218TIP3    H124595   1.158   1.554   4.416
 8218TIP3    H224596   1.059   1.483   4.506
 8219TIP3   OH224597   5.347   5.128   4.657
 8219TIP3    H124598   5.292   5.065   4.703
 8219TIP3    H224599   5.436   5.097   4.672
 8220TIP3   OH224600   6.628   0.606   5.178
 8220TIP3    H124601   6.609   0.513   5.189
 8220TIP3    H224602   6.560   0.638   5.118
 8221TIP3   OH224603   1.214   7.823   0.228
 8221TIP3    H124604   1.125   7.844   0.255
 8221TIP3    H224605   1.254   7.907   0.208
 8222TIP3   OH224606   1.159   3.031   5.323
 8222TIP3    H124607   1.176   3.119   5.357
 8222TIP3    H224608   1.220   3.022   5.249
 8223TIP3   OH224609   5.887   2.132   0.576
 8223TIP3    H124610   5.854   2.108   0.662
 8223TIP3    H224611   5.817   2.185   0.537
 8224TIP3   OH224612   6.115   2.849   2.347
 8224TIP3    H124613   6.110   2.753   2.348
 8224TIP3    H224614   6.072   2.876   2.428
 8225TIP3   OH224615   0.644   6.405   5.285
 8225TIP3    H124616   0.684   6.359   5.212
 8225TIP3    H224617   0.551   6.380   5.282
 8226TIP3   OH224618   7.349   4.290   3.280
 8226TIP3    H124619   7.412   4.270   3.210
 8226TIP3    H224620   7.403   4.307   3.357
 8227TIP3   OH224621   6.798   2.674   1.035
 8227TIP3    H124622   6.797   2.579   1.037
 8227TIP3    H224623   6.706   2.699   1.025
 8228TIP3   OH224624   4.289   7.142   5.930
 8228TIP3    H124625   4.274   7.057   5.972
 8228TIP3    H224626   4.325   7.197   5.999
 8229TIP3   OH224627   5.192   2.515   4.427
 8229TIP3    H124628   5.264   2.490   4.369
 8229TIP3    H224629   5.220   2.486   4.514
 8230TIP3   OH224630   6.108   3.100   5.394
 8230TIP3    H124631   6.177   3.036   5.411
 8230TIP3    H224632   6.147   3.184   5.419
 8231TIP3   OH224633   7.677   6.942   5.838
 8231TIP3    H124634   7.673   6.854   5.799
 8231TIP3    H224635   7.744   6.988   5.787
 8232TIP3   OH224636   0.148   2.720   4.123
 8232TIP3    H124637   0.141   2.729   4.028
 8232TIP3    H224638   0.164   2.627   4.137
 8233TIP3   OH224639   6.487   2.193   2.543
 8233TIP3    H124640   6.478   2.282   2.577
 8233TIP3    H224641   6.575   2.166   2.570
 8234TIP3   OH224642   5.430   6.880   4.802
 8234TIP3    H124643   5.492   6.915   4.867
 8234TIP3    H224644   5.345   6.886   4.845
 8235TIP3   OH224645   3.158   4.009   1.216
 8235TIP3    H124646   3.157   4.101   1.188
 8235TIP3    H224647   3.095   4.004   1.287
 8236TIP3   OH224648   6.519   3.892   0.643
 8236TIP3    H124649   6.547   3.927   0.559
 8236TIP3    H224650   6.473   3.964   0.685
 8237TIP3   OH224651   4.234   0.662   1.676
 8237TIP3    H124652   4.276   0.621   1.752
 8237TIP3    H224653   4.281   0.624   1.601
 8238TIP3   OH224654   0.548   1.084   6.831
 8238TIP3    H124655   0.604   1.061   6.756
 8238TIP3    H224656   0.500   1.003   6.850
 8239TIP3   OH224657   6.865   6.726   3.504
 8239TIP3    H124658   6.938   6.787   3.487
 8239TIP3    H224659   6.886   6.648   3.452
 8240TIP3   OH224660   5.191   1.241   4.519
 8240TIP3    H124661   5.127   1.172   4.500
 8240TIP3    H224662   5.170   1.310   4.456
 8241TIP3   OH224663   5.623   4.863   6.269
 8241TIP3    H124664   5.696   4.822   6.315
 8241TIP3    H224665   5.547   4.809   6.291
 8242TIP3   OH224666   4.155   3.548   2.905
 8242TIP3    H124667   4.092   3.586   2.843
 8242TIP3    H224668   4.213   3.621   2.928
 8243TIP3   OH224669   5.720   7.685   4.177
 8243TIP3    H124670   5.784   7.653   4.240
 8243TIP3    H224671   5.658   7.613   4.167
 8244TIP3   OH224672   5.251   7.075   0.486
 8244TIP3    H124673   5.251   7.171   0.482
 8244TIP3    H224674   5.225   7.054   0.576
 8245TIP3   OH224675   0.233   5.423   3.845
 8245TIP3    H124676   0.170   5.480   3.802
 8245TIP3    H224677   0.213   5.335   3.812
 8246TIP3   OH224678   3.186   4.783   2.481
 8246TIP3    H124679   3.254   4.832   2.434
 8246TIP3    H224680   3.207   4.691   2.464
 8247TIP3   OH224681   6.910   2.206   0.427
 8247TIP3    H124682   6.975   2.137   0.411
 8247TIP3    H224683   6.949   2.285   0.391
 8248TIP3   OH224684   4.202   1.923   3.911
 8248TIP3    H124685   4.198   1.982   3.835
 8248TIP3    H224686   4.296   1.908   3.924
 8249TIP3   OH224687   2.331   0.173   5.335
 8249TIP3    H124688   2.287   0.118   5.270
 8249TIP3    H224689   2.267   0.181   5.407
 8250TIP3   OH224690   2.752   3.433   6.264
 8250TIP3    H124691   2.751   3.348   6.219
 8250TIP3    H224692   2.755   3.497   6.192
 8251TIP3   OH224693   8.142   4.726   5.406
 8251TIP3    H124694   8.059   4.679   5.412
 8251TIP3    H224695   8.201   4.665   5.363
 8252TIP3   OH224696   4.547   2.049   1.040
 8252TIP3    H124697   4.524   2.141   1.046
 8252TIP3    H224698   4.466   2.006   1.011
 8253TIP3   OH224699   0.271   1.930   6.124
 8253TIP3    H124700   0.294   1.910   6.215
 8253TIP3    H224701   0.177   1.912   6.119
 8254TIP3   OH224702   1.549   6.047   6.280
 8254TIP3    H124703   1.594   5.970   6.245
 8254TIP3    H224704   1.551   6.036   6.375
 8255TIP3   OH224705   5.470   1.564   2.066
 8255TIP3    H124706   5.454   1.549   2.159
 8255TIP3    H224707   5.399   1.623   2.038
 8256TIP3   OH224708   6.682   1.829   3.350
 8256TIP3    H124709   6.763   1.872   3.379
 8256TIP3    H224710   6.685   1.742   3.392
 8257TIP3   OH224711   0.549   3.302   1.401
 8257TIP3    H124712   0.517   3.248   1.473
 8257TIP3    H224713   0.563   3.241   1.328
 8258TIP3   OH224714   4.928   0.926   1.764
 8258TIP3    H124715   4.879   0.858   1.718
 8258TIP3    H224716   4.974   0.880   1.834
 8259TIP3   OH224717   4.962   2.966   0.692
 8259TIP3    H124718   4.892   2.981   0.756
 8259TIP3    H224719   5.038   2.940   0.745
 8260TIP3   OH224720   5.289   1.793   5.199
 8260TIP3    H124721   5.251   1.707   5.220
 8260TIP3    H224722   5.381   1.774   5.181
 8261TIP3   OH224723   0.537   3.474   4.959
 8261TIP3    H124724   0.560   3.409   5.025
 8261TIP3    H224725   0.467   3.434   4.909
 8262TIP3   OH224726   5.880   7.494   5.152
 8262TIP3    H124727   5.832   7.525   5.229
 8262TIP3    H224728   5.812   7.462   5.093
 8263TIP3   OH224729   7.500   1.143   0.433
 8263TIP3    H124730   7.524   1.090   0.508
 8263TIP3    H224731   7.430   1.200   0.464
 8264TIP3   OH224732   0.703   7.027   5.195
 8264TIP3    H124733   0.661   6.946   5.225
 8264TIP3    H224734   0.722   7.011   5.103
 8265TIP3   OH224735   1.924   7.544   2.971
 8265TIP3    H124736   1.967   7.628   2.951
 8265TIP3    H224737   1.846   7.568   3.020
 8266TIP3   OH224738   6.247   2.011   2.531
 8266TIP3    H124739   6.212   2.088   2.486
 8266TIP3    H224740   6.312   2.046   2.591
 8267TIP3   OH224741   1.978   6.522   2.613
 8267TIP3    H124742   1.887   6.542   2.636
 8267TIP3    H224743   1.977   6.517   2.518
 8268TIP3   OH224744   3.628   4.601   3.505
 8268TIP3    H124745   3.650   4.632   3.592
 8268TIP3    H224746   3.583   4.674   3.464
 8269TIP3   OH224747   3.918   3.483   6.099
 8269TIP3    H124748   3.869   3.401   6.103
 8269TIP3    H224749   3.896   3.520   6.014
 8270TIP3   OH224750   0.398   0.378   2.309
 8270TIP3    H124751   0.387   0.471   2.291
 8270TIP3    H224752   0.384   0.370   2.404
 8271TIP3   OH224753   3.903   4.366  -0.026
 8271TIP3    H124754   3.898   4.385   0.068
 8271TIP3    H224755   3.928   4.274  -0.030
 8272TIP3   OH224756   0.022   5.950   5.815
 8272TIP3    H124757  -0.013   5.904   5.891
 8272TIP3    H224758   0.050   6.035   5.848
 8273TIP3   OH224759   5.912   2.402   1.784
 8273TIP3    H124760   5.991   2.450   1.808
 8273TIP3    H224761   5.917   2.321   1.834
 8274TIP3   OH224762   5.435   7.801   3.685
 8274TIP3    H124763   5.503   7.748   3.726
 8274TIP3    H224764   5.358   7.788   3.741
 8275TIP3   OH224765   8.273   7.278   0.272
 8275TIP3    H124766   8.331   7.282   0.196
 8275TIP3    H224767   8.325   7.316   0.343
 8276TIP3   OH224768   0.307   3.094   5.716
 8276TIP3    H124769   0.284   3.170   5.768
 8276TIP3    H224770   0.233   3.034   5.726
 8277TIP3   OH224771   2.306   5.985   1.742
 8277TIP3    H124772   2.360   6.007   1.666
 8277TIP3    H224773   2.230   6.043   1.736
 8278TIP3   OH224774   1.251   2.952   5.588
 8278TIP3    H124775   1.188   3.018   5.558
 8278TIP3    H224776   1.198   2.888   5.636
 8279TIP3   OH224777   3.367   4.843   2.198
 8279TIP3    H124778   3.393   4.783   2.128
 8279TIP3    H224779   3.326   4.916   2.152
 8280TIP3   OH224780   7.835   7.364   0.196
 8280TIP3    H124781   7.876   7.394   0.277
 8280TIP3    H224782   7.817   7.444   0.146
 8281TIP3   OH224783   4.872   2.525   5.757
 8281TIP3    H124784   4.952   2.490   5.717
 8281TIP3    H224785   4.900   2.609   5.793
 8282TIP3   OH224786   3.937   4.987   0.870
 8282TIP3    H124787   3.969   4.915   0.925
 8282TIP3    H224788   3.845   4.997   0.894
 8283TIP3   OH224789   2.432   2.754   4.377
 8283TIP3    H124790   2.437   2.834   4.326
 8283TIP3    H224791   2.487   2.770   4.454
 8284TIP3   OH224792   3.284   7.900   5.438
 8284TIP3    H124793   3.320   7.815   5.460
 8284TIP3    H224794   3.309   7.914   5.347
 8285TIP3   OH224795   1.738   2.495   1.125
 8285TIP3    H124796   1.658   2.471   1.170
 8285TIP3    H224797   1.788   2.546   1.189
 8286TIP3   OH224798   8.310   0.567   5.717
 8286TIP3    H124799   8.231   0.594   5.671
 8286TIP3    H224800   8.281   0.555   5.808
 8287TIP3   OH224801   3.042   7.281   0.334
 8287TIP3    H124802   3.009   7.368   0.312
 8287TIP3    H224803   3.018   7.268   0.426
 8288TIP3   OH224804   4.648   5.255   4.636
 8288TIP3    H124805   4.718   5.191   4.631
 8288TIP3    H224806   4.618   5.265   4.546
 8289TIP3   OH224807   0.293   0.658   1.294
 8289TIP3    H124808   0.368   0.694   1.247
 8289TIP3    H224809   0.303   0.563   1.288
 8290TIP3   OH224810   5.822   5.809   5.897
 8290TIP3    H124811   5.745   5.777   5.848
 8290TIP3    H224812   5.872   5.730   5.915
 8291TIP3   OH224813   5.160   5.431   3.832
 8291TIP3    H124814   5.245   5.428   3.789
 8291TIP3    H224815   5.129   5.341   3.831
 8292TIP3   OH224816   7.319   1.650   3.208
 8292TIP3    H124817   7.281   1.689   3.129
 8292TIP3    H224818   7.394   1.707   3.229
 8293TIP3   OH224819   7.022   2.866   1.798
 8293TIP3    H124820   7.058   2.808   1.730
 8293TIP3    H224821   7.041   2.820   1.880
 8294TIP3   OH224822   6.574   6.272   0.909
 8294TIP3    H124823   6.485   6.280   0.874
 8294TIP3    H224824   6.561   6.247   1.001
 8295TIP3   OH224825   6.521   6.015   4.323
 8295TIP3    H124826   6.533   5.952   4.252
 8295TIP3    H224827   6.601   6.067   4.323
 8296TIP3   OH224828   5.344   3.999   4.438
 8296TIP3    H124829   5.263   3.987   4.388
 8296TIP3    H224830   5.315   4.025   4.525
 8297TIP3   OH224831   6.976   1.044   1.447
 8297TIP3    H124832   7.058   1.081   1.481
 8297TIP3    H224833   6.907   1.084   1.500
 8298TIP3   OH224834   7.702   0.152   6.196
 8298TIP3    H124835   7.706   0.206   6.117
 8298TIP3    H224836   7.642   0.200   6.255
 8299TIP3   OH224837   6.365   7.534   3.366
 8299TIP3    H124838   6.284   7.581   3.349
 8299TIP3    H224839   6.339   7.459   3.419
 8300TIP3   OH224840   7.447   5.981   1.171
 8300TIP3    H124841   7.482   5.980   1.260
 8300TIP3    H224842   7.380   5.913   1.170
 8301TIP3   OH224843   8.265   6.685   3.333
 8301TIP3    H124844   8.260   6.590   3.342
 8301TIP3    H224845   8.174   6.713   3.320
 8302TIP3   OH224846   0.306   2.163   3.260
 8302TIP3    H124847   0.357   2.202   3.189
 8302TIP3    H224848   0.331   2.213   3.338
 8303TIP3   OH224849   2.345   2.543   0.841
 8303TIP3    H124850   2.432   2.535   0.879
 8303TIP3    H224851   2.302   2.460   0.861
 8304TIP3   OH224852   3.023   0.931   4.875
 8304TIP3    H124853   3.087   0.979   4.822
 8304TIP3    H224854   3.077   0.871   4.927
 8305TIP3   OH224855   4.667   3.713   0.526
 8305TIP3    H124856   4.625   3.763   0.596
 8305TIP3    H224857   4.622   3.628   0.526
 8306TIP3   OH224858   7.552   7.793   2.310
 8306TIP3    H124859   7.540   7.885   2.332
 8306TIP3    H224860   7.480   7.773   2.250
 8307TIP3   OH224861   4.414   2.469   5.389
 8307TIP3    H124862   4.502   2.439   5.412
 8307TIP3    H224863   4.362   2.454   5.468
 8308TIP3   OH224864   2.900   6.477   3.619
 8308TIP3    H124865   2.956   6.423   3.562
 8308TIP3    H224866   2.819   6.488   3.570
 8309TIP3   OH224867   2.773   6.539   5.610
 8309TIP3    H124868   2.738   6.611   5.557
 8309TIP3    H224869   2.699   6.481   5.624
 8310TIP3   OH224870   3.725   3.887   4.861
 8310TIP3    H124871   3.642   3.845   4.883
 8310TIP3    H224872   3.748   3.936   4.940
 8311TIP3   OH224873  -0.019   6.179   0.932
 8311TIP3    H124874   0.018   6.128   0.861
 8311TIP3    H224875   0.029   6.151   1.010
 8312TIP3   OH224876   1.928   0.978   0.665
 8312TIP3    H124877   1.983   0.900   0.675
 8312TIP3    H224878   1.960   1.020   0.585
 8313TIP3   OH224879   8.249   6.894   3.505
 8313TIP3    H124880   8.220   6.857   3.589
 8313TIP3    H224881   8.257   6.818   3.447
 8314TIP3   OH224882   7.240   3.131   3.980
 8314TIP3    H124883   7.276   3.053   3.938
 8314TIP3    H224884   7.226   3.193   3.908
 8315TIP3   OH224885   7.317   1.365   2.036
 8315TIP3    H124886   7.223   1.353   2.022
 8315TIP3    H224887   7.345   1.287   2.084
 8316TIP3   OH224888   3.970   5.987   2.619
 8316TIP3    H124889   3.931   6.044   2.553
 8316TIP3    H224890   3.897   5.941   2.658
 8317TIP3   OH224891   2.180   6.163   3.530
 8317TIP3    H124892   2.104   6.115   3.497
 8317TIP3    H224893   2.165   6.253   3.502
 8318TIP3   OH224894   6.086   5.078   5.377
 8318TIP3    H124895   6.008   5.046   5.333
 8318TIP3    H224896   6.144   5.001   5.382
 8319TIP3   OH224897   2.888   0.808   3.391
 8319TIP3    H124898   2.892   0.897   3.354
 8319TIP3    H224899   2.978   0.777   3.390
 8320TIP3   OH224900   3.508   3.032   4.583
 8320TIP3    H124901   3.534   3.111   4.536
 8320TIP3    H224902   3.489   3.062   4.672
 8321TIP3   OH224903   1.258   7.898   6.125
 8321TIP3    H124904   1.336   7.851   6.154
 8321TIP3    H224905   1.206   7.832   6.080
 8322TIP3   OH224906   1.725   1.213   5.222
 8322TIP3    H124907   1.799   1.243   5.275
 8322TIP3    H224908   1.685   1.293   5.188
 8323TIP3   OH224909   6.792   3.152   0.559
 8323TIP3    H124910   6.882   3.173   0.535
 8323TIP3    H224911   6.754   3.236   0.584
 8324TIP3   OH224912   5.696   2.362   2.773
 8324TIP3    H124913   5.634   2.386   2.842
 8324TIP3    H224914   5.676   2.271   2.753
 8325TIP3   OH224915   2.779   0.569   5.678
 8325TIP3    H124916   2.788   0.543   5.770
 8325TIP3    H224917   2.715   0.509   5.642
 8326TIP3   OH224918   7.006   5.214   6.005
 8326TIP3    H124919   6.911   5.208   6.010
 8326TIP3    H224920   7.031   5.156   5.933
 8327TIP3   OH224921   0.372   5.700   3.039
 8327TIP3    H124922   0.407   5.708   3.128
 8327TIP3    H224923   0.447   5.674   2.986
 8328TIP3   OH224924   3.470   4.218   5.378
 8328TIP3    H124925   3.533   4.223   5.307
 8328TIP3    H224926   3.403   4.283   5.356
 8329TIP3   OH224927   4.016   0.203   0.733
 8329TIP3    H124928   3.941   0.262   0.726
 8329TIP3    H224929   4.007   0.144   0.659
 8330TIP3   OH224930   5.485   6.448   1.262
 8330TIP3    H124931   5.447   6.536   1.263
 8330TIP3    H224932   5.525   6.437   1.348
 8331TIP3   OH224933   4.449   4.700   6.660
 8331TIP3    H124934   4.414   4.733   6.577
 8331TIP3    H224935   4.499   4.623   6.636
 8332TIP3   OH224936   6.747   0.914   4.576
 8332TIP3    H124937   6.790   0.837   4.613
 8332TIP3    H224938   6.725   0.889   4.486
 8333TIP3   OH224939   5.645   2.109   3.674
 8333TIP3    H124940   5.738   2.108   3.647
 8333TIP3    H224941   5.646   2.081   3.765
 8334TIP3   OH224942   2.863   3.382   2.062
 8334TIP3    H124943   2.783   3.420   2.098
 8334TIP3    H224944   2.912   3.456   2.027
 8335TIP3   OH224945   6.031   3.734   3.475
 8335TIP3    H124946   6.084   3.747   3.397
 8335TIP3    H224947   6.008   3.822   3.504
 8336TIP3   OH224948   1.319   4.969   5.583
 8336TIP3    H124949   1.272   4.966   5.500
 8336TIP3    H224950   1.310   4.881   5.619
 8337TIP3   OH224951   3.305   0.095   6.110
 8337TIP3    H124952   3.341   0.176   6.145
 8337TIP3    H224953   3.266   0.120   6.026
 8338TIP3   OH224954   3.585   2.452   0.983
 8338TIP3    H124955   3.643   2.526   1.004
 8338TIP3    H224956   3.507   2.467   1.035
 8339TIP3   OH224957   2.234   0.849   1.686
 8339TIP3    H124958   2.207   0.909   1.616
 8339TIP3    H224959   2.197   0.888   1.766
 8340TIP3   OH224960   5.372   6.955   1.948
 8340TIP3    H124961   5.292   6.987   1.906
 8340TIP3    H224962   5.404   6.886   1.890
 8341TIP3   OH224963   7.434   7.396   2.979
 8341TIP3    H124964   7.356   7.347   2.952
 8341TIP3    H224965   7.469   7.434   2.899
 8342TIP3   OH224966   3.246   3.438   3.739
 8342TIP3    H124967   3.181   3.504   3.715
 8342TIP3    H224968   3.329   3.486   3.740
 8343TIP3   OH224969   5.150   7.608   2.719
 8343TIP3    H124970   5.240   7.632   2.742
 8343TIP3    H224971   5.160   7.542   2.651
 8344TIP3   OH224972   0.079   4.474   4.011
 8344TIP3    H124973   0.148   4.446   4.071
 8344TIP3    H224974   0.000   4.481   4.065
 8345TIP3   OH224975   5.564   3.381   1.018
 8345TIP3    H124976   5.485   3.359   0.968
 8345TIP3    H224977   5.550   3.341   1.104
 8346TIP3   OH224978   4.954   2.166   1.632
 8346TIP3    H124979   4.984   2.164   1.723
 8346TIP3    H224980   5.019   2.219   1.587
 8347TIP3   OH224981   0.947   6.732   1.764
 8347TIP3    H124982   1.009   6.659   1.771
 8347TIP3    H224983   0.920   6.750   1.854
 8348TIP3   OH224984   5.915   4.905   2.495
 8348TIP3    H124985   5.990   4.863   2.538
 8348TIP3    H224986   5.921   4.997   2.522
 8349TIP3   OH224987   7.385   5.785   5.118
 8349TIP3    H124988   7.347   5.745   5.196
 8349TIP3    H224989   7.456   5.725   5.093
 8350TIP3   OH224990   1.244   4.433   3.573
 8350TIP3    H124991   1.202   4.412   3.490
 8350TIP3    H224992   1.304   4.504   3.552
 8351TIP3   OH224993   5.930   5.485   3.799
 8351TIP3    H124994   6.013   5.454   3.834
 8351TIP3    H224995   5.864   5.432   3.844
 8352TIP3   OH224996   8.168   3.335   0.704
 8352TIP3    H124997   8.126   3.251   0.685
 8352TIP3    H224998   8.261   3.319   0.693
 8353TIP3   OH224999   3.641   4.446   6.391
 8353TIP3    H125000   3.688   4.528   6.382
 8353TIP3    H225001   3.551   4.472   6.410
 8354TIP3   OH225002   3.959   6.909   0.405
 8354TIP3    H125003   4.013   6.849   0.456
 8354TIP3    H225004   4.006   6.919   0.322
 8355TIP3   OH225005   4.108   4.801   0.992
 8355TIP3    H125006   4.143   4.719   0.955
 8355TIP3    H225007   4.158   4.813   1.072
 8356TIP3   OH225008   6.432   0.204   4.626
 8356TIP3    H125009   6.522   0.178   4.607
 8356TIP3    H225010   6.383   0.178   4.548
 8357TIP3   OH225011   2.709   1.436   5.516
 8357TIP3    H125012   2.696   1.378   5.590
 8357TIP3    H225013   2.622   1.450   5.480
 8358TIP3   OH225014   7.324   0.335   1.811
 8358TIP3    H125015   7.326   0.385   1.729
 8358TIP3    H225016   7.413   0.343   1.845
 8359TIP3   OH225017   2.632   6.940   4.811
 8359TIP3    H125018   2.645   7.035   4.806
 8359TIP3    H225019   2.716   6.906   4.843
 8360TIP3   OH225020   5.431   4.346   1.199
 8360TIP3    H125021   5.468   4.296   1.126
 8360TIP3    H225022   5.421   4.435   1.165
 8361TIP3   OH225023   1.597   3.335   6.348
 8361TIP3    H125024   1.563   3.265   6.293
 8361TIP3    H225025   1.634   3.399   6.287
 8362TIP3   OH225026   4.300   7.914   5.217
 8362TIP3    H125027   4.241   7.921   5.142
 8362TIP3    H225028   4.250   7.862   5.281
 8363TIP3   OH225029   5.731   5.341   4.094
 8363TIP3    H125030   5.703   5.297   4.174
 8363TIP3    H225031   5.650   5.369   4.052
 8364TIP3   OH225032   5.017   2.993   2.832
 8364TIP3    H125033   4.927   3.011   2.860
 8364TIP3    H225034   5.045   2.919   2.887
 8365TIP3   OH225035   8.008   5.803   6.539
 8365TIP3    H125036   7.991   5.730   6.479
 8365TIP3    H225037   8.091   5.780   6.581
 8366TIP3   OH225038   0.782   4.565   2.965
 8366TIP3    H125039   0.778   4.647   3.015
 8366TIP3    H225040   0.793   4.497   3.031
 8367TIP3   OH225041   7.467   0.175   5.247
 8367TIP3    H125042   7.519   0.256   5.249
 8367TIP3    H225043   7.530   0.105   5.262
 8368TIP3   OH225044   4.539   7.818   2.203
 8368TIP3    H125045   4.597   7.814   2.278
 8368TIP3    H225046   4.536   7.911   2.179
 8369TIP3   OH225047   2.098   1.391   5.231
 8369TIP3    H125048   2.166   1.416   5.169
 8369TIP3    H225049   2.049   1.472   5.246
 8370TIP3   OH225050   2.666   4.204   1.758
 8370TIP3    H125051   2.662   4.148   1.835
 8370TIP3    H225052   2.719   4.155   1.695
 8371TIP3   OH225053   0.786   5.182   3.949
 8371TIP3    H125054   0.860   5.168   4.008
 8371TIP3    H225055   0.825   5.183   3.861
 8372TIP3   OH225056   3.770   3.202   0.483
 8372TIP3    H125057   3.832   3.142   0.524
 8372TIP3    H225058   3.684   3.167   0.504
 8373TIP3   OH225059   1.992   7.360   1.005
 8373TIP3    H125060   1.933   7.347   0.931
 8373TIP3    H225061   2.034   7.275   1.017
 8374TIP3   OH225062   0.257   2.440   2.248
 8374TIP3    H125063   0.335   2.413   2.199
 8374TIP3    H225064   0.208   2.494   2.186
 8375TIP3   OH225065   3.079   7.869   5.881
 8375TIP3    H125066   3.162   7.830   5.908
 8375TIP3    H225067   3.021   7.794   5.865
 8376TIP3   OH225068   0.326   1.693   1.222
 8376TIP3    H125069   0.385   1.723   1.291
 8376TIP3    H225070   0.385   1.653   1.157
 8377TIP3   OH225071   2.599   6.696   1.302
 8377TIP3    H125072   2.538   6.639   1.349
 8377TIP3    H225073   2.686   6.665   1.327
 8378TIP3   OH225074   6.946   1.744   1.769
 8378TIP3    H125075   6.864   1.700   1.794
 8378TIP3    H225076   7.003   1.731   1.845
 8379TIP3   OH225077   4.344   5.216   6.531
 8379TIP3    H125078   4.276   5.180   6.473
 8379TIP3    H225079   4.327   5.175   6.616
 8380TIP3   OH225080   7.759   3.904   3.166
 8380TIP3    H125081   7.838   3.954   3.187
 8380TIP3    H225082   7.704   3.912   3.244
 8381TIP3   OH225083   4.694   3.560   1.531
 8381TIP3    H125084   4.719   3.540   1.441
 8381TIP3    H225085   4.634   3.489   1.556
 8382TIP3   OH225086   6.561   0.921   6.288
 8382TIP3    H125087   6.507   0.879   6.355
 8382TIP3    H225088   6.542   1.014   6.297
 8383TIP3   OH225089   2.836   4.703   1.941
 8383TIP3    H125090   2.789   4.720   2.022
 8383TIP3    H225091   2.800   4.620   1.909
 8384TIP3   OH225092   5.786   2.490   0.231
 8384TIP3    H125093   5.823   2.461   0.315
 8384TIP3    H225094   5.771   2.583   0.242
 8385TIP3   OH225095   6.276   4.394   1.293
 8385TIP3    H125096   6.217   4.358   1.358
 8385TIP3    H225097   6.228   4.387   1.210
 8386TIP3   OH225098   4.369   4.322   5.720
 8386TIP3    H125099   4.315   4.243   5.715
 8386TIP3    H225100   4.456   4.294   5.693
 8387TIP3   OH225101   3.640   6.356   6.747
 8387TIP3    H125102   3.665   6.263   6.746
 8387TIP3    H225103   3.667   6.388   6.832
 8388TIP3   OH225104   8.057   6.880   5.345
 8388TIP3    H125105   8.104   6.883   5.428
 8388TIP3    H225106   7.965   6.881   5.369
 8389TIP3   OH225107   8.163   7.054   3.907
 8389TIP3    H125108   8.238   7.087   3.956
 8389TIP3    H225109   8.153   6.964   3.937
 8390TIP3   OH225110   1.963   3.877   3.204
 8390TIP3    H125111   2.044   3.924   3.225
 8390TIP3    H225112   1.937   3.912   3.119
 8391TIP3   OH225113   5.592   0.542   2.368
 8391TIP3    H125114   5.622   0.531   2.459
 8391TIP3    H225115   5.607   0.634   2.349
 8392TIP3   OH225116   3.822   2.666   6.561
 8392TIP3    H125117   3.904   2.713   6.579
 8392TIP3    H225118   3.753   2.731   6.573
 8393TIP3   OH225119   1.469   2.412   0.235
 8393TIP3    H125120   1.442   2.320   0.243
 8393TIP3    H225121   1.468   2.445   0.325
 8394TIP3   OH225122   4.435   3.215   4.147
 8394TIP3    H125123   4.357   3.178   4.188
 8394TIP3    H225124   4.402   3.274   4.080
 8395TIP3   OH225125   5.304   0.332   0.741
 8395TIP3    H125126   5.376   0.284   0.701
 8395TIP3    H225127   5.252   0.364   0.666
 8396TIP3   OH225128   3.382   0.846   2.829
 8396TIP3    H125129   3.418   0.826   2.742
 8396TIP3    H225130   3.446   0.812   2.890
 8397TIP3   OH225131   0.462   2.723   5.590
 8397TIP3    H125132   0.427   2.756   5.673
 8397TIP3    H225133   0.457   2.798   5.530
 8398TIP3   OH225134   5.637   3.660   3.806
 8398TIP3    H125135   5.679   3.745   3.807
 8398TIP3    H225136   5.703   3.601   3.770
 8399TIP3   OH225137   6.666   5.408   6.762
 8399TIP3    H125138   6.585   5.428   6.713
 8399TIP3    H225139   6.721   5.363   6.698
 8400TIP3   OH225140   6.377   1.875   0.691
 8400TIP3    H125141   6.328   1.936   0.746
 8400TIP3    H225142   6.369   1.791   0.735
 8401TIP3   OH225143   6.765   2.688   3.575
 8401TIP3    H125144   6.732   2.600   3.555
 8401TIP3    H225145   6.696   2.727   3.629
 8402TIP3   OH225146   4.728   1.567   2.669
 8402TIP3    H125147   4.745   1.475   2.688
 8402TIP3    H225148   4.693   1.568   2.581
 8403TIP3   OH225149   2.311   6.924   4.719
 8403TIP3    H125150   2.396   6.901   4.757
 8403TIP3    H225151   2.256   6.848   4.738
 8404TIP3   OH225152   1.843   4.196   3.306
 8404TIP3    H125153   1.786   4.134   3.261
 8404TIP3    H225154   1.932   4.169   3.282
 8405TIP3   OH225155   6.936   4.213   3.027
 8405TIP3    H125156   6.901   4.257   2.949
 8405TIP3    H225157   6.880   4.137   3.038
 8406TIP3   OH225158   6.933   2.966   5.571
 8406TIP3    H125159   6.842   2.943   5.589
 8406TIP3    H225160   6.978   2.882   5.562
 8407TIP3   OH225161   2.791   0.770   4.877
 8407TIP3    H125162   2.863   0.831   4.893
 8407TIP3    H225163   2.830   0.683   4.888
 8408TIP3   OH225164   7.006   1.308   0.363
 8408TIP3    H125165   7.095   1.331   0.337
 8408TIP3    H225166   6.986   1.367   0.435
 8409TIP3   OH225167   2.721   5.770   3.092
 8409TIP3    H125168   2.725   5.734   3.181
 8409TIP3    H225169   2.706   5.694   3.036
 8410TIP3   OH225170   5.240   1.145   0.454
 8410TIP3    H125171   5.146   1.162   0.462
 8410TIP3    H225172   5.280   1.232   0.460
 8411TIP3   OH225173   6.591   3.174   2.729
 8411TIP3    H125174   6.546   3.092   2.749
 8411TIP3    H225175   6.600   3.173   2.634
 8412TIP3   OH225176   6.641   3.927   2.058
 8412TIP3    H125177   6.547   3.923   2.043
 8412TIP3    H225178   6.661   4.021   2.062
 8413TIP3   OH225179   0.423   7.782   1.375
 8413TIP3    H125180   0.344   7.831   1.402
 8413TIP3    H225181   0.438   7.720   1.446
 8414TIP3   OH225182   3.435   6.559   0.612
 8414TIP3    H125183   3.438   6.652   0.635
 8414TIP3    H225184   3.525   6.536   0.591
 8415TIP3   OH225185   1.845   4.720   5.267
 8415TIP3    H125186   1.841   4.637   5.220
 8415TIP3    H225187   1.794   4.780   5.213
 8416TIP3   OH225188   3.761   1.304   6.747
 8416TIP3    H125189   3.687   1.244   6.740
 8416TIP3    H225190   3.775   1.336   6.658
 8417TIP3   OH225191   7.417   7.848   3.155
 8417TIP3    H125192   7.455   7.774   3.203
 8417TIP3    H225193   7.327   7.820   3.136
 8418TIP3   OH225194   3.420   4.713   0.551
 8418TIP3    H125195   3.386   4.800   0.532
 8418TIP3    H225196   3.359   4.653   0.508
 8419TIP3   OH225197   5.047   5.265   6.311
 8419TIP3    H125198   5.139   5.287   6.300
 8419TIP3    H225199   5.000   5.337   6.269
 8420TIP3   OH225200   3.944   3.906   3.839
 8420TIP3    H125201   3.952   4.001   3.840
 8420TIP3    H225202   4.033   3.874   3.823
 8421TIP3   OH225203   2.744   6.071   0.787
 8421TIP3    H125204   2.678   6.010   0.755
 8421TIP3    H225205   2.720   6.155   0.748
 8422TIP3   OH225206   3.182   5.884   1.492
 8422TIP3    H125207   3.230   5.924   1.564
 8422TIP3    H225208   3.244   5.822   1.453
 8423TIP3   OH225209   1.623   0.975   2.745
 8423TIP3    H125210   1.686   1.018   2.688
 8423TIP3    H225211   1.571   1.047   2.782
 8424TIP3   OH225212   4.097   0.170   1.204
 8424TIP3    H125213   4.035   0.240   1.183
 8424TIP3    H225214   4.169   0.214   1.249
 8425TIP3   OH225215   4.262   5.582   1.930
 8425TIP3    H125216   4.280   5.516   1.863
 8425TIP3    H225217   4.337   5.642   1.924
 8426TIP3   OH225218   5.412   7.456   1.773
 8426TIP3    H125219   5.330   7.432   1.732
 8426TIP3    H225220   5.479   7.411   1.723
 8427TIP3   OH225221   1.942   2.153   2.373
 8427TIP3    H125222   1.965   2.063   2.349
 8427TIP3    H225223   1.909   2.192   2.292
 8428TIP3   OH225224   2.796   0.573   0.059
 8428TIP3    H125225   2.701   0.575   0.068
 8428TIP3    H225226   2.814   0.621  -0.022
 8429TIP3   OH225227   4.773   7.200   2.845
 8429TIP3    H125228   4.744   7.283   2.883
 8429TIP3    H225229   4.862   7.216   2.816
 8430TIP3   OH225230   2.072   5.699   3.919
 8430TIP3    H125231   1.988   5.655   3.937
 8430TIP3    H225232   2.113   5.646   3.851
 8431TIP3   OH225233   7.184   3.625   5.031
 8431TIP3    H125234   7.277   3.606   5.018
 8431TIP3    H225235   7.164   3.590   5.118
 8432TIP3   OH225236   6.150   4.534   5.111
 8432TIP3    H125237   6.091   4.495   5.176
 8432TIP3    H225238   6.187   4.459   5.065
 8433TIP3   OH225239   8.040   2.819   1.825
 8433TIP3    H125240   7.983   2.776   1.761
 8433TIP3    H225241   8.008   2.788   1.910
 8434TIP3   OH225242   1.046   2.696   3.465
 8434TIP3    H125243   1.061   2.615   3.415
 8434TIP3    H225244   1.133   2.730   3.483
 8435TIP3   OH225245   7.347   6.813   0.162
 8435TIP3    H125246   7.274   6.754   0.144
 8435TIP3    H225247   7.421   6.776   0.113
 8436TIP3   OH225248   3.729   4.395   5.333
 8436TIP3    H125249   3.818   4.375   5.302
 8436TIP3    H225250   3.739   4.407   5.427
 8437TIP3   OH225251   6.565   0.331   3.309
 8437TIP3    H125252   6.647   0.380   3.310
 8437TIP3    H225253   6.568   0.279   3.229
 8438TIP3   OH225254   2.055   1.104   1.176
 8438TIP3    H125255   1.983   1.153   1.137
 8438TIP3    H225256   2.023   1.080   1.263
 8439TIP3   OH225257   5.814   4.846   0.911
 8439TIP3    H125258   5.734   4.893   0.935
 8439TIP3    H225259   5.871   4.914   0.875
 8440TIP3   OH225260   5.875   5.465   0.503
 8440TIP3    H125261   5.885   5.452   0.597
 8440TIP3    H225262   5.922   5.392   0.464
 8441TIP3   OH225263   5.749   4.231   2.514
 8441TIP3    H125264   5.706   4.147   2.501
 8441TIP3    H225265   5.683   4.296   2.488
 8442TIP3   OH225266   6.812   5.709   6.604
 8442TIP3    H125267   6.754   5.747   6.670
 8442TIP3    H225268   6.779   5.742   6.521
 8443TIP3   OH225269   5.987   2.319   6.853
 8443TIP3    H125270   6.037   2.253   6.901
 8443TIP3    H225271   5.934   2.268   6.792
 8444TIP3   OH225272   1.567   5.210   4.378
 8444TIP3    H125273   1.573   5.169   4.464
 8444TIP3    H225274   1.528   5.143   4.322
 8445TIP3   OH225275   4.823   1.130   5.243
 8445TIP3    H125276   4.897   1.104   5.188
 8445TIP3    H225277   4.847   1.216   5.276
 8446TIP3   OH225278   0.757   7.065   1.502
 8446TIP3    H125279   0.717   7.151   1.513
 8446TIP3    H225280   0.688   7.004   1.528
 8447TIP3   OH225281   1.715   3.814   5.209
 8447TIP3    H125282   1.754   3.871   5.143
 8447TIP3    H225283   1.784   3.752   5.231
 8448TIP3   OH225284   5.360   4.635   1.320
 8448TIP3    H125285   5.408   4.678   1.390
 8448TIP3    H225286   5.374   4.692   1.243
 8449TIP3   OH225287   1.267   3.358   2.316
 8449TIP3    H125288   1.293   3.446   2.289
 8449TIP3    H225289   1.192   3.337   2.259
 8450TIP3   OH225290   3.031   4.345   2.850
 8450TIP3    H125291   2.965   4.283   2.881
 8450TIP3    H225292   2.983   4.407   2.797
 8451TIP3   OH225293   4.727   7.056   1.102
 8451TIP3    H125294   4.765   7.136   1.137
 8451TIP3    H225295   4.731   6.994   1.175
 8452TIP3   OH225296   6.781   1.533   3.942
 8452TIP3    H125297   6.787   1.453   3.994
 8452TIP3    H225298   6.743   1.597   4.002
 8453TIP3   OH225299   4.393   4.119   0.144
 8453TIP3    H125300   4.354   4.033   0.125
 8453TIP3    H225301   4.419   4.152   0.058
 8454TIP3   OH225302   5.439   4.955   1.691
 8454TIP3    H125303   5.403   4.952   1.780
 8454TIP3    H225304   5.510   5.020   1.696
 8455TIP3   OH225305   2.556   3.605   6.070
 8455TIP3    H125306   2.526   3.610   5.979
 8455TIP3    H225307   2.500   3.539   6.110
 8456TIP3   OH225308   7.967   0.473   6.196
 8456TIP3    H125309   7.888   0.440   6.153
 8456TIP3    H225310   7.980   0.415   6.271
 8457TIP3   OH225311   5.831   3.437   2.325
 8457TIP3    H125312   5.870   3.470   2.406
 8457TIP3    H225313   5.741   3.467   2.328
 8458TIP3   OH225314   6.344   6.638   3.204
 8458TIP3    H125315   6.274   6.681   3.254
 8458TIP3    H225316   6.423   6.688   3.224
 8459TIP3   OH225317   6.876   2.958   2.385
 8459TIP3    H125318   6.900   3.051   2.387
 8459TIP3    H225319   6.955   2.912   2.415
 8460TIP3   OH225320   4.781   1.548   0.388
 8460TIP3    H125321   4.693   1.552   0.423
 8460TIP3    H225322   4.834   1.513   0.460
 8461TIP3   OH225323   2.408   0.908   5.677
 8461TIP3    H125324   2.344   0.901   5.606
 8461TIP3    H225325   2.493   0.909   5.632
 8462TIP3   OH225326   8.038   3.237   1.116
 8462TIP3    H125327   8.067   3.159   1.070
 8462TIP3    H225328   7.951   3.255   1.081
 8463TIP3   OH225329   4.505   5.311   1.924
 8463TIP3    H125330   4.498   5.375   1.995
 8463TIP3    H225331   4.587   5.333   1.880
 8464TIP3   OH225332   3.395   6.819   5.104
 8464TIP3    H125333   3.406   6.905   5.062
 8464TIP3    H225334   3.386   6.758   5.031
 8465TIP3   OH225335   8.115   6.467   5.093
 8465TIP3    H125336   8.146   6.556   5.103
 8465TIP3    H225337   8.052   6.470   5.020
 8466TIP3   OH225338   3.660   0.471   3.796
 8466TIP3    H125339   3.665   0.388   3.750
 8466TIP3    H225340   3.639   0.448   3.886
 8467TIP3   OH225341   4.766   0.624   2.745
 8467TIP3    H125342   4.853   0.633   2.706
 8467TIP3    H225343   4.718   0.568   2.684
 8468TIP3   OH225344   7.778   6.680   0.919
 8468TIP3    H125345   7.829   6.709   0.843
 8468TIP3    H225346   7.745   6.594   0.894
 8469TIP3   OH225347   4.812   5.473   4.587
 8469TIP3    H125348   4.811   5.509   4.499
 8469TIP3    H225349   4.747   5.403   4.586
 8470TIP3   OH225350   4.731   7.525   2.702
 8470TIP3    H125351   4.789   7.580   2.755
 8470TIP3    H225352   4.662   7.499   2.762
 8471TIP3   OH225353   6.503   2.288   5.889
 8471TIP3    H125354   6.445   2.213   5.871
 8471TIP3    H225355   6.591   2.251   5.885
 8472TIP3   OH225356   5.013   0.236   4.798
 8472TIP3    H125357   4.946   0.192   4.745
 8472TIP3    H225358   5.001   0.329   4.779
 8473TIP3   OH225359   5.648   4.370   0.550
 8473TIP3    H125360   5.586   4.437   0.519
 8473TIP3    H225361   5.681   4.329   0.470
 8474TIP3   OH225362   0.677   0.441   2.380
 8474TIP3    H125363   0.595   0.396   2.399
 8474TIP3    H225364   0.742   0.397   2.433
 8475TIP3   OH225365   2.201   2.121   0.674
 8475TIP3    H125366   2.205   2.027   0.662
 8475TIP3    H225367   2.269   2.156   0.617
 8476TIP3   OH225368   7.396   7.625   5.545
 8476TIP3    H125369   7.305   7.597   5.535
 8476TIP3    H225370   7.419   7.665   5.461
 8477TIP3   OH225371   6.010   6.831   4.514
 8477TIP3    H125372   5.955   6.885   4.458
 8477TIP3    H225373   6.023   6.885   4.593
 8478TIP3   OH225374   6.365   3.578   6.824
 8478TIP3    H125375   6.424   3.503   6.819
 8478TIP3    H225376   6.410   3.647   6.774
 8479TIP3   OH225377   7.038   5.508   2.360
 8479TIP3    H125378   6.961   5.458   2.334
 8479TIP3    H225379   7.005   5.595   2.380
 8480TIP3   OH225380   1.567   5.333   1.309
 8480TIP3    H125381   1.522   5.300   1.232
 8480TIP3    H225382   1.531   5.421   1.322
 8481TIP3   OH225383   7.967   4.827   4.295
 8481TIP3    H125384   7.935   4.847   4.383
 8481TIP3    H225385   8.050   4.875   4.288
 8482TIP3   OH225386   7.267   5.562   3.103
 8482TIP3    H125387   7.241   5.531   3.190
 8482TIP3    H225388   7.355   5.596   3.114
 8483TIP3   OH225389   7.411   7.008   1.659
 8483TIP3    H125390   7.459   7.084   1.628
 8483TIP3    H225391   7.320   7.039   1.667
 8484TIP3   OH225392   2.777   5.843   4.799
 8484TIP3    H125393   2.793   5.767   4.742
 8484TIP3    H225394   2.721   5.901   4.746
 8485TIP3   OH225395   5.093   3.291   5.128
 8485TIP3    H125396   5.052   3.283   5.042
 8485TIP3    H225397   5.123   3.203   5.149
 8486TIP3   OH225398   2.113   1.797   3.310
 8486TIP3    H125399   2.037   1.838   3.351
 8486TIP3    H225400   2.079   1.755   3.231
 8487TIP3   OH225401   6.360   2.937   2.317
 8487TIP3    H125402   6.404   2.854   2.335
 8487TIP3    H225403   6.267   2.919   2.331
 8488TIP3   OH225404   4.435   6.766   4.623
 8488TIP3    H125405   4.486   6.770   4.542
 8488TIP3    H225406   4.451   6.678   4.657
 8489TIP3   OH225407   2.511   0.373   4.170
 8489TIP3    H125408   2.470   0.394   4.086
 8489TIP3    H225409   2.485   0.282   4.187
 8490TIP3   OH225410   7.720   1.588   3.388
 8490TIP3    H125411   7.667   1.665   3.369
 8490TIP3    H225412   7.709   1.573   3.482
 8491TIP3   OH225413   1.026   6.975   1.500
 8491TIP3    H125414   0.936   6.982   1.532
 8491TIP3    H225415   1.080   6.977   1.579
 8492TIP3   OH225416   4.012   2.912   4.351
 8492TIP3    H125417   4.031   3.004   4.369
 8492TIP3    H225418   3.970   2.912   4.266
 8493TIP3   OH225419   2.959   7.950   4.497
 8493TIP3    H125420   2.985   7.859   4.485
 8493TIP3    H225421   3.000   7.976   4.580
 8494TIP3   OH225422   7.916   6.745   3.674
 8494TIP3    H125423   7.937   6.804   3.602
 8494TIP3    H225424   7.833   6.778   3.709
 8495TIP3   OH225425   7.399   7.069   2.693
 8495TIP3    H125426   7.339   7.047   2.622
 8495TIP3    H225427   7.486   7.063   2.654
 8496TIP3   OH225428   2.551   0.982   6.222
 8496TIP3    H125429   2.529   0.994   6.130
 8496TIP3    H225430   2.646   0.970   6.222
 8497TIP3   OH225431   4.507   6.055   6.399
 8497TIP3    H125432   4.488   6.030   6.490
 8497TIP3    H225433   4.586   6.110   6.406
 8498TIP3   OH225434   2.234   1.029   6.023
 8498TIP3    H125435   2.326   1.054   6.014
 8498TIP3    H225436   2.235   0.933   6.027
 8499TIP3   OH225437   7.078   0.975   3.357
 8499TIP3    H125438   7.102   0.918   3.431
 8499TIP3    H225439   7.105   0.925   3.280
 8500TIP3   OH225440   6.922   6.446   4.149
 8500TIP3    H125441   6.996   6.423   4.206
 8500TIP3    H225442   6.959   6.448   4.061
 8501TIP3   OH225443   1.794   7.492   4.998
 8501TIP3    H125444   1.784   7.524   5.088
 8501TIP3    H225445   1.783   7.397   5.006
 8502TIP3   OH225446   1.665   2.940   6.174
 8502TIP3    H125447   1.641   2.904   6.089
 8502TIP3    H225448   1.612   3.019   6.183
 8503TIP3   OH225449   5.869   0.922   4.863
 8503TIP3    H125450   5.871   0.988   4.793
 8503TIP3    H225451   5.828   0.845   4.823
 8504TIP3   OH225452   0.535   2.182   6.250
 8504TIP3    H125453   0.449   2.224   6.245
 8504TIP3    H225454   0.522   2.108   6.309
 8505TIP3   OH225455   4.211   7.011   2.746
 8505TIP3    H125456   4.206   6.927   2.791
 8505TIP3    H225457   4.150   7.004   2.673
 8506TIP3   OH225458   4.485   7.479   5.929
 8506TIP3    H125459   4.572   7.515   5.943
 8506TIP3    H225460   4.461   7.440   6.013
 8507TIP3   OH225461   8.356   0.116   4.784
 8507TIP3    H125462   8.421   0.127   4.714
 8507TIP3    H225463   8.312   0.201   4.789
 8508TIP3   OH225464   6.419   4.029   6.410
 8508TIP3    H125465   6.379   4.109   6.443
 8508TIP3    H225466   6.383   4.018   6.322
 8509TIP3   OH225467   0.574   3.987   3.752
 8509TIP3    H125468   0.605   3.987   3.843
 8509TIP3    H225469   0.647   4.022   3.702
 8510TIP3   OH225470   6.278   0.741   4.818
 8510TIP3    H125471   6.268   0.746   4.723
 8510TIP3    H225472   6.265   0.830   4.848
 8511TIP3   OH225473   6.081   5.191   0.139
 8511TIP3    H125474   6.012   5.124   0.141
 8511TIP3    H225475   6.147   5.156   0.080
 8512TIP3   OH225476   0.351   1.282   0.437
 8512TIP3    H125477   0.370   1.216   0.370
 8512TIP3    H225478   0.255   1.291   0.434
 8513TIP3   OH225479   6.360   7.206   1.193
 8513TIP3    H125480   6.334   7.159   1.272
 8513TIP3    H225481   6.357   7.140   1.124
 8514TIP3   OH225482   5.342   1.210   3.467
 8514TIP3    H125483   5.312   1.220   3.376
 8514TIP3    H225484   5.264   1.186   3.516
 8515TIP3   OH225485   5.393   4.059   4.742
 8515TIP3    H125486   5.418   3.968   4.756
 8515TIP3    H225487   5.308   4.068   4.785
 8516TIP3   OH225488   6.389   7.363   6.743
 8516TIP3    H125489   6.382   7.271   6.718
 8516TIP3    H225490   6.299   7.391   6.757
 8517TIP3   OH225491   4.150   4.973   1.761
 8517TIP3    H125492   4.184   5.017   1.839
 8517TIP3    H225493   4.216   4.986   1.694
 8518TIP3   OH225494   8.190   6.204   2.182
 8518TIP3    H125495   8.097   6.196   2.161
 8518TIP3    H225496   8.195   6.277   2.244
 8519TIP3   OH225497   3.316   1.135   2.784
 8519TIP3    H125498   3.391   1.081   2.809
 8519TIP3    H225499   3.352   1.199   2.722
 8520TIP3   OH225500   7.015   4.462   6.324
 8520TIP3    H125501   7.095   4.500   6.288
 8520TIP3    H225502   7.041   4.429   6.410
 8521TIP3   OH225503   3.249   6.452   5.629
 8521TIP3    H125504   3.308   6.435   5.556
 8521TIP3    H225505   3.169   6.487   5.588
 8522TIP3   OH225506   2.989   0.599   1.719
 8522TIP3    H125507   2.962   0.667   1.657
 8522TIP3    H225508   3.014   0.646   1.798
 8523TIP3   OH225509   1.538   1.320   6.190
 8523TIP3    H125510   1.503   1.298   6.276
 8523TIP3    H225511   1.475   1.382   6.154
 8524TIP3   OH225512   5.030   5.438   0.192
 8524TIP3    H125513   5.049   5.499   0.121
 8524TIP3    H225514   5.086   5.466   0.263
 8525TIP3   OH225515   7.866   6.280   2.458
 8525TIP3    H125516   7.888   6.188   2.442
 8525TIP3    H225517   7.945   6.328   2.431
 8526TIP3   OH225518   6.461   3.544   5.652
 8526TIP3    H125519   6.368   3.544   5.630
 8526TIP3    H225520   6.492   3.631   5.627
 8527TIP3   OH225521   3.381   7.616   6.230
 8527TIP3    H125522   3.358   7.693   6.177
 8527TIP3    H225523   3.326   7.546   6.195
 8528TIP3   OH225524   6.423   1.014   5.827
 8528TIP3    H125525   6.446   1.101   5.860
 8528TIP3    H225526   6.475   0.954   5.881
 8529TIP3   OH225527   4.419   1.909   4.101
 8529TIP3    H125528   4.376   1.881   4.181
 8529TIP3    H225529   4.512   1.892   4.116
 8530TIP3   OH225530   7.046   2.049   4.776
 8530TIP3    H125531   6.961   2.006   4.784
 8530TIP3    H225532   7.109   1.982   4.802
 8531TIP3   OH225533   5.205   2.500   0.996
 8531TIP3    H125534   5.297   2.517   0.975
 8531TIP3    H225535   5.157   2.523   0.917
 8532TIP3   OH225536   5.647   7.481   0.113
 8532TIP3    H125537   5.642   7.483   0.017
 8532TIP3    H225538   5.622   7.392   0.136
 8533TIP3   OH225539   6.447   0.099   4.049
 8533TIP3    H125540   6.522   0.086   3.991
 8533TIP3    H225541   6.380   0.040   4.015
 8534TIP3   OH225542   3.324   7.211   5.942
 8534TIP3    H125543   3.293   7.237   5.855
 8534TIP3    H225544   3.326   7.115   5.939
 8535TIP3   OH225545   2.750   1.282   0.063
 8535TIP3    H125546   2.771   1.189   0.076
 8535TIP3    H225547   2.724   1.313   0.149
 8536TIP3   OH225548   5.000   2.193   2.798
 8536TIP3    H125549   4.936   2.159   2.860
 8536TIP3    H225550   5.034   2.115   2.753
 8537TIP3   OH225551   1.053   6.994   1.785
 8537TIP3    H125552   0.977   6.940   1.767
 8537TIP3    H225553   1.020   7.062   1.844
 8538TIP3   OH225554   2.347   1.910   0.537
 8538TIP3    H125555   2.289   1.882   0.466
 8538TIP3    H225556   2.395   1.831   0.562
 8539TIP3   OH225557   1.530   4.911   3.342
 8539TIP3    H125558   1.534   4.999   3.380
 8539TIP3    H225559   1.510   4.853   3.415
 8540TIP3   OH225560   1.409   7.547   2.500
 8540TIP3    H125561   1.413   7.598   2.580
 8540TIP3    H225562   1.351   7.597   2.442
 8541TIP3   OH225563   0.394   6.259   2.277
 8541TIP3    H125564   0.473   6.217   2.311
 8541TIP3    H225565   0.336   6.266   2.353
 8542TIP3   OH225566   3.175   2.713   1.780
 8542TIP3    H125567   3.200   2.623   1.759
 8542TIP3    H225568   3.080   2.711   1.786
 8543TIP3   OH225569   4.668   3.294   5.727
 8543TIP3    H125570   4.655   3.224   5.663
 8543TIP3    H225571   4.631   3.260   5.808
 8544TIP3   OH225572   1.281   7.745   5.310
 8544TIP3    H125573   1.371   7.724   5.335
 8544TIP3    H225574   1.227   7.693   5.370
 8545TIP3   OH225575   7.809   2.277   2.980
 8545TIP3    H125576   7.884   2.222   2.961
 8545TIP3    H225577   7.844   2.366   2.982
 8546TIP3   OH225578   4.437   6.099   3.879
 8546TIP3    H125579   4.345   6.075   3.876
 8546TIP3    H225580   4.483   6.016   3.895
 8547TIP3   OH225581   7.160   7.830   1.084
 8547TIP3    H125582   7.227   7.798   1.024
 8547TIP3    H225583   7.145   7.920   1.057
 8548TIP3   OH225584   3.540   3.071   2.500
 8548TIP3    H125585   3.604   3.031   2.558
 8548TIP3    H225586   3.520   3.003   2.436
 8549TIP3   OH225587   2.568   2.207   0.699
 8549TIP3    H125588   2.565   2.177   0.608
 8549TIP3    H225589   2.577   2.303   0.692
 8550TIP3   OH225590   2.860   0.127   6.818
 8550TIP3    H125591   2.902   0.050   6.858
 8550TIP3    H225592   2.783   0.143   6.873
 8551TIP3   OH225593   2.886   5.552   1.363
 8551TIP3    H125594   2.845   5.503   1.292
 8551TIP3    H225595   2.922   5.630   1.321
 8552TIP3   OH225596   4.272   1.145   3.766
 8552TIP3    H125597   4.308   1.189   3.689
 8552TIP3    H225598   4.281   1.051   3.746
 8553TIP3   OH225599   0.047   2.930   0.320
 8553TIP3    H125600  -0.036   2.883   0.314
 8553TIP3    H225601   0.102   2.890   0.252
 8554TIP3   OH225602   5.629   7.138   1.855
 8554TIP3    H125603   5.600   7.061   1.903
 8554TIP3    H225604   5.720   7.120   1.833
 8555TIP3   OH225605   5.209   1.923   0.756
 8555TIP3    H125606   5.163   1.896   0.835
 8555TIP3    H225607   5.296   1.884   0.765
 8556TIP3   OH225608   0.582   7.622   2.918
 8556TIP3    H125609   0.496   7.589   2.945
 8556TIP3    H225610   0.565   7.666   2.835
 8557TIP3   OH225611   0.978   4.360   3.823
 8557TIP3    H125612   0.919   4.287   3.840
 8557TIP3    H225613   1.063   4.320   3.807
 8558TIP3   OH225614   5.021   7.095   4.504
 8558TIP3    H125615   5.063   7.173   4.466
 8558TIP3    H225616   4.932   7.124   4.524
 8559TIP3   OH225617   5.104   2.076   4.410
 8559TIP3    H125618   5.171   2.087   4.342
 8559TIP3    H225619   5.149   2.033   4.482
 8560TIP3   OH225620   0.125   1.631   2.155
 8560TIP3    H125621   0.094   1.552   2.201
 8560TIP3    H225622   0.212   1.607   2.123
 8561TIP3   OH225623   4.686   1.003   3.809
 8561TIP3    H125624   4.733   1.069   3.861
 8561TIP3    H225625   4.753   0.939   3.784
 8562TIP3   OH225626   2.812   2.577   3.818
 8562TIP3    H125627   2.835   2.617   3.735
 8562TIP3    H225628   2.854   2.633   3.884
 8563TIP3   OH225629   7.997   1.609   1.141
 8563TIP3    H125630   8.037   1.575   1.061
 8563TIP3    H225631   7.913   1.644   1.113
 8564TIP3   OH225632   7.685   5.244   6.729
 8564TIP3    H125633   7.629   5.283   6.796
 8564TIP3    H225634   7.663   5.151   6.731
 8565TIP3   OH225635   2.274   0.537   4.759
 8565TIP3    H125636   2.192   0.488   4.763
 8565TIP3    H225637   2.340   0.474   4.788
 8566TIP3   OH225638   7.002   4.004   2.252
 8566TIP3    H125639   6.998   4.091   2.211
 8566TIP3    H225640   6.973   3.944   2.183
 8567TIP3   OH225641   2.021   1.461   5.500
 8567TIP3    H125642   2.055   1.535   5.449
 8567TIP3    H225643   2.055   1.383   5.456
 8568TIP3   OH225644   0.059   1.572   4.963
 8568TIP3    H125645   0.039   1.665   4.970
 8568TIP3    H225646   0.037   1.536   5.048
 8569TIP3   OH225647   1.943   7.266   0.016
 8569TIP3    H125648   2.030   7.303   0.031
 8569TIP3    H225649   1.911   7.311  -0.062
 8570TIP3   OH225650   2.407   1.680   3.608
 8570TIP3    H125651   2.328   1.673   3.554
 8570TIP3    H225652   2.478   1.695   3.546
 8571TIP3   OH225653   2.757   6.514   5.064
 8571TIP3    H125654   2.798   6.488   4.981
 8571TIP3    H225655   2.714   6.434   5.095
 8572TIP3   OH225656   3.905  -0.024   1.760
 8572TIP3    H125657   3.880  -0.048   1.849
 8572TIP3    H225658   3.881   0.068   1.752
 8573TIP3   OH225659   4.391   5.732   6.126
 8573TIP3    H125660   4.356   5.816   6.097
 8573TIP3    H225661   4.479   5.728   6.086
 8574TIP3   OH225662   7.659   1.266   5.438
 8574TIP3    H125663   7.748   1.253   5.469
 8574TIP3    H225664   7.613   1.186   5.465
 8575TIP3   OH225665   5.662   5.917   1.560
 8575TIP3    H125666   5.636   5.985   1.498
 8575TIP3    H225667   5.713   5.963   1.627
 8576TIP3   OH225668   4.071   6.715   0.972
 8576TIP3    H125669   4.114   6.789   0.931
 8576TIP3    H225670   4.007   6.753   1.032
 8577TIP3   OH225671   2.719   1.877   1.720
 8577TIP3    H125672   2.704   1.879   1.814
 8577TIP3    H225673   2.632   1.884   1.682
 8578TIP3   OH225674   7.902   3.217   6.522
 8578TIP3    H125675   7.989   3.201   6.558
 8578TIP3    H225676   7.843   3.165   6.578
 8579TIP3   OH225677   5.356   3.308   2.681
 8579TIP3    H125678   5.319   3.257   2.753
 8579TIP3    H225679   5.440   3.339   2.714
 8580TIP3   OH225680   1.007   4.502   3.147
 8580TIP3    H125681   0.941   4.444   3.183
 8580TIP3    H225682   1.003   4.581   3.201
 8581TIP3   OH225683   6.597   7.737   2.413
 8581TIP3    H125684   6.544   7.663   2.384
 8581TIP3    H225685   6.610   7.789   2.333
 8582TIP3   OH225686   2.491   5.799   2.770
 8582TIP3    H125687   2.469   5.750   2.849
 8582TIP3    H225688   2.571   5.757   2.738
 8583TIP3   OH225689   0.626   6.903   4.434
 8583TIP3    H125690   0.557   6.895   4.501
 8583TIP3    H225691   0.591   6.967   4.372
 8584TIP3   OH225692   7.368   0.006   1.451
 8584TIP3    H125693   7.354   0.049   1.535
 8584TIP3    H225694   7.279  -0.009   1.417
 8585TIP3   OH225695   6.710   2.360   4.819
 8585TIP3    H125696   6.754   2.290   4.868
 8585TIP3    H225697   6.695   2.429   4.884
 8586TIP3   OH225698   4.552   3.347   1.627
 8586TIP3    H125699   4.560   3.300   1.710
 8586TIP3    H225700   4.463   3.383   1.628
 8587TIP3   OH225701   4.984   6.298   4.324
 8587TIP3    H125702   4.947   6.343   4.401
 8587TIP3    H225703   5.078   6.309   4.334
 8588TIP3   OH225704   3.200   1.921   5.307
 8588TIP3    H125705   3.246   1.995   5.347
 8588TIP3    H225706   3.250   1.844   5.335
 8589TIP3   OH225707   8.016   2.080   1.392
 8589TIP3    H125708   8.062   2.164   1.395
 8589TIP3    H225709   8.069   2.021   1.444
 8590TIP3   OH225710   3.821   1.653   0.363
 8590TIP3    H125711   3.796   1.588   0.297
 8590TIP3    H225712   3.821   1.736   0.316
 8591TIP3   OH225713   6.444   7.300   2.438
 8591TIP3    H125714   6.518   7.337   2.486
 8591TIP3    H225715   6.377   7.286   2.504
 8592TIP3   OH225716   1.179   2.230   0.720
 8592TIP3    H125717   1.179   2.262   0.810
 8592TIP3    H225718   1.091   2.251   0.687
 8593TIP3   OH225719   2.602   1.605   6.896
 8593TIP3    H125720   2.611   1.593   6.990
 8593TIP3    H225721   2.620   1.518   6.859
 8594TIP3   OH225722   6.665   1.725   3.715
 8594TIP3    H125723   6.706   1.672   3.784
 8594TIP3    H225724   6.675   1.673   3.636
 8595TIP3   OH225725   0.980   4.878   6.204
 8595TIP3    H125726   1.022   4.845   6.124
 8595TIP3    H225727   0.890   4.847   6.198
 8596TIP3   OH225728   6.760   7.873   4.248
 8596TIP3    H125729   6.727   7.818   4.177
 8596TIP3    H225730   6.845   7.904   4.217
 8597TIP3   OH225731   2.647   0.013   2.240
 8597TIP3    H125732   2.739   0.011   2.213
 8597TIP3    H225733   2.650   0.038   2.333
 8598TIP3   OH225734   5.179   4.089   4.908
 8598TIP3    H125735   5.180   4.016   4.970
 8598TIP3    H225736   5.112   4.065   4.844
 8599TIP3   OH225737   1.388   6.530   6.073
 8599TIP3    H125738   1.352   6.543   5.986
 8599TIP3    H225739   1.456   6.598   6.080
 8600TIP3   OH225740   3.061   2.295   5.735
 8600TIP3    H125741   2.990   2.354   5.710
 8600TIP3    H225742   3.030   2.254   5.816
 8601TIP3   OH225743   7.910   2.996   3.764
 8601TIP3    H125744   7.982   3.015   3.824
 8601TIP3    H225745   7.883   2.907   3.787
 8602TIP3   OH225746   5.598   0.144   2.674
 8602TIP3    H125747   5.521   0.156   2.729
 8602TIP3    H225748   5.635   0.060   2.702
 8603TIP3   OH225749   1.304   2.494   0.006
 8603TIP3    H125750   1.360   2.455   0.073
 8603TIP3    H225751   1.362   2.554  -0.041
 8604TIP3   OH225752   7.752   2.159   1.471
 8604TIP3    H125753   7.837   2.127   1.440
 8604TIP3    H225754   7.770   2.196   1.557
 8605TIP3   OH225755   2.091   3.072   4.571
 8605TIP3    H125756   2.130   2.997   4.526
 8605TIP3    H225757   2.076   3.041   4.661
 8606TIP3   OH225758   4.026   0.934   0.675
 8606TIP3    H125759   4.105   0.933   0.621
 8606TIP3    H225760   3.960   0.888   0.622
 8607TIP3   OH225761   3.274   3.127   2.616
 8607TIP3    H125762   3.308   3.211   2.649
 8607TIP3    H225763   3.348   3.090   2.567
 8608TIP3   OH225764   6.559   5.080   0.633
 8608TIP3    H125765   6.610   5.160   0.644
 8608TIP3    H225766   6.495   5.102   0.565
 8609TIP3   OH225767   0.427   3.607   2.854
 8609TIP3    H125768   0.344   3.636   2.892
 8609TIP3    H225769   0.420   3.630   2.761
 8610TIP3   OH225770   3.797   1.062   3.846
 8610TIP3    H125771   3.778   1.129   3.780
 8610TIP3    H225772   3.805   1.110   3.928
 8611TIP3   OH225773   4.136   0.490   6.035
 8611TIP3    H125774   4.146   0.516   6.127
 8611TIP3    H225775   4.135   0.394   6.037
 8612TIP3   OH225776   3.013   1.127   5.139
 8612TIP3    H125777   2.975   1.128   5.227
 8612TIP3    H225778   2.977   1.049   5.098
 8613TIP3   OH225779   6.196   2.733   5.127
 8613TIP3    H125780   6.234   2.771   5.206
 8613TIP3    H225781   6.212   2.799   5.059
 8614TIP3   OH225782   0.960   7.714   5.719
 8614TIP3    H125783   0.997   7.655   5.784
 8614TIP3    H225784   0.880   7.748   5.758
 8615TIP3   OH225785   6.555   7.246   3.857
 8615TIP3    H125786   6.467   7.253   3.819
 8615TIP3    H225787   6.546   7.284   3.944
 8616TIP3   OH225788   0.662   3.319   1.817
 8616TIP3    H125789   0.734   3.381   1.802
 8616TIP3    H225790   0.700   3.233   1.801
 8617TIP3   OH225791   3.705   5.396   4.349
 8617TIP3    H125792   3.649   5.451   4.405
 8617TIP3    H225793   3.773   5.364   4.408
 8618TIP3   OH225794   2.166   5.705   1.475
 8618TIP3    H125795   2.228   5.767   1.435
 8618TIP3    H225796   2.126   5.660   1.401
 8619TIP3   OH225797   4.318   0.306   3.315
 8619TIP3    H125798   4.378   0.345   3.251
 8619TIP3    H225799   4.358   0.327   3.400
 8620TIP3   OH225800   1.102   6.729   1.467
 8620TIP3    H125801   1.157   6.731   1.388
 8620TIP3    H225802   1.074   6.820   1.478
 8621TIP3   OH225803   6.863   4.503   0.936
 8621TIP3    H125804   6.857   4.584   0.885
 8621TIP3    H225805   6.811   4.520   1.014
 8622TIP3   OH225806   2.889   2.304   2.130
 8622TIP3    H125807   2.839   2.285   2.209
 8622TIP3    H225808   2.840   2.261   2.059
 8623TIP3   OH225809   6.979   2.163   4.427
 8623TIP3    H125810   6.995   2.210   4.509
 8623TIP3    H225811   6.892   2.124   4.439
 8624TIP3   OH225812   3.288   1.325   3.746
 8624TIP3    H125813   3.248   1.339   3.832
 8624TIP3    H225814   3.240   1.251   3.709
 8625TIP3   OH225815   6.051   5.197   4.807
 8625TIP3    H125816   5.973   5.253   4.806
 8625TIP3    H225817   6.124   5.258   4.804
 8626TIP3   OH225818   6.132   7.513   5.024
 8626TIP3    H125819   6.182   7.432   5.030
 8626TIP3    H225820   6.058   7.501   5.082
 8627TIP3   OH225821   0.557   7.142   0.384
 8627TIP3    H125822   0.483   7.202   0.388
 8627TIP3    H225823   0.522   7.058   0.414
 8628TIP3   OH225824   3.343   4.234   6.876
 8628TIP3    H125825   3.266   4.221   6.822
 8628TIP3    H225826   3.338   4.326   6.903
 8629TIP3   OH225827   6.117   4.112   0.202
 8629TIP3    H125828   6.181   4.179   0.228
 8629TIP3    H225829   6.145   4.083   0.116
 8630TIP3   OH225830   7.320   0.642   5.324
 8630TIP3    H125831   7.256   0.572   5.318
 8630TIP3    H225832   7.356   0.650   5.235
 8631TIP3   OH225833   2.830   6.405   2.968
 8631TIP3    H125834   2.852   6.391   3.060
 8631TIP3    H225835   2.805   6.318   2.935
 8632TIP3   OH225836   5.422   7.171   2.122
 8632TIP3    H125837   5.441   7.252   2.073
 8632TIP3    H225838   5.425   7.102   2.056
 8633TIP3   OH225839   2.829   7.454   1.285
 8633TIP3    H125840   2.875   7.491   1.361
 8633TIP3    H225841   2.887   7.387   1.252
 8634TIP3   OH225842   3.733   2.558   4.681
 8634TIP3    H125843   3.656   2.538   4.627
 8634TIP3    H225844   3.739   2.653   4.679
 8635TIP3   OH225845   7.308   2.415   0.565
 8635TIP3    H125846   7.227   2.445   0.523
 8635TIP3    H225847   7.316   2.323   0.539
 8636TIP3   OH225848   5.320   0.888   0.355
 8636TIP3    H125849   5.237   0.841   0.354
 8636TIP3    H225850   5.299   0.973   0.395
 8637TIP3   OH225851   6.500   2.356   6.150
 8637TIP3    H125852   6.515   2.324   6.061
 8637TIP3    H225853   6.407   2.379   6.152
 8638TIP3   OH225854   0.654   1.560   1.841
 8638TIP3    H125855   0.620   1.649   1.826
 8638TIP3    H225856   0.609   1.531   1.921
 8639TIP3   OH225857   0.304   4.953   5.764
 8639TIP3    H125858   0.213   4.931   5.784
 8639TIP3    H225859   0.349   4.949   5.849
 8640TIP3   OH225860   7.858   7.441   1.794
 8640TIP3    H125861   7.850   7.496   1.872
 8640TIP3    H225862   7.788   7.471   1.737
 8641TIP3   OH225863   1.197   3.951   2.246
 8641TIP3    H125864   1.209   4.033   2.294
 8641TIP3    H225865   1.265   3.952   2.179
 8642TIP3   OH225866   1.902   3.750   6.446
 8642TIP3    H125867   1.810   3.760   6.423
 8642TIP3    H225868   1.906   3.669   6.496
 8643TIP3   OH225869   4.391   2.910   2.663
 8643TIP3    H125870   4.485   2.929   2.662
 8643TIP3    H225871   4.350   2.990   2.629
 8644TIP3   OH225872   2.167   1.015   2.774
 8644TIP3    H125873   2.262   1.018   2.784
 8644TIP3    H225874   2.150   1.067   2.695
 8645TIP3   OH225875   5.229   3.628   2.236
 8645TIP3    H125876   5.200   3.719   2.246
 8645TIP3    H225877   5.301   3.633   2.173
 8646TIP3   OH225878   5.293   4.695   1.706
 8646TIP3    H125879   5.330   4.778   1.678
 8646TIP3    H225880   5.198   4.705   1.696
 8647TIP3   OH225881   5.872   4.496   5.173
 8647TIP3    H125882   5.868   4.498   5.077
 8647TIP3    H225883   5.785   4.526   5.201
 8648TIP3   OH225884   4.899   5.500   5.861
 8648TIP3    H125885   4.901   5.570   5.926
 8648TIP3    H225886   4.949   5.534   5.787
 8649TIP3   OH225887   3.180   1.706   5.582
 8649TIP3    H125888   3.130   1.772   5.630
 8649TIP3    H225889   3.271   1.732   5.594
 8650TIP3   OH225890   6.010   6.208   4.220
 8650TIP3    H125891   5.990   6.129   4.168
 8650TIP3    H225892   6.106   6.212   4.220
 8651TIP3   OH225893   2.238   3.010   1.557
 8651TIP3    H125894   2.250   3.091   1.507
 8651TIP3    H225895   2.180   2.956   1.502
 8652TIP3   OH225896   7.959   1.987   6.392
 8652TIP3    H125897   7.924   1.928   6.459
 8652TIP3    H225898   7.961   2.073   6.434
 8653TIP3   OH225899   6.718   3.866   5.312
 8653TIP3    H125900   6.699   3.774   5.329
 8653TIP3    H225901   6.710   3.875   5.217
 8654TIP3   OH225902   7.106   2.412   0.095
 8654TIP3    H125903   7.075   2.446   0.179
 8654TIP3    H225904   7.134   2.489   0.046
 8655TIP3   OH225905   6.574   3.056   4.385
 8655TIP3    H125906   6.504   3.117   4.361
 8655TIP3    H225907   6.535   3.000   4.452
 8656TIP3   OH225908   4.971   0.967   0.291
 8656TIP3    H125909   4.966   1.060   0.312
 8656TIP3    H225910   4.926   0.923   0.363
 8657TIP3   OH225911   4.089   3.825   3.096
 8657TIP3    H125912   4.162   3.851   3.040
 8657TIP3    H225913   4.030   3.778   3.037
 8658TIP3   OH225914   7.485   2.645   4.557
 8658TIP3    H125915   7.405   2.620   4.511
 8658TIP3    H225916   7.554   2.592   4.516
 8659TIP3   OH225917   4.716   3.243   2.786
 8659TIP3    H125918   4.673   3.199   2.860
 8659TIP3    H225919   4.707   3.336   2.805
 8660TIP3   OH225920   8.096   2.944   5.672
 8660TIP3    H125921   8.056   2.951   5.585
 8660TIP3    H225922   8.036   2.988   5.731
 8661TIP3   OH225923   4.797   3.161   6.220
 8661TIP3    H125924   4.857   3.230   6.247
 8661TIP3    H225925   4.724   3.166   6.282
 8662TIP3   OH225926   7.652   1.668   3.026
 8662TIP3    H125927   7.612   1.591   3.066
 8662TIP3    H225928   7.725   1.689   3.084
 8663TIP3   OH225929   6.030   2.222   2.517
 8663TIP3    H125930   5.947   2.247   2.478
 8663TIP3    H225931   6.096   2.251   2.454
 8664TIP3   OH225932   4.078   2.736   5.934
 8664TIP3    H125933   4.034   2.703   5.856
 8664TIP3    H225934   4.016   2.721   6.005
 8665TIP3   OH225935   3.416   5.432   2.305
 8665TIP3    H125936   3.427   5.403   2.395
 8665TIP3    H225937   3.444   5.358   2.252
 8666TIP3   OH225938   4.796   3.446   5.950
 8666TIP3    H125939   4.793   3.455   5.855
 8666TIP3    H225940   4.841   3.525   5.980
 8667TIP3   OH225941   1.020   0.559   5.978
 8667TIP3    H125942   0.961   0.611   5.924
 8667TIP3    H225943   1.091   0.619   6.000
 8668TIP3   OH225944   7.512   3.475   1.544
 8668TIP3    H125945   7.491   3.397   1.493
 8668TIP3    H225946   7.446   3.540   1.518
 8669TIP3   OH225947   7.105   4.656   1.795
 8669TIP3    H125948   7.136   4.612   1.874
 8669TIP3    H225949   7.020   4.693   1.819
 8670TIP3   OH225950   5.734   3.643   1.497
 8670TIP3    H125951   5.826   3.630   1.520
 8670TIP3    H225952   5.721   3.737   1.503
 8671TIP3   OH225953   5.808   0.363   2.587
 8671TIP3    H125954   5.721   0.323   2.580
 8671TIP3    H225955   5.833   0.348   2.678
 8672TIP3   OH225956   3.959   2.603   0.616
 8672TIP3    H125957   4.035   2.619   0.672
 8672TIP3    H225958   3.916   2.527   0.656
 8673TIP3   OH225959   0.655   2.449   2.740
 8673TIP3    H125960   0.715   2.522   2.726
 8673TIP3    H225961   0.581   2.466   2.683
 8674TIP3   OH225962   0.437   6.661   5.494
 8674TIP3    H125963   0.531   6.649   5.480
 8674TIP3    H225964   0.429   6.682   5.588
 8675TIP3   OH225965   4.400   7.651   2.754
 8675TIP3    H125966   4.482   7.615   2.721
 8675TIP3    H225967   4.427   7.727   2.806
 8676TIP3   OH225968   3.272   2.219   6.156
 8676TIP3    H125969   3.194   2.176   6.192
 8676TIP3    H225970   3.271   2.306   6.196
 8677TIP3   OH225971   2.309   2.683   0.602
 8677TIP3    H125972   2.303   2.652   0.692
 8677TIP3    H225973   2.404   2.691   0.586
 8678TIP3   OH225974   1.902   7.294   5.838
 8678TIP3    H125975   1.969   7.299   5.906
 8678TIP3    H225976   1.861   7.209   5.850
 8679TIP3   OH225977   4.775   5.983   3.598
 8679TIP3    H125978   4.714   5.916   3.629
 8679TIP3    H225979   4.859   5.938   3.594
 8680TIP3   OH225980   6.558   0.830   1.056
 8680TIP3    H125981   6.492   0.898   1.047
 8680TIP3    H225982   6.531   0.762   0.995
 8681TIP3   OH225983   4.482   0.213   1.039
 8681TIP3    H125984   4.551   0.179   0.983
 8681TIP3    H225985   4.482   0.156   1.116
 8682TIP3   OH225986   6.434   5.298   1.948
 8682TIP3    H125987   6.405   5.254   2.028
 8682TIP3    H225988   6.465   5.384   1.978
 8683TIP3   OH225989   6.198   5.978   2.186
 8683TIP3    H125990   6.250   6.030   2.247
 8683TIP3    H225991   6.253   5.903   2.166
 8684TIP3   OH225992   7.053   1.691   2.047
 8684TIP3    H125993   7.139   1.729   2.065
 8684TIP3    H225994   6.994   1.736   2.107
 8685TIP3   OH225995   2.155   5.265   4.217
 8685TIP3    H125996   2.248   5.288   4.223
 8685TIP3    H225997   2.119   5.286   4.303
 8686TIP3   OH225998   5.603   5.510   0.799
 8686TIP3    H125999   5.614   5.487   0.891
 8686TIP3    H226000   5.682   5.478   0.756
 8687TIP3   OH226001   4.702   5.188   2.742
 8687TIP3    H126002   4.642   5.192   2.667
 8687TIP3    H226003   4.770   5.252   2.721
 8688TIP3   OH226004   7.328   0.257   4.348
 8688TIP3    H126005   7.366   0.255   4.436
 8688TIP3    H226006   7.401   0.235   4.290
 8689TIP3   OH226007   0.415   6.101   5.654
 8689TIP3    H126008   0.363   6.032   5.696
 8689TIP3    H226009   0.503   6.090   5.688
 8690TIP3   OH226010   4.900   0.102   1.175
 8690TIP3    H126011   4.940   0.041   1.114
 8690TIP3    H226012   4.911   0.062   1.261
 8691TIP3   OH226013   2.331   3.983   3.432
 8691TIP3    H126014   2.282   3.901   3.427
 8691TIP3    H226015   2.408   3.969   3.377
 8692TIP3   OH226016   6.846   6.847   6.027
 8692TIP3    H126017   6.837   6.934   6.067
 8692TIP3    H226018   6.875   6.864   5.938
 8693TIP3   OH226019   8.132   1.734   0.546
 8693TIP3    H126020   8.072   1.726   0.471
 8693TIP3    H226021   8.122   1.825   0.575
 8694TIP3   OH226022   5.221   1.978   1.081
 8694TIP3    H126023   5.284   2.051   1.074
 8694TIP3    H226024   5.136   2.021   1.092
 8695TIP3   OH226025   7.102   1.130   4.037
 8695TIP3    H126026   7.187   1.143   4.080
 8695TIP3    H226027   7.039   1.169   4.097
 8696TIP3   OH226028   4.014   6.099   1.358
 8696TIP3    H126029   4.105   6.127   1.362
 8696TIP3    H226030   3.984   6.102   1.449
 8697TIP3   OH226031   1.437   7.610   0.880
 8697TIP3    H126032   1.446   7.702   0.903
 8697TIP3    H226033   1.345   7.590   0.898
 8698TIP3   OH226034   2.116   0.487   5.676
 8698TIP3    H126035   2.190   0.428   5.689
 8698TIP3    H226036   2.140   0.566   5.725
 8699TIP3   OH226037   1.651   6.518   3.592
 8699TIP3    H126038   1.721   6.581   3.575
 8699TIP3    H226039   1.644   6.468   3.510
 8700TIP3   OH226040   6.641   5.400   6.325
 8700TIP3    H126041   6.637   5.462   6.252
 8700TIP3    H226042   6.566   5.423   6.380
 8701TIP3   OH226043   7.203   3.880   1.879
 8701TIP3    H126044   7.248   3.796   1.880
 8701TIP3    H226045   7.266   3.940   1.839
 8702TIP3   OH226046   0.684   1.429   3.747
 8702TIP3    H126047   0.694   1.520   3.774
 8702TIP3    H226048   0.611   1.430   3.685
 8703TIP3   OH226049   6.543   0.215   5.755
 8703TIP3    H126050   6.620   0.215   5.812
 8703TIP3    H226051   6.470   0.238   5.812
 8704TIP3   OH226052   5.070   5.370   0.579
 8704TIP3    H126053   5.123   5.290   0.583
 8704TIP3    H226054   5.134   5.441   0.573
 8705TIP3   OH226055   0.119   3.612   1.552
 8705TIP3    H126056   0.111   3.538   1.490
 8705TIP3    H226057   0.068   3.682   1.511
 8706TIP3   OH226058   1.777   5.002   0.613
 8706TIP3    H126059   1.686   5.034   0.613
 8706TIP3    H226060   1.814   5.037   0.694
 8707TIP3   OH226061   6.043   4.429   2.907
 8707TIP3    H126062   6.126   4.383   2.894
 8707TIP3    H226063   5.983   4.362   2.938
 8708TIP3   OH226064   0.821   1.357   2.686
 8708TIP3    H126065   0.874   1.285   2.652
 8708TIP3    H226066   0.756   1.315   2.741
 8709TIP3   OH226067   4.203   0.497   4.273
 8709TIP3    H126068   4.114   0.531   4.276
 8709TIP3    H226069   4.221   0.486   4.179
 8710TIP3   OH226070   2.481   2.302   1.845
 8710TIP3    H126071   2.450   2.385   1.882
 8710TIP3    H226072   2.411   2.240   1.861
 8711TIP3   OH226073   0.832   3.488   2.087
 8711TIP3    H126074   0.878   3.472   2.005
 8711TIP3    H226075   0.825   3.403   2.129
 8712TIP3   OH226076   7.376   3.641   1.852
 8712TIP3    H126077   7.458   3.622   1.898
 8712TIP3    H226078   7.397   3.627   1.759
 8713TIP3   OH226079   6.691   4.411   3.928
 8713TIP3    H126080   6.768   4.438   3.977
 8713TIP3    H226081   6.703   4.317   3.914
 8714TIP3   OH226082   0.844   3.204   6.374
 8714TIP3    H126083   0.756   3.197   6.411
 8714TIP3    H226084   0.866   3.115   6.346
 8715TIP3   OH226085   7.967   3.016   0.238
 8715TIP3    H126086   7.943   3.102   0.201
 8715TIP3    H226087   7.971   2.958   0.162
 8716TIP3   OH226088   3.287   0.343   4.755
 8716TIP3    H126089   3.382   0.339   4.747
 8716TIP3    H226090   3.258   0.255   4.730
 8717TIP3   OH226091   8.361   4.523   5.254
 8717TIP3    H126092   8.280   4.504   5.207
 8717TIP3    H226093   8.395   4.602   5.212
 8718TIP3   OH226094   5.588   5.342   2.275
 8718TIP3    H126095   5.533   5.401   2.225
 8718TIP3    H226096   5.549   5.256   2.264
 8719TIP3   OH226097   5.875   0.786   0.340
 8719TIP3    H126098   5.909   0.711   0.388
 8719TIP3    H226099   5.948   0.848   0.337
 8720TIP3   OH226100   4.409   4.294   1.829
 8720TIP3    H126101   4.493   4.289   1.783
 8720TIP3    H226102   4.357   4.223   1.791
 8721TIP3   OH226103   8.086   4.339   6.306
 8721TIP3    H126104   8.014   4.326   6.244
 8721TIP3    H226105   8.066   4.422   6.350
 8722TIP3   OH226106   2.010   4.695   3.543
 8722TIP3    H126107   2.045   4.712   3.631
 8722TIP3    H226108   2.054   4.615   3.515
 8723TIP3   OH226109   1.371   3.343   6.521
 8723TIP3    H126110   1.280   3.341   6.490
 8723TIP3    H226111   1.422   3.313   6.446
 8724TIP3   OH226112   8.405   0.087   3.617
 8724TIP3    H126113   8.327   0.039   3.646
 8724TIP3    H226114   8.375   0.142   3.544
 8725TIP3   OH226115   4.758   1.731   1.535
 8725TIP3    H126116   4.677   1.776   1.559
 8725TIP3    H226117   4.757   1.731   1.439
 8726TIP3   OH226118   2.211   1.182   5.533
 8726TIP3    H126119   2.305   1.170   5.515
 8726TIP3    H226120   2.175   1.093   5.531
 8727TIP3   OH226121   6.013   7.509   6.442
 8727TIP3    H126122   5.964   7.584   6.407
 8727TIP3    H226123   5.956   7.474   6.511
 8728TIP3   OH226124   4.465   2.721   1.744
 8728TIP3    H126125   4.399   2.664   1.705
 8728TIP3    H226126   4.433   2.810   1.726
 8729TIP3   OH226127   4.677   1.235   3.648
 8729TIP3    H126128   4.677   1.141   3.666
 8729TIP3    H226129   4.704   1.275   3.731
 8730TIP3   OH226130   5.614   5.820   3.005
 8730TIP3    H126131   5.563   5.875   2.945
 8730TIP3    H226132   5.584   5.844   3.092
 8731TIP3   OH226133   6.834   6.452   5.612
 8731TIP3    H126134   6.907   6.511   5.628
 8731TIP3    H226135   6.783   6.455   5.694
 8732TIP3   OH226136   8.079   5.477   0.696
 8732TIP3    H126137   8.118   5.446   0.615
 8732TIP3    H226138   8.079   5.400   0.753
 8733TIP3   OH226139   6.255   2.359   6.272
 8733TIP3    H126140   6.201   2.302   6.218
 8733TIP3    H226141   6.237   2.331   6.362
 8734TIP3   OH226142   7.947   4.004   3.508
 8734TIP3    H126143   8.039   3.977   3.513
 8734TIP3    H226144   7.949   4.086   3.460
 8735TIP3   OH226145   8.175   4.086   5.805
 8735TIP3    H126146   8.137   4.164   5.846
 8735TIP3    H226147   8.122   4.014   5.838
 8736TIP3   OH226148   2.477   6.808   4.176
 8736TIP3    H126149   2.559   6.770   4.207
 8736TIP3    H226150   2.434   6.737   4.129
 8737TIP3   OH226151   3.181   5.529   4.998
 8737TIP3    H126152   3.177   5.625   5.008
 8737TIP3    H226153   3.113   5.497   5.057
 8738TIP3   OH226154   6.960   3.698   2.454
 8738TIP3    H126155   6.995   3.783   2.426
 8738TIP3    H226156   6.900   3.720   2.526
 8739TIP3   OH226157   4.754   3.051   1.250
 8739TIP3    H126158   4.837   3.074   1.292
 8739TIP3    H226159   4.725   2.973   1.297
 8740TIP3   OH226160   7.044   3.940   4.823
 8740TIP3    H126161   7.027   3.865   4.880
 8740TIP3    H226162   7.087   3.903   4.746
 8741TIP3   OH226163   5.888   4.317   0.691
 8741TIP3    H126164   5.966   4.372   0.700
 8741TIP3    H226165   5.830   4.368   0.635
 8742TIP3   OH226166   4.312   5.786   1.173
 8742TIP3    H126167   4.377   5.835   1.223
 8742TIP3    H226168   4.282   5.718   1.234
 8743TIP3   OH226169   7.361   0.747   2.799
 8743TIP3    H126170   7.439   0.795   2.828
 8743TIP3    H226171   7.352   0.677   2.863
 8744TIP3   OH226172   2.629   0.336   3.821
 8744TIP3    H126173   2.542   0.360   3.853
 8744TIP3    H226174   2.652   0.405   3.758
 8745TIP3   OH226175   1.239   5.542   5.979
 8745TIP3    H126176   1.144   5.549   5.987
 8745TIP3    H226177   1.270   5.633   5.986
 8746TIP3   OH226178   7.932   0.674   0.071
 8746TIP3    H126179   7.837   0.682   0.068
 8746TIP3    H226180   7.964   0.759   0.042
 8747TIP3   OH226181   2.779   5.506   4.086
 8747TIP3    H126182   2.726   5.450   4.029
 8747TIP3    H226183   2.834   5.556   4.027
 8748TIP3   OH226184   7.497   5.560   2.596
 8748TIP3    H126185   7.431   5.546   2.528
 8748TIP3    H226186   7.447   5.581   2.675
 8749TIP3   OH226187   6.495   6.805   2.162
 8749TIP3    H126188   6.420   6.847   2.120
 8749TIP3    H226189   6.555   6.786   2.089
 8750TIP3   OH226190   0.731   3.696   6.506
 8750TIP3    H126191   0.706   3.697   6.598
 8750TIP3    H226192   0.827   3.690   6.507
 8751TIP3   OH226193   4.454   1.127   4.005
 8751TIP3    H126194   4.368   1.155   3.972
 8751TIP3    H226195   4.506   1.115   3.926
 8752TIP3   OH226196   7.027   4.209   6.160
 8752TIP3    H126197   7.024   4.293   6.207
 8752TIP3    H226198   6.949   4.162   6.189
 8753TIP3   OH226199   8.129   6.759   6.733
 8753TIP3    H126200   8.069   6.724   6.799
 8753TIP3    H226201   8.167   6.682   6.692
 8754TIP3   OH226202   0.051   5.330   4.997
 8754TIP3    H126203   0.112   5.402   5.015
 8754TIP3    H226204  -0.035   5.372   4.999
 8755TIP3   OH226205   5.281   7.837   1.426
 8755TIP3    H126206   5.198   7.801   1.395
 8755TIP3    H226207   5.329   7.762   1.459
 8756TIP3   OH226208   2.164   3.885   2.383
 8756TIP3    H126209   2.074   3.894   2.353
 8756TIP3    H226210   2.186   3.971   2.419
 8757TIP3   OH226211   5.676   6.848   2.154
 8757TIP3    H126212   5.733   6.833   2.079
 8757TIP3    H226213   5.648   6.760   2.181
 8758TIP3   OH226214   7.783   1.018   5.172
 8758TIP3    H126215   7.701   0.968   5.179
 8758TIP3    H226216   7.850   0.952   5.157
 8759TIP3   OH226217   8.001   3.838   1.714
 8759TIP3    H126218   7.938   3.766   1.721
 8759TIP3    H226219   8.033   3.832   1.624
 8760TIP3   OH226220   7.014   6.860   5.270
 8760TIP3    H126221   6.947   6.878   5.337
 8760TIP3    H226222   7.092   6.835   5.321
 8761TIP3   OH226223   4.096   2.114   4.095
 8761TIP3    H126224   4.049   2.137   4.015
 8761TIP3    H226225   4.143   2.033   4.073
 8762TIP3   OH226226   7.645   5.164   2.704
 8762TIP3    H126227   7.670   5.215   2.627
 8762TIP3    H226228   7.581   5.101   2.672
 8763TIP3   OH226229   5.394   2.600   3.224
 8763TIP3    H126230   5.449   2.664   3.270
 8763TIP3    H226231   5.350   2.551   3.294
 8764TIP3   OH226232   0.699   4.010   6.535
 8764TIP3    H126233   0.776   3.987   6.482
 8764TIP3    H226234   0.691   3.939   6.598
 8765TIP3   OH226235   0.009   4.066   0.103
 8765TIP3    H126236   0.054   4.046   0.020
 8765TIP3    H226237   0.042   4.001   0.165
 8766TIP3   OH226238   7.918   2.853   6.367
 8766TIP3    H126239   8.002   2.810   6.350
 8766TIP3    H226240   7.913   2.858   6.463
 8767TIP3   OH226241   0.627   1.350   2.317
 8767TIP3    H126242   0.607   1.310   2.402
 8767TIP3    H226243   0.717   1.323   2.299
 8768TIP3   OH226244   7.773   6.908   4.315
 8768TIP3    H126245   7.695   6.894   4.261
 8768TIP3    H226246   7.753   6.866   4.398
 8769TIP3   OH226247   6.630   4.964   0.920
 8769TIP3    H126248   6.653   5.009   0.839
 8769TIP3    H226249   6.568   5.022   0.963
 8770TIP3   OH226250   5.191   1.287   5.276
 8770TIP3    H126251   5.221   1.224   5.210
 8770TIP3    H226252   5.095   1.280   5.273
 8771TIP3   OH226253   7.459   5.950   4.889
 8771TIP3    H126254   7.427   5.903   4.966
 8771TIP3    H226255   7.552   5.963   4.906
 8772TIP3   OH226256   5.897   6.798   4.820
 8772TIP3    H126257   5.818   6.851   4.835
 8772TIP3    H226258   5.965   6.863   4.800
 8773TIP3   OH226259   8.288   6.823   2.338
 8773TIP3    H126260   8.253   6.910   2.358
 8773TIP3    H226261   8.323   6.832   2.249
 8774TIP3   OH226262   1.224   7.501   4.187
 8774TIP3    H126263   1.299   7.442   4.183
 8774TIP3    H226264   1.226   7.549   4.104
 8775TIP3   OH226265   8.325   1.217   6.337
 8775TIP3    H126266   8.288   1.147   6.282
 8775TIP3    H226267   8.281   1.206   6.421
 8776TIP3   OH226268   7.621   3.364   3.539
 8776TIP3    H126269   7.547   3.376   3.481
 8776TIP3    H226270   7.662   3.451   3.545
 8777TIP3   OH226271   1.979   1.695   3.078
 8777TIP3    H126272   1.949   1.662   2.993
 8777TIP3    H226273   1.942   1.783   3.084
 8778TIP3   OH226274   2.060   4.798   5.690
 8778TIP3    H126275   2.035   4.885   5.723
 8778TIP3    H226276   2.124   4.766   5.754
 8779TIP3   OH226277   1.190   0.988   6.229
 8779TIP3    H126278   1.097   0.970   6.245
 8779TIP3    H226279   1.237   0.929   6.288
 8780TIP3   OH226280   2.895   6.281   0.580
 8780TIP3    H126281   2.804   6.260   0.602
 8780TIP3    H226282   2.931   6.316   0.662
 8781TIP3   OH226283   4.659   1.323   1.603
 8781TIP3    H126284   4.680   1.268   1.527
 8781TIP3    H226285   4.666   1.263   1.678
 8782TIP3   OH226286   1.480   0.208   1.256
 8782TIP3    H126287   1.511   0.190   1.345
 8782TIP3    H226288   1.552   0.254   1.214
 8783TIP3   OH226289   4.284   6.094   4.920
 8783TIP3    H126290   4.206   6.087   4.974
 8783TIP3    H226291   4.305   6.188   4.921
 8784TIP3   OH226292   2.893   1.408   3.948
 8784TIP3    H126293   2.988   1.408   3.956
 8784TIP3    H226294   2.876   1.399   3.855
 8785TIP3   OH226295   0.715   1.284   6.388
 8785TIP3    H126296   0.704   1.258   6.297
 8785TIP3    H226297   0.626   1.289   6.423
 8786TIP3   OH226298   0.855   2.166   3.928
 8786TIP3    H126299   0.885   2.249   3.965
 8786TIP3    H226300   0.818   2.119   4.002
 8787TIP3   OH226301   2.239   5.425   5.362
 8787TIP3    H126302   2.245   5.504   5.309
 8787TIP3    H226303   2.259   5.454   5.451
 8788TIP3   OH226304   5.749   1.807   4.624
 8788TIP3    H126305   5.728   1.733   4.567
 8788TIP3    H226306   5.728   1.775   4.712
 8789TIP3   OH226307   2.942   7.568   1.518
 8789TIP3    H126308   2.992   7.505   1.570
 8789TIP3    H226309   2.855   7.569   1.559
 8790TIP3   OH226310   3.197   1.015   3.313
 8790TIP3    H126311   3.120   0.997   3.259
 8790TIP3    H226312   3.221   1.105   3.291
 8791TIP3   OH226313   7.286   2.437   5.484
 8791TIP3    H126314   7.263   2.348   5.455
 8791TIP3    H226315   7.342   2.471   5.414
 8792TIP3   OH226316   3.654   4.929   1.745
 8792TIP3    H126317   3.651   5.009   1.693
 8792TIP3    H226318   3.590   4.871   1.702
 8793TIP3   OH226319   4.005   7.554   2.618
 8793TIP3    H126320   3.975   7.640   2.591
 8793TIP3    H226321   3.955   7.535   2.698
 8794TIP3   OH226322   6.987   0.932   6.653
 8794TIP3    H126323   6.937   0.977   6.585
 8794TIP3    H226324   7.053   0.882   6.606
 8795TIP3   OH226325   1.545   0.832   5.307
 8795TIP3    H126326   1.608   0.800   5.243
 8795TIP3    H226327   1.541   0.926   5.292
 8796TIP3   OH226328   4.711   1.111   4.978
 8796TIP3    H126329   4.632   1.058   4.988
 8796TIP3    H226330   4.728   1.145   5.066
 8797TIP3   OH226331   2.381   3.970   2.748
 8797TIP3    H126332   2.441   4.031   2.791
 8797TIP3    H226333   2.427   3.886   2.749
 8798TIP3   OH226334   4.688   0.005   5.581
 8798TIP3    H126335   4.615   0.018   5.520
 8798TIP3    H226336   4.647  -0.032   5.659
 8799TIP3   OH226337   0.705   7.205   3.853
 8799TIP3    H126338   0.697   7.175   3.944
 8799TIP3    H226339   0.621   7.247   3.834
 8800TIP3   OH226340   0.814   6.541   3.209
 8800TIP3    H126341   0.859   6.559   3.126
 8800TIP3    H226342   0.721   6.550   3.188
 8801TIP3   OH226343   4.819   6.032   3.269
 8801TIP3    H126344   4.800   5.959   3.328
 8801TIP3    H226345   4.843   5.991   3.186
 8802TIP3   OH226346   6.527   2.383   0.343
 8802TIP3    H126347   6.596   2.337   0.294
 8802TIP3    H226348   6.506   2.324   0.416
 8803TIP3   OH226349   2.492   3.119   2.666
 8803TIP3    H126350   2.421   3.152   2.610
 8803TIP3    H226351   2.504   3.187   2.732
 8804TIP3   OH226352   2.848   1.938   3.246
 8804TIP3    H126353   2.810   1.890   3.172
 8804TIP3    H226354   2.875   1.870   3.308
 8805TIP3   OH226355   6.379   0.203   0.770
 8805TIP3    H126356   6.428   0.284   0.784
 8805TIP3    H226357   6.375   0.194   0.675
 8806TIP3   OH226358   0.786   4.665   6.208
 8806TIP3    H126359   0.851   4.610   6.252
 8806TIP3    H226360   0.722   4.603   6.174
 8807TIP3   OH226361   1.748   0.468   2.085
 8807TIP3    H126362   1.812   0.470   2.014
 8807TIP3    H226363   1.739   0.375   2.106
 8808TIP3   OH226364   2.123   0.228   5.108
 8808TIP3    H126365   2.149   0.160   5.046
 8808TIP3    H226366   2.202   0.279   5.122
 8809TIP3   OH226367   0.242   1.925   1.436
 8809TIP3    H126368   0.329   1.929   1.397
 8809TIP3    H226369   0.182   1.927   1.361
 8810TIP3   OH226370   7.676   3.871   5.784
 8810TIP3    H126371   7.652   3.954   5.825
 8810TIP3    H226372   7.655   3.804   5.850
 8811TIP3   OH226373   6.301   6.262   4.785
 8811TIP3    H126374   6.219   6.287   4.742
 8811TIP3    H226375   6.276   6.249   4.877
 8812TIP3   OH226376   4.452   7.127   0.412
 8812TIP3    H126377   4.382   7.067   0.438
 8812TIP3    H226378   4.523   7.070   0.383
 8813TIP3   OH226379   3.451   6.756   3.760
 8813TIP3    H126380   3.494   6.841   3.772
 8813TIP3    H226381   3.371   6.776   3.712
 8814TIP3   OH226382   8.346   5.238   2.175
 8814TIP3    H126383   8.328   5.328   2.149
 8814TIP3    H226384   8.265   5.207   2.216
 8815TIP3   OH226385   0.870   7.868   3.106
 8815TIP3    H126386   0.820   7.916   3.040
 8815TIP3    H226387   0.835   7.779   3.102
 8816TIP3   OH226388   1.626   4.286  -0.028
 8816TIP3    H126389   1.573   4.218   0.014
 8816TIP3    H226390   1.604   4.280  -0.121
 8817TIP3   OH226391   4.619   4.927   6.716
 8817TIP3    H126392   4.620   4.932   6.811
 8817TIP3    H226393   4.536   4.884   6.695
 8818TIP3   OH226394   1.286   7.031   4.383
 8818TIP3    H126395   1.195   7.001   4.387
 8818TIP3    H226396   1.338   6.952   4.400
 8819TIP3   OH226397   3.163   6.803   0.773
 8819TIP3    H126398   3.160   6.714   0.736
 8819TIP3    H226399   3.073   6.834   0.765
 8820TIP3   OH226400   5.739   4.640   4.549
 8820TIP3    H126401   5.809   4.674   4.494
 8820TIP3    H226402   5.662   4.638   4.492
 8821TIP3   OH226403   3.537   4.130   6.042
 8821TIP3    H126404   3.513   4.040   6.064
 8821TIP3    H226405   3.632   4.128   6.034
 8822TIP3   OH226406   6.499   2.909   1.663
 8822TIP3    H126407   6.545   2.856   1.727
 8822TIP3    H226408   6.474   2.848   1.594
 8823TIP3   OH226409   8.042   0.462   1.981
 8823TIP3    H126410   8.087   0.493   1.903
 8823TIP3    H226411   8.032   0.540   2.036
 8824TIP3   OH226412   0.493   2.661   5.226
 8824TIP3    H126413   0.500   2.738   5.283
 8824TIP3    H226414   0.401   2.661   5.198
 8825TIP3   OH226415   1.018   2.895   5.993
 8825TIP3    H126416   0.983   2.876   5.906
 8825TIP3    H226417   1.059   2.981   5.984
 8826TIP3   OH226418   3.442   6.385   3.780
 8826TIP3    H126419   3.349   6.407   3.784
 8826TIP3    H226420   3.481   6.457   3.731
 8827TIP3   OH226421   5.068   2.472   5.575
 8827TIP3    H126422   5.086   2.381   5.554
 8827TIP3    H226423   5.086   2.519   5.493
 8828TIP3   OH226424   4.563   5.450   2.930
 8828TIP3    H126425   4.564   5.460   2.834
 8828TIP3    H226426   4.539   5.358   2.944
 8829TIP3   OH226427   0.485   0.085   5.058
 8829TIP3    H126428   0.535   0.065   4.979
 8829TIP3    H226429   0.422   0.013   5.065
 8830TIP3   OH226430   7.159   1.450   2.958
 8830TIP3    H126431   7.169   1.454   3.054
 8830TIP3    H226432   7.105   1.526   2.937
 8831TIP3   OH226433   8.261   4.511   4.173
 8831TIP3    H126434   8.299   4.435   4.218
 8831TIP3    H226435   8.167   4.504   4.188
 8832TIP3   OH226436   2.410   5.725   2.508
 8832TIP3    H126437   2.345   5.779   2.552
 8832TIP3    H226438   2.486   5.727   2.566
 8833TIP3   OH226439   7.898   2.835   4.987
 8833TIP3    H126440   7.964   2.772   5.015
 8833TIP3    H226441   7.899   2.830   4.891
 8834TIP3   OH226442   3.332   4.750   6.088
 8834TIP3    H126443   3.290   4.675   6.045
 8834TIP3    H226444   3.301   4.826   6.040
 8835TIP3   OH226445   3.382   5.237   0.829
 8835TIP3    H126446   3.392   5.289   0.749
 8835TIP3    H226447   3.468   5.196   0.842
 8836TIP3   OH226448   6.371   3.157   0.065
 8836TIP3    H126449   6.404   3.216   0.132
 8836TIP3    H226450   6.411   3.072   0.086
 8837TIP3   OH226451   8.285   2.861   2.589
 8837TIP3    H126452   8.273   2.910   2.508
 8837TIP3    H226453   8.250   2.918   2.658
 8838TIP3   OH226454   4.864   0.434   6.077
 8838TIP3    H126455   4.854   0.490   6.000
 8838TIP3    H226456   4.901   0.491   6.144
 8839TIP3   OH226457   5.179   2.162   5.843
 8839TIP3    H126458   5.233   2.090   5.877
 8839TIP3    H226459   5.107   2.169   5.906
 8840TIP3   OH226460   2.431   6.107   0.395
 8840TIP3    H126461   2.472   6.079   0.313
 8840TIP3    H226462   2.466   6.047   0.461
 8841TIP3   OH226463   3.185   7.570   0.469
 8841TIP3    H126464   3.159   7.629   0.539
 8841TIP3    H226465   3.107   7.561   0.415
 8842TIP3   OH226466   1.667   6.428   3.347
 8842TIP3    H126467   1.586   6.454   3.304
 8842TIP3    H226468   1.734   6.482   3.307
 8843TIP3   OH226469   0.632   4.485   6.516
 8843TIP3    H126470   0.628   4.581   6.515
 8843TIP3    H226471   0.563   4.459   6.577
 8844TIP3   OH226472   1.258   1.816   5.035
 8844TIP3    H126473   1.308   1.759   5.093
 8844TIP3    H226474   1.202   1.866   5.093
 8845TIP3   OH226475   4.501   7.705   0.543
 8845TIP3    H126476   4.472   7.788   0.582
 8845TIP3    H226477   4.596   7.707   0.552
 8846TIP3   OH226478   1.122   4.837   1.314
 8846TIP3    H126479   1.211   4.825   1.281
 8846TIP3    H226480   1.080   4.753   1.301
 8847TIP3   OH226481   4.760   1.755   5.140
 8847TIP3    H126482   4.724   1.823   5.197
 8847TIP3    H226483   4.776   1.800   5.057
 8848TIP3   OH226484   4.338   4.462   3.660
 8848TIP3    H126485   4.280   4.492   3.591
 8848TIP3    H226486   4.375   4.380   3.627
 8849TIP3   OH226487   8.181   7.258   2.193
 8849TIP3    H126488   8.240   7.189   2.162
 8849TIP3    H226489   8.111   7.260   2.127
 8850TIP3   OH226490   1.393   4.190   6.706
 8850TIP3    H126491   1.320   4.145   6.664
 8850TIP3    H226492   1.467   4.175   6.647
 8851TIP3   OH226493   4.067   1.719   5.987
 8851TIP3    H126494   4.140   1.779   6.005
 8851TIP3    H226495   4.083   1.644   6.044
 8852TIP3   OH226496   4.177   2.780   1.373
 8852TIP3    H126497   4.088   2.745   1.362
 8852TIP3    H226498   4.209   2.740   1.454
 8853TIP3   OH226499   3.235   5.457   0.215
 8853TIP3    H126500   3.258   5.393   0.147
 8853TIP3    H226501   3.140   5.461   0.212
 8854TIP3   OH226502   7.616   5.154   0.790
 8854TIP3    H126503   7.659   5.212   0.726
 8854TIP3    H226504   7.523   5.156   0.765
 8855TIP3   OH226505   2.706   4.032   6.018
 8855TIP3    H126506   2.652   4.097   6.061
 8855TIP3    H226507   2.673   4.029   5.928
 8856TIP3   OH226508   7.369   6.693   1.023
 8856TIP3    H126509   7.401   6.783   1.031
 8856TIP3    H226510   7.324   6.691   0.938
 8857TIP3   OH226511   4.219   7.174   6.473
 8857TIP3    H126512   4.307   7.171   6.510
 8857TIP3    H226513   4.201   7.268   6.461
 8858TIP3   OH226514   5.628   5.793   2.291
 8858TIP3    H126515   5.686   5.739   2.236
 8858TIP3    H226516   5.655   5.883   2.271
 8859TIP3   OH226517   8.157   0.637   1.816
 8859TIP3    H126518   8.167   0.727   1.786
 8859TIP3    H226519   8.246   0.603   1.821
 8860TIP3   OH226520   5.006   5.746   0.727
 8860TIP3    H126521   4.980   5.800   0.652
 8860TIP3    H226522   5.101   5.758   0.733
 8861TIP3   OH226523   3.777   4.926   3.715
 8861TIP3    H126524   3.843   4.874   3.760
 8861TIP3    H226525   3.792   5.016   3.745
 8862TIP3   OH226526   4.442   4.045   2.158
 8862TIP3    H126527   4.504   3.982   2.123
 8862TIP3    H226528   4.357   4.002   2.153
 8863TIP3   OH226529   3.134   6.120   5.964
 8863TIP3    H126530   3.197   6.171   5.914
 8863TIP3    H226531   3.081   6.075   5.898
 8864TIP3   OH226532   0.884   7.584   5.305
 8864TIP3    H126533   0.851   7.515   5.362
 8864TIP3    H226534   0.821   7.655   5.314
 8865TIP3   OH226535   0.633   7.247   4.563
 8865TIP3    H126536   0.702   7.244   4.498
 8865TIP3    H226537   0.584   7.327   4.544
 8866TIP3   OH226538   1.282   1.857   5.544
 8866TIP3    H126539   1.337   1.799   5.491
 8866TIP3    H226540   1.270   1.935   5.489
 8867TIP3   OH226541   2.990   2.223   3.818
 8867TIP3    H126542   3.042   2.301   3.798
 8867TIP3    H226543   2.915   2.228   3.759
 8868TIP3   OH226544   7.339   4.006   5.942
 8868TIP3    H126545   7.285   3.936   5.980
 8868TIP3    H226546   7.336   3.989   5.847
 8869TIP3   OH226547   0.938   4.150   2.988
 8869TIP3    H126548   0.995   4.097   3.043
 8869TIP3    H226549   0.856   4.155   3.036
 8870TIP3   OH226550   7.513   0.947   5.204
 8870TIP3    H126551   7.484   0.858   5.224
 8870TIP3    H226552   7.440   1.002   5.231
 8871TIP3   OH226553   6.073   1.355   0.342
 8871TIP3    H126554   6.164   1.369   0.313
 8871TIP3    H226555   6.065   1.409   0.421
 8872TIP3   OH226556   2.976   5.490   6.410
 8872TIP3    H126557   3.025   5.483   6.492
 8872TIP3    H226558   2.972   5.400   6.377
 8873TIP3   OH226559   2.437   1.768   2.491
 8873TIP3    H126560   2.471   1.850   2.455
 8873TIP3    H226561   2.481   1.758   2.575
 8874TIP3   OH226562   6.548   4.042   0.395
 8874TIP3    H126563   6.631   3.996   0.380
 8874TIP3    H226564   6.573   4.125   0.434
 8875TIP3   OH226565   8.463   7.579   2.673
 8875TIP3    H126566   8.463   7.620   2.587
 8875TIP3    H226567   8.435   7.490   2.657
 8876TIP3   OH226568   7.582   2.292   2.762
 8876TIP3    H126569   7.644   2.220   2.750
 8876TIP3    H226570   7.551   2.283   2.851
 8877TIP3   OH226571   7.833   7.550   4.135
 8877TIP3    H126572   7.768   7.486   4.163
 8877TIP3    H226573   7.865   7.517   4.052
 8878TIP3   OH226574   0.548   3.846   3.391
 8878TIP3    H126575   0.510   3.784   3.330
 8878TIP3    H226576   0.629   3.805   3.420
 8879TIP3   OH226577   6.890   5.009   3.341
 8879TIP3    H126578   6.816   5.044   3.391
 8879TIP3    H226579   6.891   4.916   3.363
 8880TIP3   OH226580   3.538   5.980   4.720
 8880TIP3    H126581   3.597   5.907   4.741
 8880TIP3    H226582   3.566   6.051   4.777
 8881TIP3   OH226583   5.029   0.612   0.190
 8881TIP3    H126584   5.014   0.629   0.283
 8881TIP3    H226585   4.942   0.599   0.153
 8882TIP3   OH226586   8.141   3.290   3.858
 8882TIP3    H126587   8.183   3.284   3.773
 8882TIP3    H226588   8.160   3.207   3.901
 8883TIP3   OH226589   4.954   3.040   3.202
 8883TIP3    H126590   4.914   3.002   3.280
 8883TIP3    H226591   5.047   3.045   3.223
 8884TIP3   OH226592   2.648   3.733   5.177
 8884TIP3    H126593   2.599   3.808   5.210
 8884TIP3    H226594   2.730   3.734   5.228
 8885TIP3   OH226595   5.350   4.341   5.042
 8885TIP3    H126596   5.337   4.251   5.015
 8885TIP3    H226597   5.416   4.376   4.982
 8886TIP3   OH226598   7.952   2.594   3.334
 8886TIP3    H126599   7.955   2.565   3.242
 8886TIP3    H226600   7.864   2.629   3.345
 8887TIP3   OH226601   4.118   7.792   0.309
 8887TIP3    H126602   4.212   7.808   0.315
 8887TIP3    H226603   4.079   7.880   0.310
 8888TIP3   OH226604   4.219   7.655   1.134
 8888TIP3    H126605   4.283   7.586   1.151
 8888TIP3    H226606   4.232   7.677   1.042
 8889TIP3   OH226607   7.287   3.468   2.350
 8889TIP3    H126608   7.236   3.415   2.288
 8889TIP3    H226609   7.378   3.445   2.332
 8890TIP3   OH226610   6.761   6.370   0.433
 8890TIP3    H126611   6.677   6.408   0.459
 8890TIP3    H226612   6.742   6.326   0.350
 8891TIP3   OH226613   1.628   0.161   3.403
 8891TIP3    H126614   1.606   0.086   3.349
 8891TIP3    H226615   1.724   0.159   3.410
 8892TIP3   OH226616   6.314   3.036   6.473
 8892TIP3    H126617   6.397   2.997   6.501
 8892TIP3    H226618   6.284   3.086   6.548
 8893TIP3   OH226619   4.414   1.749   3.447
 8893TIP3    H126620   4.447   1.677   3.501
 8893TIP3    H226621   4.328   1.769   3.485
 8894TIP3   OH226622   6.249   5.404   3.091
 8894TIP3    H126623   6.333   5.358   3.088
 8894TIP3    H226624   6.249   5.459   3.013
 8895TIP3   OH226625   6.037   1.049   0.408
 8895TIP3    H126626   5.966   1.049   0.472
 8895TIP3    H226627   6.079   1.134   0.420
 8896TIP3   OH226628   5.604   7.373   6.147
 8896TIP3    H126629   5.529   7.401   6.095
 8896TIP3    H226630   5.573   7.294   6.193
 8897TIP3   OH226631   7.194   7.310   1.884
 8897TIP3    H126632   7.179   7.220   1.856
 8897TIP3    H226633   7.238   7.302   1.969
 8898TIP3   OH226634   0.736   7.548   2.092
 8898TIP3    H126635   0.646   7.534   2.065
 8898TIP3    H226636   0.768   7.460   2.115
 8899TIP3   OH226637   0.390   4.441   4.086
 8899TIP3    H126638   0.435   4.383   4.024
 8899TIP3    H226639   0.419   4.529   4.061
 8900TIP3   OH226640   5.083   7.594   4.864
 8900TIP3    H126641   5.007   7.647   4.840
 8900TIP3    H226642   5.138   7.593   4.785
 8901TIP3   OH226643   5.820   3.520   6.388
 8901TIP3    H126644   5.777   3.436   6.407
 8901TIP3    H226645   5.800   3.536   6.295
 8902TIP3   OH226646   5.756   2.128   2.648
 8902TIP3    H126647   5.836   2.137   2.700
 8902TIP3    H226648   5.771   2.185   2.572
 8903TIP3   OH226649   0.457   4.913   0.693
 8903TIP3    H126650   0.407   4.984   0.652
 8903TIP3    H226651   0.507   4.874   0.622
 8904TIP3   OH226652   3.571   1.395   3.083
 8904TIP3    H126653   3.491   1.391   3.030
 8904TIP3    H226654   3.608   1.307   3.078
 8905TIP3   OH226655   5.894   7.487   3.441
 8905TIP3    H126656   5.810   7.505   3.483
 8905TIP3    H226657   5.901   7.392   3.439
 8906TIP3   OH226658   6.318   5.269   6.356
 8906TIP3    H126659   6.353   5.336   6.297
 8906TIP3    H226660   6.266   5.318   6.420
 8907TIP3   OH226661   2.396   0.591   3.712
 8907TIP3    H126662   2.488   0.619   3.712
 8907TIP3    H226663   2.390   0.528   3.641
 8908TIP3   OH226664   4.752   7.188   5.906
 8908TIP3    H126665   4.686   7.184   5.974
 8908TIP3    H226666   4.760   7.281   5.885
 8909TIP3   OH226667   0.986   3.878   2.407
 8909TIP3    H126668   1.055   3.901   2.345
 8909TIP3    H226669   0.953   3.793   2.376
 8910TIP3   OH226670   3.512   0.599   6.301
 8910TIP3    H126671   3.427   0.592   6.345
 8910TIP3    H226672   3.496   0.659   6.228
 8911TIP3   OH226673   4.425   3.888   4.997
 8911TIP3    H126674   4.334   3.891   4.967
 8911TIP3    H226675   4.419   3.905   5.091
 8912TIP3   OH226676   2.717   6.750   0.435
 8912TIP3    H126677   2.671   6.731   0.353
 8912TIP3    H226678   2.804   6.710   0.424
 8913TIP3   OH226679   5.215   1.412   1.839
 8913TIP3    H126680   5.232   1.502   1.866
 8913TIP3    H226681   5.138   1.418   1.781
 8914TIP3   OH226682   1.810   1.396   5.991
 8914TIP3    H126683   1.774   1.416   5.905
 8914TIP3    H226684   1.759   1.450   6.052
 8915TIP3   OH226685   7.469   2.514   0.224
 8915TIP3    H126686   7.433   2.488   0.309
 8915TIP3    H226687   7.451   2.440   0.166
 8916TIP3   OH226688   1.300   1.913   3.693
 8916TIP3    H126689   1.389   1.947   3.686
 8916TIP3    H226690   1.248   1.989   3.721
 8917TIP3   OH226691   3.881   2.870   4.099
 8917TIP3    H126692   3.792   2.903   4.088
 8917TIP3    H226693   3.933   2.918   4.035
 8918TIP3   OH226694   5.577   7.520   2.405
 8918TIP3    H126695   5.578   7.566   2.321
 8918TIP3    H226696   5.577   7.590   2.471
 8919TIP3   OH226697   7.446   2.103   6.475
 8919TIP3    H126698   7.526   2.151   6.456
 8919TIP3    H226699   7.470   2.011   6.463
 8920TIP3   OH226700   7.505   2.141   5.933
 8920TIP3    H126701   7.558   2.166   5.857
 8920TIP3    H226702   7.426   2.194   5.927
 8921TIP3   OH226703   5.184   4.474   2.252
 8921TIP3    H126704   5.121   4.545   2.263
 8921TIP3    H226705   5.135   4.405   2.207
 8922TIP3   OH226706   6.349   4.830   6.087
 8922TIP3    H126707   6.260   4.820   6.051
 8922TIP3    H226708   6.403   4.775   6.031
 8923TIP3   OH226709   7.015   5.897   3.086
 8923TIP3    H126710   7.041   5.841   3.013
 8923TIP3    H226711   6.921   5.883   3.095
 8924TIP3   OH226712   5.125   2.972   1.739
 8924TIP3    H126713   5.144   2.879   1.725
 8924TIP3    H226714   5.063   2.973   1.811
 8925TIP3   OH226715   7.988   0.166   3.220
 8925TIP3    H126716   7.969   0.152   3.127
 8925TIP3    H226717   7.925   0.231   3.249
 8926TIP3   OH226718   1.558   6.552   2.283
 8926TIP3    H126719   1.601   6.518   2.205
 8926TIP3    H226720   1.629   6.581   2.339
 8927TIP3   OH226721   5.133   5.915   1.021
 8927TIP3    H126722   5.096   5.876   1.100
 8927TIP3    H226723   5.200   5.975   1.053
 8928TIP3   OH226724   6.830   2.837   2.758
 8928TIP3    H126725   6.891   2.778   2.803
 8928TIP3    H226726   6.827   2.915   2.813
 8929TIP3   OH226727   2.893   2.678   5.593
 8929TIP3    H126728   2.815   2.698   5.540
 8929TIP3    H226729   2.952   2.634   5.532
 8930TIP3   OH226730   0.956   5.167   5.959
 8930TIP3    H126731   0.986   5.152   5.869
 8930TIP3    H226732   0.904   5.090   5.980
 8931TIP3   OH226733   3.843   6.530   0.977
 8931TIP3    H126734   3.937   6.547   0.968
 8931TIP3    H226735   3.838   6.443   1.017
 8932TIP3   OH226736   5.986   6.977   5.954
 8932TIP3    H126737   6.016   6.943   6.038
 8932TIP3    H226738   6.013   6.911   5.890
 8933TIP3   OH226739   7.835   4.377   0.257
 8933TIP3    H126740   7.785   4.455   0.235
 8933TIP3    H226741   7.873   4.395   0.343
 8934TIP3   OH226742   2.898   3.723   5.316
 8934TIP3    H126743   2.946   3.649   5.354
 8934TIP3    H226744   2.956   3.757   5.248
 8935TIP3   OH226745   0.859   2.726   1.794
 8935TIP3    H126746   0.795   2.666   1.756
 8935TIP3    H226747   0.815   2.763   1.870
 8936TIP3   OH226748   0.810   0.738   6.553
 8936TIP3    H126749   0.862   0.770   6.479
 8936TIP3    H226750   0.870   0.683   6.603
 8937TIP3   OH226751   6.757   1.488   3.020
 8937TIP3    H126752   6.793   1.456   3.102
 8937TIP3    H226753   6.731   1.578   3.039
 8938TIP3   OH226754   3.923   0.532   5.690
 8938TIP3    H126755   3.903   0.619   5.654
 8938TIP3    H226756   4.017   0.522   5.675
 8939TIP3   OH226757   1.019   2.597   3.754
 8939TIP3    H126758   1.111   2.623   3.745
 8939TIP3    H226759   0.970   2.675   3.731
 8940TIP3   OH226760   4.080   6.612   4.492
 8940TIP3    H126761   4.020   6.660   4.549
 8940TIP3    H226762   4.034   6.531   4.472
 8941TIP3   OH226763   0.476   5.879   5.861
 8941TIP3    H126764   0.467   5.965   5.902
 8941TIP3    H226765   0.392   5.865   5.817
 8942TIP3   OH226766   6.012   4.791   3.313
 8942TIP3    H126767   5.971   4.790   3.400
 8942TIP3    H226768   6.103   4.815   3.329
 8943TIP3   OH226769   5.941   0.061   2.857
 8943TIP3    H126770   5.951   0.053   2.952
 8943TIP3    H226771   5.900   0.147   2.845
 8944TIP3   OH226772   0.993   7.697   0.772
 8944TIP3    H126773   1.016   7.659   0.687
 8944TIP3    H226774   1.019   7.789   0.764
 8945TIP3   OH226775   0.149   3.264   4.039
 8945TIP3    H126776   0.220   3.271   4.101
 8945TIP3    H226777   0.105   3.349   4.041
 8946TIP3   OH226778   7.192   7.016   2.469
 8946TIP3    H126779   7.104   6.996   2.501
 8946TIP3    H226780   7.231   6.931   2.452
 8947TIP3   OH226781   2.328   5.592   6.330
 8947TIP3    H126782   2.313   5.513   6.381
 8947TIP3    H226783   2.411   5.627   6.364
 8948TIP3   OH226784   0.517   3.905   5.776
 8948TIP3    H126785   0.508   3.810   5.770
 8948TIP3    H226786   0.576   3.928   5.703
 8949TIP3   OH226787   3.228   2.154   2.322
 8949TIP3    H126788   3.269   2.222   2.375
 8949TIP3    H226789   3.271   2.161   2.237
 8950TIP3   OH226790   7.696   4.058   5.502
 8950TIP3    H126791   7.702   3.967   5.533
 8950TIP3    H226792   7.780   4.097   5.527
 8951TIP3   OH226793   4.394   0.850   3.487
 8951TIP3    H126794   4.404   0.845   3.582
 8951TIP3    H226795   4.307   0.813   3.470
 8952TIP3   OH226796   6.386   7.098   6.615
 8952TIP3    H126797   6.431   7.041   6.553
 8952TIP3    H226798   6.327   7.151   6.560
 8953TIP3   OH226799   4.411   6.522   3.559
 8953TIP3    H126800   4.401   6.613   3.530
 8953TIP3    H226801   4.482   6.525   3.623
 8954TIP3   OH226802   4.387   5.631   2.457
 8954TIP3    H126803   4.318   5.687   2.494
 8954TIP3    H226804   4.351   5.601   2.374
 8955TIP3   OH226805   1.574   0.688   0.059
 8955TIP3    H126806   1.603   0.699  -0.031
 8955TIP3    H226807   1.498   0.631   0.053
 8956TIP3   OH226808   2.450   0.159   2.126
 8956TIP3    H126809   2.485   0.222   2.062
 8956TIP3    H226810   2.528   0.116   2.162
 8957TIP3   OH226811   2.079   4.933   6.271
 8957TIP3    H126812   1.991   4.910   6.302
 8957TIP3    H226813   2.129   4.949   6.351
 8958TIP3   OH226814   2.287   3.259   2.544
 8958TIP3    H126815   2.229   3.335   2.541
 8958TIP3    H226816   2.279   3.220   2.457
 8959TIP3   OH226817   7.380   0.622   1.033
 8959TIP3    H126818   7.372   0.535   0.993
 8959TIP3    H226819   7.474   0.637   1.040
 8960TIP3   OH226820   4.025   5.646   3.717
 8960TIP3    H126821   3.989   5.625   3.803
 8960TIP3    H226822   3.968   5.715   3.683
 8961TIP3   OH226823   0.461   6.392   3.846
 8961TIP3    H126824   0.402   6.456   3.808
 8961TIP3    H226825   0.475   6.328   3.775
 8962TIP3   OH226826   6.732   0.909   1.403
 8962TIP3    H126827   6.692   0.988   1.439
 8962TIP3    H226828   6.826   0.924   1.412
 8963TIP3   OH226829   6.882   6.911   3.184
 8963TIP3    H126830   6.932   6.946   3.110
 8963TIP3    H226831   6.947   6.906   3.255
 8964TIP3   OH226832   6.080   2.638   1.893
 8964TIP3    H126833   6.161   2.653   1.942
 8964TIP3    H226834   6.014   2.688   1.940
 8965TIP3   OH226835   6.863   2.231   6.581
 8965TIP3    H126836   6.947   2.227   6.625
 8965TIP3    H226837   6.872   2.171   6.506
 8966TIP3   OH226838   1.429   4.949   2.451
 8966TIP3    H126839   1.432   4.941   2.546
 8966TIP3    H226840   1.343   4.915   2.427
 8967TIP3   OH226841   6.897   4.774   6.589
 8967TIP3    H126842   6.826   4.790   6.526
 8967TIP3    H226843   6.873   4.692   6.631
 8968TIP3   OH226844   0.597   3.615   2.392
 8968TIP3    H126845   0.598   3.618   2.296
 8968TIP3    H226846   0.684   3.584   2.416
 8969TIP3   OH226847   1.942   2.925   1.487
 8969TIP3    H126848   1.958   2.913   1.580
 8969TIP3    H226849   1.961   2.840   1.448
 8970TIP3   OH226850   6.135   2.942   4.171
 8970TIP3    H126851   6.051   2.898   4.158
 8970TIP3    H226852   6.114   3.035   4.166
 8971TIP3   OH226853   5.459   1.811   0.839
 8971TIP3    H126854   5.463   1.834   0.932
 8971TIP3    H226855   5.455   1.716   0.839
 8972TIP3   OH226856   4.674   7.443   5.523
 8972TIP3    H126857   4.646   7.460   5.433
 8972TIP3    H226858   4.725   7.521   5.547
 8973TIP3   OH226859   1.020   3.218   3.060
 8973TIP3    H126860   0.995   3.204   3.151
 8973TIP3    H226861   0.938   3.224   3.012
 8974TIP3   OH226862   1.150   4.946   5.347
 8974TIP3    H126863   1.107   4.884   5.405
 8974TIP3    H226864   1.178   4.894   5.272
 8975TIP3   OH226865   4.973   4.480   5.715
 8975TIP3    H126866   5.010   4.461   5.629
 8975TIP3    H226867   5.022   4.423   5.775
 8976TIP3   OH226868   0.967   1.357   1.276
 8976TIP3    H126869   0.920   1.292   1.329
 8976TIP3    H226870   1.057   1.324   1.272
 8977TIP3   OH226871   7.575   7.260   6.501
 8977TIP3    H126872   7.576   7.272   6.596
 8977TIP3    H226873   7.626   7.181   6.486
 8978TIP3   OH226874   1.838   3.642   1.330
 8978TIP3    H126875   1.904   3.700   1.291
 8978TIP3    H226876   1.840   3.664   1.423
 8979TIP3   OH226877   6.023   4.806   3.741
 8979TIP3    H126878   5.955   4.812   3.808
 8979TIP3    H226879   5.979   4.834   3.661
 8980TIP3   OH226880   0.153   4.692   5.170
 8980TIP3    H126881   0.228   4.676   5.228
 8980TIP3    H226882   0.154   4.787   5.156
 8981TIP3   OH226883   0.834   2.286   1.453
 8981TIP3    H126884   0.805   2.304   1.542
 8981TIP3    H226885   0.898   2.215   1.463
 8982TIP3   OH226886   5.524   6.901   5.654
 8982TIP3    H126887   5.565   6.876   5.736
 8982TIP3    H226888   5.431   6.880   5.666
 8983TIP3   OH226889   5.965   5.128   2.947
 8983TIP3    H126890   6.046   5.089   2.981
 8983TIP3    H226891   5.901   5.057   2.950
 8984TIP3   OH226892   6.975   6.136   2.208
 8984TIP3    H126893   6.926   6.101   2.282
 8984TIP3    H226894   7.058   6.087   2.209
 8985TIP3   OH226895   8.405   6.074   4.938
 8985TIP3    H126896   8.432   6.029   5.019
 8985TIP3    H226897   8.390   6.165   4.966
 8986TIP3   OH226898   1.998   3.663   6.121
 8986TIP3    H126899   2.066   3.647   6.186
 8986TIP3    H226900   1.918   3.677   6.172
 8987TIP3   OH226901   5.932   0.567   2.207
 8987TIP3    H126902   5.920   0.583   2.300
 8987TIP3    H226903   5.953   0.653   2.170
 8988TIP3   OH226904   2.528   1.537   2.209
 8988TIP3    H126905   2.563   1.562   2.295
 8988TIP3    H226906   2.595   1.480   2.172
 8989TIP3   OH226907   3.245   1.439   6.135
 8989TIP3    H126908   3.230   1.422   6.228
 8989TIP3    H226909   3.158   1.455   6.099
 8990TIP3   OH226910   4.421   3.990   6.270
 8990TIP3    H126911   4.360   3.970   6.341
 8990TIP3    H226912   4.411   4.084   6.256
 8991TIP3   OH226913   1.287   3.716   4.668
 8991TIP3    H126914   1.315   3.632   4.631
 8991TIP3    H226915   1.193   3.720   4.652
 8992TIP3   OH226916   6.966   0.316   5.507
 8992TIP3    H126917   6.917   0.295   5.587
 8992TIP3    H226918   6.984   0.410   5.514
 8993TIP3   OH226919   7.644   3.542   2.797
 8993TIP3    H126920   7.571   3.480   2.800
 8993TIP3    H226921   7.712   3.502   2.852
 8994TIP3   OH226922   6.291   2.697   3.622
 8994TIP3    H126923   6.331   2.613   3.645
 8994TIP3    H226924   6.247   2.725   3.702
 8995TIP3   OH226925   0.539   7.400   0.005
 8995TIP3    H126926   0.615   7.457  -0.007
 8995TIP3    H226927   0.471   7.437  -0.051
 8996TIP3   OH226928   4.849   6.676   3.664
 8996TIP3    H126929   4.813   6.686   3.576
 8996TIP3    H226930   4.888   6.589   3.665
 8997TIP3   OH226931   7.154   3.097   5.700
 8997TIP3    H126932   7.135   3.004   5.708
 8997TIP3    H226933   7.071   3.141   5.717
 8998TIP3   OH226934   8.259   3.745   1.407
 8998TIP3    H126935   8.313   3.822   1.426
 8998TIP3    H226936   8.294   3.711   1.324
 8999TIP3   OH226937   2.038   4.591   6.315
 8999TIP3    H126938   1.994   4.673   6.338
 8999TIP3    H226939   2.020   4.579   6.222
 9000TIP3   OH226940   3.489   5.263   2.066
 9000TIP3    H126941   3.551   5.197   2.034
 9000TIP3    H226942   3.494   5.333   2.001
 9001TIP3   OH226943   5.697   5.968   4.715
 9001TIP3    H126944   5.764   6.036   4.710
 9001TIP3    H226945   5.625   6.009   4.763
 9002TIP3   OH226946   1.352   6.519   0.252
 9002TIP3    H126947   1.271   6.468   0.263
 9002TIP3    H226948   1.356   6.575   0.329
 9003TIP3   OH226949   2.717   1.559   3.250
 9003TIP3    H126950   2.745   1.472   3.223
 9003TIP3    H226951   2.797   1.603   3.277
 9004TIP3   OH226952   6.570   3.153   6.113
 9004TIP3    H126953   6.652   3.176   6.158
 9004TIP3    H226954   6.503   3.206   6.157
 9005TIP3   OH226955   7.754   0.577   5.350
 9005TIP3    H126956   7.671   0.621   5.369
 9005TIP3    H226957   7.809   0.645   5.314
 9006TIP3   OH226958   3.551   6.580   3.579
 9006TIP3    H126959   3.614   6.643   3.544
 9006TIP3    H226960   3.498   6.631   3.640
 9007TIP3   OH226961   5.189   7.201   1.517
 9007TIP3    H126962   5.163   7.209   1.609
 9007TIP3    H226963   5.166   7.285   1.478
 9008TIP3   OH226964   5.034   4.741   1.986
 9008TIP3    H126965   4.996   4.655   2.003
 9008TIP3    H226966   4.969   4.785   1.930
 9009TIP3   OH226967   7.372   0.406   1.503
 9009TIP3    H126968   7.398   0.328   1.454
 9009TIP3    H226969   7.455   0.447   1.528
 9010TIP3   OH226970   0.883   7.749   4.895
 9010TIP3    H126971   0.833   7.742   4.813
 9010TIP3    H226972   0.938   7.826   4.883
 9011TIP3   OH226973   7.345   0.874   3.479
 9011TIP3    H126974   7.354   0.885   3.385
 9011TIP3    H226975   7.428   0.907   3.515
 9012TIP3   OH226976   0.037   6.944   5.878
 9012TIP3    H126977  -0.050   6.955   5.915
 9012TIP3    H226978   0.096   6.953   5.953
 9013TIP3   OH226979   1.740   5.893   1.466
 9013TIP3    H126980   1.704   5.975   1.431
 9013TIP3    H226981   1.822   5.919   1.508
 9014TIP3   OH226982   1.902   3.560   5.010
 9014TIP3    H126983   1.937   3.648   5.021
 9014TIP3    H226984   1.977   3.502   5.026
 9015TIP3   OH226985   5.052   2.717   2.912
 9015TIP3    H126986   4.960   2.689   2.914
 9015TIP3    H226987   5.102   2.636   2.926
 9016TIP3   OH226988   1.962   6.191   1.550
 9016TIP3    H126989   1.960   6.102   1.517
 9016TIP3    H226990   2.048   6.200   1.591
 9017TIP3   OH226991   6.383   4.118   1.523
 9017TIP3    H126992   6.381   4.056   1.596
 9017TIP3    H226993   6.293   4.150   1.516
 9018TIP3   OH226994   4.637   2.503   0.940
 9018TIP3    H126995   4.722   2.532   0.906
 9018TIP3    H226996   4.572   2.550   0.887
 9019TIP3   OH226997   0.567   6.244   3.634
 9019TIP3    H126998   0.552   6.284   3.549
 9019TIP3    H226999   0.660   6.258   3.651
 9020TIP3   OH227000   4.302   0.840   2.514
 9020TIP3    H127001   4.374   0.781   2.490
 9020TIP3    H227002   4.311   0.914   2.455
 9021TIP3   OH227003   2.821   4.436   2.545
 9021TIP3    H127004   2.872   4.499   2.597
 9021TIP3    H227005   2.733   4.473   2.543
 9022TIP3   OH227006   8.367   3.447   0.173
 9022TIP3    H127007   8.353   3.447   0.268
 9022TIP3    H227008   8.326   3.366   0.143
 9023TIP3   OH227009   3.020   0.827   5.560
 9023TIP3    H127010   3.073   0.895   5.517
 9023TIP3    H227011   2.932   0.841   5.527
 9024TIP3   OH227012   6.763   6.404   6.664
 9024TIP3    H127013   6.858   6.390   6.663
 9024TIP3    H227014   6.743   6.436   6.576
 9025TIP3   OH227015   4.862   0.366   0.529
 9025TIP3    H127016   4.906   0.309   0.466
 9025TIP3    H227017   4.810   0.426   0.476
 9026TIP3   OH227018   1.372   7.323   4.577
 9026TIP3    H127019   1.280   7.338   4.598
 9026TIP3    H227020   1.392   7.386   4.508
 9027TIP3   OH227021   5.850   1.972   2.329
 9027TIP3    H127022   5.818   2.046   2.381
 9027TIP3    H227023   5.911   1.927   2.387
 9028TIP3   OH227024   6.590   1.968   1.029
 9028TIP3    H127025   6.684   1.985   1.041
 9028TIP3    H227026   6.573   1.990   0.938
 9029TIP3   OH227027   0.652   2.638   4.964
 9029TIP3    H127028   0.580   2.606   5.018
 9029TIP3    H227029   0.711   2.684   5.025
 9030TIP3   OH227030   5.488   5.353   5.990
 9030TIP3    H127031   5.566   5.404   6.010
 9030TIP3    H227032   5.422   5.384   6.053
 9031TIP3   OH227033   5.339   7.450   0.199
 9031TIP3    H127034   5.380   7.364   0.206
 9031TIP3    H227035   5.396   7.509   0.248
 9032TIP3   OH227036   3.909   7.541   1.763
 9032TIP3    H127037   4.003   7.524   1.764
 9032TIP3    H227038   3.868   7.455   1.771
 9033TIP3   OH227039   7.430   3.784   3.281
 9033TIP3    H127040   7.378   3.862   3.261
 9033TIP3    H227041   7.495   3.813   3.345
 9034TIP3   OH227042   3.654   1.633   2.232
 9034TIP3    H127043   3.678   1.552   2.186
 9034TIP3    H227044   3.592   1.677   2.173
 9035TIP3   OH227045   7.048   2.141   1.895
 9035TIP3    H127046   6.993   2.080   1.943
 9035TIP3    H227047   7.075   2.206   1.960
 9036TIP3   OH227048   3.577   7.915   2.662
 9036TIP3    H127049   3.555   7.918   2.569
 9036TIP3    H227050   3.508   7.966   2.705
 9037TIP3   OH227051   0.968   1.135   2.515
 9037TIP3    H127052   0.977   1.062   2.575
 9037TIP3    H227053   0.889   1.115   2.464
 9038TIP3   OH227054   2.846   0.954   2.471
 9038TIP3    H127055   2.850   0.891   2.543
 9038TIP3    H227056   2.753   0.965   2.454
 9039TIP3   OH227057   4.271   7.199   4.425
 9039TIP3    H127058   4.296   7.124   4.371
 9039TIP3    H227059   4.337   7.265   4.406
 9040TIP3   OH227060   2.910   7.615   6.856
 9040TIP3    H127061   2.876   7.598   6.768
 9040TIP3    H227062   2.864   7.553   6.912
 9041TIP3   OH227063   4.150   4.457   3.438
 9041TIP3    H127064   4.087   4.385   3.441
 9041TIP3    H227065   4.104   4.528   3.394
 9042TIP3   OH227066   1.635   1.503   3.088
 9042TIP3    H127067   1.572   1.463   3.149
 9042TIP3    H227068   1.656   1.588   3.128
 9043TIP3   OH227069   5.893   3.873   5.844
 9043TIP3    H127070   5.921   3.919   5.765
 9043TIP3    H227071   5.950   3.796   5.848
 9044TIP3   OH227072   0.337   0.245   3.878
 9044TIP3    H127073   0.318   0.152   3.879
 9044TIP3    H227074   0.282   0.281   3.809
 9045TIP3   OH227075   7.304   5.664   2.778
 9045TIP3    H127076   7.225   5.693   2.824
 9045TIP3    H227077   7.376   5.690   2.835
 9046TIP3   OH227078   0.368   0.258   0.562
 9046TIP3    H127079   0.442   0.248   0.503
 9046TIP3    H227080   0.395   0.327   0.624
 9047TIP3   OH227081   2.706   2.406   5.001
 9047TIP3    H127082   2.737   2.316   5.004
 9047TIP3    H227083   2.713   2.431   4.909
 9048TIP3   OH227084   3.771   7.273   4.812
 9048TIP3    H127085   3.714   7.284   4.888
 9048TIP3    H227086   3.785   7.179   4.805
 9049TIP3   OH227087   1.686   0.156   0.222
 9049TIP3    H127088   1.726   0.069   0.229
 9049TIP3    H227089   1.709   0.200   0.303
 9050TIP3   OH227090   3.340   4.953   3.324
 9050TIP3    H127091   3.303   5.007   3.255
 9050TIP3    H227092   3.325   5.003   3.405
 9051TIP3   OH227093   4.558   3.408   0.180
 9051TIP3    H127094   4.636   3.395   0.235
 9051TIP3    H227095   4.491   3.440   0.241
 9052TIP3   OH227096   0.507   5.811   6.505
 9052TIP3    H127097   0.473   5.753   6.573
 9052TIP3    H227098   0.586   5.849   6.544
 9053TIP3   OH227099   1.044   2.221   0.363
 9053TIP3    H127100   1.084   2.166   0.295
 9053TIP3    H227101   0.962   2.177   0.385
 9054TIP3   OH227102   3.602   1.682   2.679
 9054TIP3    H127103   3.528   1.737   2.702
 9054TIP3    H227104   3.675   1.743   2.670
 9055TIP3   OH227105   7.257   7.658   6.519
 9055TIP3    H127106   7.259   7.581   6.462
 9055TIP3    H227107   7.313   7.722   6.476
 9056TIP3   OH227108   7.190   3.497   3.640
 9056TIP3    H127109   7.223   3.549   3.567
 9056TIP3    H227110   7.213   3.548   3.718
 9057TIP3   OH227111   3.606   6.334   1.925
 9057TIP3    H127112   3.580   6.261   1.870
 9057TIP3    H227113   3.666   6.385   1.870
 9058TIP3   OH227114   3.925   3.965   1.076
 9058TIP3    H127115   3.898   3.985   0.986
 9058TIP3    H227116   3.997   3.903   1.066
 9059TIP3   OH227117   5.419   7.217   6.270
 9059TIP3    H127118   5.337   7.237   6.225
 9059TIP3    H227119   5.408   7.254   6.358
 9060TIP3   OH227120   7.042   6.058   3.949
 9060TIP3    H127121   7.038   6.023   4.037
 9060TIP3    H227122   7.076   5.986   3.896
 9061TIP3   OH227123   7.485   5.254   4.316
 9061TIP3    H127124   7.552   5.189   4.337
 9061TIP3    H227125   7.425   5.251   4.390
 9062TIP3   OH227126   8.292   3.096   4.578
 9062TIP3    H127127   8.310   3.002   4.574
 9062TIP3    H227128   8.325   3.123   4.664
 9063TIP3   OH227129   7.024   5.612   1.887
 9063TIP3    H127130   7.042   5.706   1.891
 9063TIP3    H227131   7.070   5.582   1.809
 9064TIP3   OH227132   7.552   5.346   2.980
 9064TIP3    H127133   7.608   5.400   3.036
 9064TIP3    H227134   7.575   5.373   2.891
 9065TIP3   OH227135   7.005   5.067   1.043
 9065TIP3    H127136   7.005   5.161   1.022
 9065TIP3    H227137   7.031   5.064   1.136
 9066TIP3   OH227138   2.024   0.899   0.147
 9066TIP3    H127139   2.077   0.827   0.114
 9066TIP3    H227140   1.979   0.862   0.223
 9067TIP3   OH227141   5.467   6.278   2.059
 9067TIP3    H127142   5.503   6.342   2.121
 9067TIP3    H227143   5.538   6.263   1.997
 9068TIP3   OH227144   3.830   6.678   3.993
 9068TIP3    H127145   3.880   6.751   4.030
 9068TIP3    H227146   3.890   6.604   3.993
 9069TIP3   OH227147   4.680   4.187   6.733
 9069TIP3    H127148   4.772   4.208   6.718
 9069TIP3    H227149   4.644   4.174   6.646
 9070TIP3   OH227150   0.512   2.000   1.379
 9070TIP3    H127151   0.521   2.031   1.289
 9070TIP3    H227152   0.523   1.906   1.373
 9071TIP3   OH227153   3.265   7.389   4.517
 9071TIP3    H127154   3.196   7.450   4.543
 9071TIP3    H227155   3.265   7.393   4.421
 9072TIP3   OH227156   4.218   1.111   2.041
 9072TIP3    H127157   4.271   1.052   1.987
 9072TIP3    H227158   4.128   1.098   2.010
 9073TIP3   OH227159   3.390   3.207   6.365
 9073TIP3    H127160   3.365   3.259   6.442
 9073TIP3    H227161   3.329   3.133   6.366
 9074TIP3   OH227162   4.942   2.691   4.287
 9074TIP3    H127163   4.850   2.669   4.272
 9074TIP3    H227164   4.987   2.662   4.208
 9075TIP3   OH227165   4.140   6.070   2.225
 9075TIP3    H127166   4.130   6.147   2.169
 9075TIP3    H227167   4.135   5.996   2.165
 9076TIP3   OH227168   7.916   1.054   6.785
 9076TIP3    H127169   7.988   1.109   6.816
 9076TIP3    H227170   7.952   0.965   6.786
 9077TIP3   OH227171   0.986   2.149   6.626
 9077TIP3    H127172   1.040   2.161   6.704
 9077TIP3    H227173   0.909   2.101   6.657
 9078TIP3   OH227174   6.372   3.708   5.991
 9078TIP3    H127175   6.385   3.665   6.076
 9078TIP3    H227176   6.333   3.793   6.013
 9079TIP3   OH227177   3.288   2.928   2.225
 9079TIP3    H127178   3.327   3.015   2.232
 9079TIP3    H227179   3.197   2.940   2.254
 9080TIP3   OH227180   0.421   0.142   6.543
 9080TIP3    H127181   0.469   0.063   6.516
 9080TIP3    H227182   0.370   0.114   6.618
 9081TIP3   OH227183   8.254   4.255   2.673
 9081TIP3    H127184   8.309   4.186   2.710
 9081TIP3    H227185   8.222   4.218   2.590
 9082TIP3   OH227186   8.256   3.364   6.578
 9082TIP3    H127187   8.214   3.309   6.512
 9082TIP3    H227188   8.344   3.378   6.544
 9083TIP3   OH227189   2.841   5.821   3.349
 9083TIP3    H127190   2.777   5.757   3.380
 9083TIP3    H227191   2.832   5.895   3.409
 9084TIP3   OH227192   5.581   6.619   0.272
 9084TIP3    H127193   5.569   6.580   0.359
 9084TIP3    H227194   5.576   6.544   0.212
 9085TIP3   OH227195   0.609   6.678   4.963
 9085TIP3    H127196   0.688   6.726   4.986
 9085TIP3    H227197   0.602   6.686   4.868
 9086TIP3   OH227198   2.818   0.886   6.216
 9086TIP3    H127199   2.853   0.803   6.249
 9086TIP3    H227200   2.896   0.940   6.200
 9087TIP3   OH227201   0.861   5.632   5.195
 9087TIP3    H127202   0.926   5.682   5.146
 9087TIP3    H227203   0.801   5.699   5.229
 9088TIP3   OH227204   7.657   6.710   1.946
 9088TIP3    H127205   7.593   6.777   1.924
 9088TIP3    H227206   7.728   6.721   1.883
 9089TIP3   OH227207   3.447   1.687   0.069
 9089TIP3    H127208   3.352   1.683   0.074
 9089TIP3    H227209   3.474   1.595   0.062
 9090TIP3   OH227210   4.886   4.060   5.149
 9090TIP3    H127211   4.917   4.107   5.072
 9090TIP3    H227212   4.956   4.070   5.214
 9091TIP3   OH227213   1.314   6.765   3.445
 9091TIP3    H127214   1.402   6.786   3.473
 9091TIP3    H227215   1.296   6.679   3.484
 9092TIP3   OH227216   0.941   0.558   2.719
 9092TIP3    H127217   1.034   0.535   2.725
 9092TIP3    H227218   0.931   0.596   2.631
 9093TIP3   OH227219   4.244   3.799   0.245
 9093TIP3    H127220   4.310   3.735   0.221
 9093TIP3    H227221   4.167   3.746   0.268
 9094TIP3   OH227222   6.708   6.616   3.875
 9094TIP3    H127223   6.750   6.632   3.960
 9094TIP3    H227224   6.750   6.536   3.842
 9095TIP3   OH227225   4.477   0.973   2.283
 9095TIP3    H127226   4.445   1.063   2.286
 9095TIP3    H227227   4.559   0.977   2.234
 9096TIP3   OH227228   4.764   3.242   0.801
 9096TIP3    H127229   4.717   3.259   0.719
 9096TIP3    H227230   4.852   3.276   0.786
 9097TIP3   OH227231   5.609   4.270   3.793
 9097TIP3    H127232   5.534   4.227   3.752
 9097TIP3    H227233   5.578   4.359   3.811
 9098TIP3   OH227234   6.567   4.169   2.833
 9098TIP3    H127235   6.607   4.142   2.916
 9098TIP3    H227236   6.547   4.087   2.788
 9099TIP3   OH227237   2.990   6.678   3.818
 9099TIP3    H127238   2.965   6.639   3.734
 9099TIP3    H227239   2.985   6.772   3.804
 9100TIP3   OH227240   6.305   7.010   4.140
 9100TIP3    H127241   6.258   6.938   4.183
 9100TIP3    H227242   6.306   7.080   4.205
 9101TIP3   OH227243   1.888   5.496   4.058
 9101TIP3    H127244   1.968   5.464   4.100
 9101TIP3    H227245   1.825   5.425   4.070
 9102TIP3   OH227246   0.709   4.424   0.687
 9102TIP3    H127247   0.643   4.449   0.751
 9102TIP3    H227248   0.743   4.507   0.654
 9103TIP3   OH227249   5.910   4.638   1.255
 9103TIP3    H127250   5.860   4.571   1.302
 9103TIP3    H227251   5.913   4.607   1.164
 9104TIP3   OH227252   1.481   0.555   2.993
 9104TIP3    H127253   1.506   0.463   2.986
 9104TIP3    H227254   1.559   0.603   2.967
 9105TIP3   OH227255   2.962   3.851   6.163
 9105TIP3    H127256   3.014   3.929   6.141
 9105TIP3    H227257   2.881   3.885   6.199
 9106TIP3   OH227258   1.218   5.177   3.330
 9106TIP3    H127259   1.291   5.131   3.288
 9106TIP3    H227260   1.260   5.246   3.382
 9107TIP3   OH227261   1.341   3.688   3.488
 9107TIP3    H127262   1.270   3.689   3.423
 9107TIP3    H227263   1.408   3.745   3.451
 9108TIP3   OH227264   7.756   7.441   6.283
 9108TIP3    H127265   7.753   7.474   6.193
 9108TIP3    H227266   7.739   7.347   6.275
 9109TIP3   OH227267   0.919   2.209   1.186
 9109TIP3    H127268   0.902   2.251   1.271
 9109TIP3    H227269   0.843   2.152   1.172
 9110TIP3   OH227270   7.985   0.130   2.716
 9110TIP3    H127271   8.055   0.073   2.682
 9110TIP3    H227272   7.980   0.202   2.654
 9111TIP3   OH227273   3.481   7.434   6.849
 9111TIP3    H127274   3.506   7.521   6.817
 9111TIP3    H227275   3.564   7.386   6.853
 9112TIP3   OH227276   1.203   7.629   5.054
 9112TIP3    H127277   1.119   7.586   5.067
 9112TIP3    H227278   1.207   7.696   5.123
 9113TIP3   OH227279   5.194   1.628   1.990
 9113TIP3    H127280   5.118   1.607   2.043
 9113TIP3    H227281   5.197   1.724   1.988
 9114TIP3   OH227282   6.957   2.705   5.491
 9114TIP3    H127283   7.011   2.720   5.570
 9114TIP3    H227284   7.018   2.664   5.429
 9115TIP3   OH227285   1.371   2.878   0.434
 9115TIP3    H127286   1.383   2.953   0.492
 9115TIP3    H227287   1.423   2.898   0.356
 9116TIP3   OH227288   4.601   3.356   1.329
 9116TIP3    H127289   4.521   3.328   1.375
 9116TIP3    H227290   4.587   3.328   1.239
 9117TIP3   OH227291   0.971   1.172   3.494
 9117TIP3    H127292   1.036   1.185   3.563
 9117TIP3    H227293   1.010   1.213   3.417
 9118TIP3   OH227294   3.658   0.194   0.174
 9118TIP3    H127295   3.651   0.274   0.122
 9118TIP3    H227296   3.571   0.183   0.211
 9119TIP3   OH227297   1.183   5.561   3.361
 9119TIP3    H127298   1.193   5.528   3.272
 9119TIP3    H227299   1.239   5.504   3.414
 9120TIP3   OH227300   1.789   2.830   2.779
 9120TIP3    H127301   1.784   2.921   2.749
 9120TIP3    H227302   1.839   2.834   2.860
 9121TIP3   OH227303   7.599   0.937   3.541
 9121TIP3    H127304   7.594   0.843   3.527
 9121TIP3    H227305   7.667   0.968   3.481
 9122TIP3   OH227306   0.212   5.629   6.138
 9122TIP3    H127307   0.271   5.703   6.147
 9122TIP3    H227308   0.242   5.566   6.203
 9123TIP3   OH227309   4.005   4.164   4.071
 9123TIP3    H127310   4.005   4.235   4.135
 9123TIP3    H227311   4.098   4.149   4.051
 9124TIP3   OH227312   6.393   2.700   2.580
 9124TIP3    H127313   6.423   2.668   2.665
 9124TIP3    H227314   6.310   2.656   2.566
 9125TIP3   OH227315   3.117   4.724   0.828
 9125TIP3    H127316   3.114   4.632   0.800
 9125TIP3    H227317   3.035   4.737   0.875
 9126TIP3   OH227318   6.902   3.703   4.978
 9126TIP3    H127319   6.991   3.669   4.975
 9126TIP3    H227320   6.850   3.631   5.014
 9127TIP3   OH227321   3.975   2.487   2.455
 9127TIP3    H127322   4.022   2.558   2.498
 9127TIP3    H227323   3.883   2.503   2.476
 9128TIP3   OH227324   5.475   2.954   6.879
 9128TIP3    H127325   5.416   2.982   6.809
 9128TIP3    H227326   5.561   2.988   6.853
 9129TIP3   OH227327   1.631   2.203   1.110
 9129TIP3    H127328   1.576   2.194   1.187
 9129TIP3    H227329   1.572   2.238   1.043
 9130TIP3   OH227330   2.220   2.772   2.116
 9130TIP3    H127331   2.177   2.692   2.146
 9130TIP3    H227332   2.201   2.775   2.022
 9131TIP3   OH227333   2.952   5.721   3.925
 9131TIP3    H127334   2.891   5.671   3.871
 9131TIP3    H227335   3.022   5.659   3.944
 9132TIP3   OH227336   1.700   5.985   4.508
 9132TIP3    H127337   1.644   5.953   4.437
 9132TIP3    H227338   1.699   6.081   4.497
 9133TIP3   OH227339   8.162   5.838   0.706
 9133TIP3    H127340   8.169   5.912   0.766
 9133TIP3    H227341   8.251   5.802   0.701
 9134TIP3   OH227342   3.138   2.651   0.827
 9134TIP3    H127343   3.060   2.604   0.855
 9134TIP3    H227344   3.115   2.687   0.741
 9135TIP3   OH227345   4.482   6.040   3.239
 9135TIP3    H127346   4.493   5.955   3.282
 9135TIP3    H227347   4.526   6.030   3.155
 9136TIP3   OH227348   7.634   0.045   0.443
 9136TIP3    H127349   7.703   0.066   0.380
 9136TIP3    H227350   7.630   0.120   0.502
 9137TIP3   OH227351   4.406   0.298   3.916
 9137TIP3    H127352   4.432   0.284   3.825
 9137TIP3    H227353   4.482   0.342   3.956
 9138TIP3   OH227354   8.356   7.646   5.373
 9138TIP3    H127355   8.265   7.651   5.344
 9138TIP3    H227356   8.395   7.579   5.317
 9139TIP3   OH227357   3.143   2.624   5.944
 9139TIP3    H127358   3.058   2.667   5.930
 9139TIP3    H227359   3.173   2.600   5.857
 9140TIP3   OH227360   0.109   5.093   5.117
 9140TIP3    H127361   0.057   5.172   5.100
 9140TIP3    H227362   0.179   5.123   5.175
 9141TIP3   OH227363   7.068   5.212   3.406
 9141TIP3    H127364   6.999   5.146   3.398
 9141TIP3    H227365   7.134   5.171   3.462
 9142TIP3   OH227366   7.874   1.072   0.503
 9142TIP3    H127367   7.846   1.139   0.565
 9142TIP3    H227368   7.910   1.121   0.429
 9143TIP3   OH227369   5.137   6.163   1.695
 9143TIP3    H127370   5.162   6.245   1.738
 9143TIP3    H227371   5.154   6.095   1.760
 9144TIP3   OH227372   1.741   3.130   5.671
 9144TIP3    H127373   1.651   3.108   5.648
 9144TIP3    H227374   1.751   3.222   5.645
 9145TIP3   OH227375   1.672   1.593   6.167
 9145TIP3    H127376   1.587   1.618   6.202
 9145TIP3    H227377   1.718   1.554   6.241
 9146TIP3   OH227378   3.392   4.937   6.850
 9146TIP3    H127379   3.467   4.879   6.863
 9146TIP3    H227380   3.319   4.890   6.889
 9147TIP3   OH227381   0.549   3.234   2.450
 9147TIP3    H127382   0.524   3.145   2.476
 9147TIP3    H227383   0.478   3.264   2.394
 9148TIP3   OH227384   0.903   5.284   3.678
 9148TIP3    H127385   0.846   5.228   3.624
 9148TIP3    H227386   0.844   5.349   3.715
 9149TIP3   OH227387   4.496   0.286   3.644
 9149TIP3    H127388   4.467   0.376   3.631
 9149TIP3    H227389   4.424   0.232   3.609
 9150TIP3   OH227390   6.029   7.010   4.725
 9150TIP3    H127391   6.050   7.059   4.804
 9150TIP3    H227392   6.001   7.076   4.662
 9151TIP3   OH227393   2.161   3.849   2.883
 9151TIP3    H127394   2.227   3.880   2.821
 9151TIP3    H227395   2.083   3.834   2.830
 9152TIP3   OH227396   4.571   5.654   5.097
 9152TIP3    H127397   4.520   5.574   5.116
 9152TIP3    H227398   4.662   5.625   5.099
 9153TIP3   OH227399   0.222   0.780   3.584
 9153TIP3    H127400   0.132   0.764   3.614
 9153TIP3    H227401   0.277   0.740   3.651
 9154TIP3   OH227402   2.379   5.707   1.706
 9154TIP3    H127403   2.458   5.755   1.732
 9154TIP3    H227404   2.311   5.774   1.701
 9155TIP3   OH227405   3.275   0.493   6.404
 9155TIP3    H127406   3.248   0.410   6.443
 9155TIP3    H227407   3.230   0.494   6.319
 9156TIP3   OH227408   6.274   3.793   3.131
 9156TIP3    H127409   6.206   3.844   3.088
 9156TIP3    H227410   6.238   3.704   3.136
 9157TIP3   OH227411   2.310   2.394   1.216
 9157TIP3    H127412   2.279   2.311   1.178
 9157TIP3    H227413   2.234   2.452   1.213
 9158TIP3   OH227414   0.194   2.010   3.519
 9158TIP3    H127415   0.232   1.932   3.478
 9158TIP3    H227416   0.269   2.053   3.561
 9159TIP3   OH227417   2.314   5.071   4.726
 9159TIP3    H127418   2.267   5.137   4.775
 9159TIP3    H227419   2.405   5.100   4.727
 9160TIP3   OH227420   2.144   7.618   5.563
 9160TIP3    H127421   2.190   7.558   5.623
 9160TIP3    H227422   2.051   7.605   5.583
 9161TIP3   OH227423   0.235   2.854   2.586
 9161TIP3    H127424   0.207   2.800   2.660
 9161TIP3    H227425   0.232   2.796   2.510
 9162TIP3   OH227426   2.306   1.289   0.567
 9162TIP3    H127427   2.388   1.288   0.615
 9162TIP3    H227428   2.312   1.215   0.507
 9163TIP3   OH227429   3.414   3.250   3.461
 9163TIP3    H127430   3.493   3.234   3.512
 9163TIP3    H227431   3.347   3.197   3.503
 9164TIP3   OH227432   5.318   1.024   0.698
 9164TIP3    H127433   5.312   1.052   0.607
 9164TIP3    H227434   5.259   1.083   0.745
 9165TIP3   OH227435   0.609   4.543   5.691
 9165TIP3    H127436   0.556   4.516   5.766
 9165TIP3    H227437   0.569   4.624   5.661
 9166TIP3   OH227438   2.590   1.696   4.359
 9166TIP3    H127439   2.644   1.699   4.280
 9166TIP3    H227440   2.552   1.608   4.359
 9167TIP3   OH227441   1.851   0.643   4.100
 9167TIP3    H127442   1.944   0.662   4.088
 9167TIP3    H227443   1.841   0.632   4.194
 9168TIP3   OH227444   5.497   1.620   6.071
 9168TIP3    H127445   5.487   1.646   6.163
 9168TIP3    H227446   5.488   1.702   6.022
 9169TIP3   OH227447   4.480   1.140   5.729
 9169TIP3    H127448   4.392   1.163   5.698
 9169TIP3    H227449   4.500   1.057   5.687
 9170TIP3   OH227450   7.482   4.929   4.169
 9170TIP3    H127451   7.452   4.974   4.249
 9170TIP3    H227452   7.578   4.938   4.171
 9171TIP3   OH227453   4.842   3.298   4.659
 9171TIP3    H127454   4.800   3.213   4.672
 9171TIP3    H227455   4.852   3.333   4.747
 9172TIP3   OH227456   2.743   1.489   4.889
 9172TIP3    H127457   2.733   1.478   4.794
 9172TIP3    H227458   2.827   1.447   4.909
 9173TIP3   OH227459   0.791   1.528   1.430
 9173TIP3    H127460   0.728   1.460   1.408
 9173TIP3    H227461   0.869   1.506   1.379
 9174TIP3   OH227462   5.926   5.811   3.710
 9174TIP3    H127463   5.936   5.726   3.668
 9174TIP3    H227464   5.925   5.792   3.804
 9175TIP3   OH227465   1.149   5.311   1.314
 9175TIP3    H127466   1.106   5.372   1.374
 9175TIP3    H227467   1.230   5.286   1.359
 9176TIP3   OH227468   0.581   3.226   5.704
 9176TIP3    H127469   0.508   3.196   5.650
 9176TIP3    H227470   0.545   3.301   5.752
 9177TIP3   OH227471   3.532   2.719   4.937
 9177TIP3    H127472   3.621   2.754   4.939
 9177TIP3    H227473   3.511   2.709   4.844
 9178TIP3   OH227474   5.527   4.213   4.388
 9178TIP3    H127475   5.571   4.174   4.311
 9178TIP3    H227476   5.464   4.147   4.416
 9179TIP3   OH227477   5.818   4.293   6.318
 9179TIP3    H127478   5.738   4.256   6.280
 9179TIP3    H227479   5.872   4.216   6.337
 9180TIP3   OH227480   4.013   1.564   4.625
 9180TIP3    H127481   4.087   1.511   4.652
 9180TIP3    H227482   3.948   1.502   4.593
 9181TIP3   OH227483   7.224   4.598   3.405
 9181TIP3    H127484   7.198   4.654   3.478
 9181TIP3    H227485   7.283   4.653   3.353
 9182TIP3   OH227486   0.273   6.300   4.896
 9182TIP3    H127487   0.293   6.239   4.967
 9182TIP3    H227488   0.277   6.246   4.817
 9183TIP3   OH227489   7.546   1.339   5.972
 9183TIP3    H127490   7.589   1.302   5.895
 9183TIP3    H227491   7.523   1.263   6.025
 9184TIP3   OH227492   0.607   0.557   0.523
 9184TIP3    H127493   0.514   0.564   0.544
 9184TIP3    H227494   0.623   0.629   0.462
 9185TIP3   OH227495   1.068   7.215   3.170
 9185TIP3    H127496   1.097   7.175   3.088
 9185TIP3    H227497   0.984   7.256   3.149
 9186TIP3   OH227498   5.541   2.898   0.508
 9186TIP3    H127499   5.462   2.845   0.518
 9186TIP3    H227500   5.606   2.857   0.564
 9187TIP3   OH227501   6.740   7.940   0.265
 9187TIP3    H127502   6.724   7.853   0.230
 9187TIP3    H227503   6.822   7.932   0.313
 9188TIP3   OH227504   2.385   5.785   6.765
 9188TIP3    H127505   2.368   5.704   6.718
 9188TIP3    H227506   2.470   5.771   6.808
 9189TIP3   OH227507   5.389   5.591   1.457
 9189TIP3    H127508   5.368   5.519   1.398
 9189TIP3    H227509   5.306   5.611   1.500
 9190TIP3   OH227510   0.069   3.299   0.857
 9190TIP3    H127511   0.141   3.240   0.834
 9190TIP3    H227512   0.046   3.274   0.947
 9191TIP3   OH227513   7.033   2.805   4.268
 9191TIP3    H127514   7.031   2.720   4.312
 9191TIP3    H227515   6.982   2.792   4.188
 9192TIP3   OH227516   4.357   1.582   5.377
 9192TIP3    H127517   4.328   1.553   5.463
 9192TIP3    H227518   4.353   1.678   5.381
 9193TIP3   OH227519   4.292   7.697   1.856
 9193TIP3    H127520   4.287   7.771   1.918
 9193TIP3    H227521   4.259   7.733   1.774
 9194TIP3   OH227522   6.041   2.494   5.114
 9194TIP3    H127523   6.009   2.497   5.204
 9194TIP3    H227524   6.077   2.581   5.098
 9195TIP3   OH227525   6.186   1.188   4.606
 9195TIP3    H127526   6.132   1.247   4.659
 9195TIP3    H227527   6.265   1.239   4.587
 9196TIP3   OH227528   3.065   7.396   3.180
 9196TIP3    H127529   3.119   7.453   3.235
 9196TIP3    H227530   3.015   7.455   3.125
 9197TIP3   OH227531   3.166   6.911   1.642
 9197TIP3    H127532   3.075   6.920   1.669
 9197TIP3    H227533   3.174   6.969   1.565
 9198TIP3   OH227534   7.206   3.707   4.415
 9198TIP3    H127535   7.196   3.620   4.375
 9198TIP3    H227536   7.263   3.754   4.354
 9199TIP3   OH227537   2.403   0.376   3.518
 9199TIP3    H127538   2.484   0.351   3.473
 9199TIP3    H227539   2.368   0.448   3.465
 9200TIP3   OH227540   2.869   4.965   5.606
 9200TIP3    H127541   2.952   4.997   5.572
 9200TIP3    H227542   2.831   4.915   5.534
 9201TIP3   OH227543   0.180   5.590   4.550
 9201TIP3    H127544   0.219   5.595   4.463
 9201TIP3    H227545   0.096   5.546   4.535
 9202TIP3   OH227546   4.466   2.253   3.284
 9202TIP3    H127547   4.449   2.172   3.332
 9202TIP3    H227548   4.519   2.305   3.344
 9203TIP3   OH227549   7.778   5.489   6.297
 9203TIP3    H127550   7.805   5.578   6.275
 9203TIP3    H227551   7.682   5.493   6.298
 9204TIP3   OH227552   6.166   2.881   6.291
 9204TIP3    H127553   6.208   2.945   6.349
 9204TIP3    H227554   6.215   2.800   6.306
 9205TIP3   OH227555   1.792   0.414   0.757
 9205TIP3    H127556   1.881   0.398   0.725
 9205TIP3    H227557   1.796   0.501   0.797
 9206TIP3   OH227558   1.172   4.578   6.285
 9206TIP3    H127559   1.107   4.571   6.355
 9206TIP3    H227560   1.251   4.537   6.322
 9207TIP3   OH227561   6.999   5.827   0.178
 9207TIP3    H127562   6.997   5.765   0.250
 9207TIP3    H227563   6.964   5.779   0.103
 9208TIP3   OH227564   0.638   5.587   0.556
 9208TIP3    H127565   0.610   5.556   0.642
 9208TIP3    H227566   0.580   5.662   0.537
 9209TIP3   OH227567   0.147   3.894   1.495
 9209TIP3    H127568   0.149   3.954   1.570
 9209TIP3    H227569   0.226   3.916   1.445
 9210TIP3   OH227570   5.262   5.648   5.381
 9210TIP3    H127571   5.230   5.671   5.294
 9210TIP3    H227572   5.234   5.557   5.394
 9211TIP3   OH227573   8.156   4.694   2.906
 9211TIP3    H127574   8.185   4.608   2.935
 9211TIP3    H227575   8.067   4.701   2.940
 9212TIP3   OH227576   1.062   6.401   3.853
 9212TIP3    H127577   1.029   6.324   3.898
 9212TIP3    H227578   1.152   6.411   3.885
 9213TIP3   OH227579   1.512   7.439   1.692
 9213TIP3    H127580   1.431   7.432   1.641
 9213TIP3    H227581   1.492   7.505   1.759
 9214TIP3   OH227582   7.760   3.536   0.483
 9214TIP3    H127583   7.752   3.468   0.416
 9214TIP3    H227584   7.672   3.574   0.489
 9215TIP3   OH227585   5.783   3.548   0.118
 9215TIP3    H127586   5.875   3.523   0.110
 9215TIP3    H227587   5.751   3.550   0.028
 9216TIP3   OH227588   0.873   7.091   0.413
 9216TIP3    H127589   0.805   7.035   0.450
 9216TIP3    H227590   0.895   7.050   0.329
 9217TIP3   OH227591   4.759   4.085   2.374
 9217TIP3    H127592   4.817   4.013   2.397
 9217TIP3    H227593   4.815   4.162   2.375
 9218TIP3   OH227594   1.485   1.686   4.359
 9218TIP3    H127595   1.432   1.710   4.283
 9218TIP3    H227596   1.451   1.600   4.385
 9219TIP3   OH227597   4.481   2.173   5.226
 9219TIP3    H127598   4.535   2.152   5.149
 9219TIP3    H227599   4.391   2.158   5.196
 9220TIP3   OH227600   4.645   2.781   5.653
 9220TIP3    H127601   4.677   2.695   5.625
 9220TIP3    H227602   4.551   2.777   5.636
 9221TIP3   OH227603   3.598   0.698   4.999
 9221TIP3    H127604   3.669   0.681   4.937
 9221TIP3    H227605   3.642   0.740   5.073
 9222TIP3   OH227606   7.848   7.057   5.640
 9222TIP3    H127607   7.900   7.090   5.714
 9222TIP3    H227608   7.825   7.135   5.590
 9223TIP3   OH227609   0.194   5.042   0.141
 9223TIP3    H127610   0.197   5.114   0.204
 9223TIP3    H227611   0.233   5.079   0.062
 9224TIP3   OH227612   0.952   5.997   4.059
 9224TIP3    H127613   1.009   6.072   4.040
 9224TIP3    H227614   1.012   5.929   4.090
 9225TIP3   OH227615   1.764   5.890   2.517
 9225TIP3    H127616   1.793   5.921   2.603
 9225TIP3    H227617   1.708   5.960   2.484
 9226TIP3   OH227618   6.814   0.213   3.149
 9226TIP3    H127619   6.786   0.296   3.187
 9226TIP3    H227620   6.749   0.194   3.081
 9227TIP3   OH227621   1.572   6.794   1.106
 9227TIP3    H127622   1.648   6.811   1.049
 9227TIP3    H227623   1.550   6.880   1.142
 9228TIP3   OH227624   2.619   5.553   0.909
 9228TIP3    H127625   2.695   5.495   0.907
 9228TIP3    H227626   2.547   5.497   0.939
 9229TIP3   OH227627   7.944   1.384   0.614
 9229TIP3    H127628   7.959   1.457   0.674
 9229TIP3    H227629   8.020   1.327   0.626
 9230TIP3   OH227630   6.671   6.935   2.844
 9230TIP3    H127631   6.679   6.964   2.753
 9230TIP3    H227632   6.749   6.970   2.887
 9231TIP3   OH227633   0.068   4.013   4.262
 9231TIP3    H127634   0.072   4.063   4.180
 9231TIP3    H227635   0.158   4.016   4.296
 9232TIP3   OH227636   0.084   2.092   4.341
 9232TIP3    H127637   0.099   1.999   4.360
 9232TIP3    H227638   0.053   2.093   4.250
 9233TIP3   OH227639   2.227   5.909   2.943
 9233TIP3    H127640   2.154   5.969   2.930
 9233TIP3    H227641   2.294   5.939   2.881
 9234TIP3   OH227642   8.174   5.216   4.773
 9234TIP3    H127643   8.234   5.169   4.715
 9234TIP3    H227644   8.227   5.242   4.848
 9235TIP3   OH227645   2.789   3.379   5.548
 9235TIP3    H127646   2.862   3.407   5.492
 9235TIP3    H227647   2.719   3.359   5.486
 9236TIP3   OH227648   4.142   0.458   5.495
 9236TIP3    H127649   4.165   0.453   5.588
 9236TIP3    H227650   4.224   0.484   5.452
 9237TIP3   OH227651   0.311   5.717   3.339
 9237TIP3    H127652   0.353   5.761   3.413
 9237TIP3    H227653   0.342   5.626   3.345
 9238TIP3   OH227654   0.484   7.534   4.195
 9238TIP3    H127655   0.407   7.539   4.138
 9238TIP3    H227656   0.509   7.625   4.210
 9239TIP3   OH227657   1.902   0.140   2.421
 9239TIP3    H127658   1.807   0.145   2.430
 9239TIP3    H227659   1.934   0.130   2.511
 9240TIP3   OH227660   5.143   6.615   6.480
 9240TIP3    H127661   5.136   6.590   6.573
 9240TIP3    H227662   5.212   6.681   6.478
 9241TIP3   OH227663   5.478   6.640   3.578
 9241TIP3    H127664   5.441   6.642   3.490
 9241TIP3    H227665   5.412   6.595   3.631
 9242TIP3   OH227666   3.677   5.664   0.843
 9242TIP3    H127667   3.702   5.575   0.820
 9242TIP3    H227668   3.742   5.691   0.908
 9243TIP3   OH227669   2.144   3.180   5.810
 9243TIP3    H127670   2.183   3.110   5.862
 9243TIP3    H227671   2.097   3.135   5.740
 9244TIP3   OH227672   6.109   1.215   2.815
 9244TIP3    H127673   6.145   1.129   2.839
 9244TIP3    H227674   6.116   1.218   2.719
 9245TIP3   OH227675   7.616   5.038   5.595
 9245TIP3    H127676   7.531   5.008   5.628
 9245TIP3    H227677   7.666   5.059   5.674
 9246TIP3   OH227678   2.107   0.217   3.870
 9246TIP3    H127679   2.029   0.204   3.924
 9246TIP3    H227680   2.180   0.197   3.929
 9247TIP3   OH227681   2.501   0.445   4.497
 9247TIP3    H127682   2.580   0.493   4.474
 9247TIP3    H227683   2.432   0.511   4.498
 9248TIP3   OH227684   4.835   0.945   1.298
 9248TIP3    H127685   4.916   0.913   1.338
 9248TIP3    H227686   4.776   0.869   1.299
 9249TIP3   OH227687   1.339   7.123   2.377
 9249TIP3    H127688   1.310   7.160   2.460
 9249TIP3    H227689   1.421   7.078   2.397
 9250TIP3   OH227690   4.546   4.124   6.504
 9250TIP3    H127691   4.469   4.068   6.495
 9250TIP3    H227692   4.585   4.125   6.416
 9251TIP3   OH227693   6.548   3.621   0.705
 9251TIP3    H127694   6.546   3.717   0.706
 9251TIP3    H227695   6.458   3.595   0.688
 9252TIP3   OH227696   3.140   5.209   4.834
 9252TIP3    H127697   3.085   5.192   4.758
 9252TIP3    H227698   3.086   5.262   4.892
 9253TIP3   OH227699   0.927   6.051   4.966
 9253TIP3    H127700   1.020   6.059   4.984
 9253TIP3    H227701   0.908   5.957   4.975
 9254TIP3   OH227702   0.874   6.511   0.938
 9254TIP3    H127703   0.889   6.593   0.891
 9254TIP3    H227704   0.960   6.469   0.940
 9255TIP3   OH227705   0.055   1.981   4.640
 9255TIP3    H127706   0.078   2.065   4.680
 9255TIP3    H227707  -0.011   2.003   4.574
 9256TIP3   OH227708   2.545   2.956   4.246
 9256TIP3    H127709   2.578   2.901   4.175
 9256TIP3    H227710   2.612   3.022   4.258
 9257TIP3   OH227711   4.123   3.409   1.000
 9257TIP3    H127712   4.189   3.393   1.067
 9257TIP3    H227713   4.065   3.332   1.005
 9258TIP3   OH227714   7.036   7.451   4.583
 9258TIP3    H127715   6.999   7.400   4.510
 9258TIP3    H227716   7.017   7.542   4.561
 9259TIP3   OH227717   1.086   0.382   5.334
 9259TIP3    H127718   1.154   0.358   5.397
 9259TIP3    H227719   1.009   0.397   5.388
 9260TIP3   OH227720   5.021   0.182   6.545
 9260TIP3    H127721   4.976   0.105   6.579
 9260TIP3    H227722   5.097   0.147   6.498
 9261TIP3   OH227723   5.478   6.973   3.041
 9261TIP3    H127724   5.497   6.969   3.135
 9261TIP3    H227725   5.561   6.997   3.001
 9262TIP3   OH227726   2.707   0.937   1.197
 9262TIP3    H127727   2.704   0.853   1.150
 9262TIP3    H227728   2.797   0.944   1.228
 9263TIP3   OH227729   2.665   5.286   2.279
 9263TIP3    H127730   2.591   5.296   2.219
 9263TIP3    H227731   2.633   5.228   2.348
 9264TIP3   OH227732   5.084   4.332   4.747
 9264TIP3    H127733   5.140   4.263   4.782
 9264TIP3    H227734   5.076   4.395   4.819
 9265TIP3   OH227735   5.129   6.902   4.790
 9265TIP3    H127736   5.110   6.883   4.882
 9265TIP3    H227737   5.093   6.990   4.776
 9266TIP3   OH227738   7.846   2.991   2.487
 9266TIP3    H127739   7.904   2.959   2.557
 9266TIP3    H227740   7.818   3.077   2.517
 9267TIP3   OH227741   0.529   1.404   1.402
 9267TIP3    H127742   0.496   1.319   1.372
 9267TIP3    H227743   0.512   1.404   1.496
 9268TIP3   OH227744   4.907   1.164   5.571
 9268TIP3    H127745   4.985   1.186   5.520
 9268TIP3    H227746   4.924   1.203   5.657
 9269TIP3   OH227747   3.593   6.927   3.907
 9269TIP3    H127748   3.637   7.011   3.922
 9269TIP3    H227749   3.546   6.910   3.988
 9270TIP3   OH227750   7.370   0.523   0.682
 9270TIP3    H127751   7.339   0.610   0.656
 9270TIP3    H227752   7.291   0.470   0.686
 9271TIP3   OH227753   5.414   4.815   3.033
 9271TIP3    H127754   5.333   4.764   3.029
 9271TIP3    H227755   5.483   4.751   3.049
 9272TIP3   OH227756   5.372   0.371   4.269
 9272TIP3    H127757   5.311   0.342   4.202
 9272TIP3    H227758   5.329   0.350   4.352
 9273TIP3   OH227759   3.784   1.413   4.593
 9273TIP3    H127760   3.826   1.353   4.655
 9273TIP3    H227761   3.693   1.383   4.591
 9274TIP3   OH227762   7.861   5.869   1.474
 9274TIP3    H127763   7.783   5.860   1.528
 9274TIP3    H227764   7.829   5.911   1.393
 9275TIP3   OH227765   5.633   0.506   5.073
 9275TIP3    H127766   5.671   0.592   5.089
 9275TIP3    H227767   5.581   0.487   5.151
 9276TIP3   OH227768   1.287   4.254   2.995
 9276TIP3    H127769   1.214   4.295   2.949
 9276TIP3    H227770   1.354   4.243   2.927
 9277TIP3   OH227771   3.469   2.684   3.336
 9277TIP3    H127772   3.552   2.652   3.300
 9277TIP3    H227773   3.450   2.763   3.285
 9278TIP3   OH227774   1.283   0.825   1.645
 9278TIP3    H127775   1.297   0.872   1.727
 9278TIP3    H227776   1.350   0.860   1.586
 9279TIP3   OH227777   1.857   7.644   3.573
 9279TIP3    H127778   1.948   7.659   3.548
 9279TIP3    H227779   1.843   7.551   3.554
 9280TIP3   OH227780   2.717   7.900   4.375
 9280TIP3    H127781   2.791   7.949   4.409
 9280TIP3    H227782   2.679   7.856   4.451
 9281TIP3   OH227783   5.863   0.489   1.294
 9281TIP3    H127784   5.775   0.526   1.300
 9281TIP3    H227785   5.920   0.557   1.328
 9282TIP3   OH227786   6.068   4.969   6.550
 9282TIP3    H127787   6.159   4.992   6.535
 9282TIP3    H227788   6.056   4.887   6.502
 9283TIP3   OH227789   7.893   5.839   5.900
 9283TIP3    H127790   7.931   5.752   5.888
 9283TIP3    H227791   7.811   5.823   5.947
 9284TIP3   OH227792   1.791   5.423   1.594
 9284TIP3    H127793   1.739   5.433   1.673
 9284TIP3    H227794   1.764   5.495   1.537
 9285TIP3   OH227795   5.562   3.297   4.597
 9285TIP3    H127796   5.646   3.307   4.553
 9285TIP3    H227797   5.511   3.241   4.538
 9286TIP3   OH227798   2.608   5.090   5.355
 9286TIP3    H127799   2.557   5.167   5.382
 9286TIP3    H227800   2.698   5.121   5.351
 9287TIP3   OH227801   0.847   6.451   1.229
 9287TIP3    H127802   0.783   6.406   1.175
 9287TIP3    H227803   0.809   6.537   1.246
 9288TIP3   OH227804   5.709   1.870   2.613
 9288TIP3    H127805   5.769   1.818   2.560
 9288TIP3    H227806   5.756   1.953   2.627
 9289TIP3   OH227807   0.999   5.620   1.863
 9289TIP3    H127808   1.007   5.547   1.925
 9289TIP3    H227809   0.929   5.593   1.804
 9290TIP3   OH227810   1.241   6.603   1.660
 9290TIP3    H127811   1.296   6.534   1.623
 9290TIP3    H227812   1.188   6.633   1.586
 9291TIP3   OH227813   2.561   0.999   6.642
 9291TIP3    H127814   2.653   0.991   6.618
 9291TIP3    H227815   2.549   1.092   6.663
 9292TIP3   OH227816   4.336   0.094   2.751
 9292TIP3    H127817   4.383   0.014   2.775
 9292TIP3    H227818   4.349   0.152   2.826
 9293TIP3   OH227819   2.365   0.218   4.567
 9293TIP3    H127820   2.424   0.279   4.523
 9293TIP3    H227821   2.356   0.253   4.656
 9294TIP3   OH227822   0.569   0.990   3.079
 9294TIP3    H127823   0.642   0.937   3.046
 9294TIP3    H227824   0.532   1.031   3.002
 9295TIP3   OH227825   8.013   6.773   3.357
 9295TIP3    H127826   7.925   6.737   3.372
 9295TIP3    H227827   7.998   6.865   3.334
 9296TIP3   OH227828   4.611   6.422   2.742
 9296TIP3    H127829   4.568   6.496   2.700
 9296TIP3    H227830   4.700   6.452   2.759
 9297TIP3   OH227831   1.656   6.995   0.379
 9297TIP3    H127832   1.671   6.907   0.344
 9297TIP3    H227833   1.679   7.054   0.307
 9298TIP3   OH227834   5.737   6.537   3.907
 9298TIP3    H127835   5.818   6.493   3.934
 9298TIP3    H227836   5.677   6.466   3.887
 9299TIP3   OH227837   1.906   2.518   6.786
 9299TIP3    H127838   1.915   2.613   6.798
 9299TIP3    H227839   1.955   2.500   6.706
 9300TIP3   OH227840   3.917   0.375   1.121
 9300TIP3    H127841   3.937   0.456   1.076
 9300TIP3    H227842   3.840   0.340   1.076
 9301TIP3   OH227843   0.688   1.761   3.112
 9301TIP3    H127844   0.745   1.828   3.150
 9301TIP3    H227845   0.672   1.700   3.185
 9302TIP3   OH227846   7.581   4.959   2.478
 9302TIP3    H127847   7.669   4.923   2.468
 9302TIP3    H227848   7.551   4.927   2.563
 9303TIP3   OH227849   7.868   3.988   6.612
 9303TIP3    H127850   7.938   4.052   6.601
 9303TIP3    H227851   7.806   4.031   6.672
 9304TIP3   OH227852   2.763   6.439   3.914
 9304TIP3    H127853   2.797   6.520   3.876
 9304TIP3    H227854   2.795   6.370   3.855
 9305TIP3   OH227855   5.843   1.137   5.061
 9305TIP3    H127856   5.887   1.080   5.124
 9305TIP3    H227857   5.857   1.095   4.977
 9306TIP3   OH227858   0.370   7.325   5.250
 9306TIP3    H127859   0.462   7.338   5.226
 9306TIP3    H227860   0.332   7.413   5.249
 9307TIP3   OH227861   1.076   6.878   1.064
 9307TIP3    H127862   1.163   6.917   1.056
 9307TIP3    H227863   1.092   6.784   1.064
 9308TIP3   OH227864   0.482   3.151   6.042
 9308TIP3    H127865   0.427   3.114   6.111
 9308TIP3    H227866   0.500   3.078   5.984
 9309TIP3   OH227867   0.186   5.099   1.211
 9309TIP3    H127868   0.187   5.074   1.303
 9309TIP3    H227869   0.118   5.167   1.206
 9310TIP3   OH227870   3.453   5.755   1.878
 9310TIP3    H127871   3.459   5.670   1.833
 9310TIP3    H227872   3.460   5.734   1.971
 9311TIP3   OH227873   8.074   2.982   3.973
 9311TIP3    H127874   8.077   2.983   4.068
 9311TIP3    H227875   8.112   2.897   3.948
 9312TIP3   OH227876   4.137   5.957   3.223
 9312TIP3    H127877   4.213   5.923   3.271
 9312TIP3    H227878   4.126   5.895   3.151
 9313TIP3   OH227879   7.519   6.233   6.655
 9313TIP3    H127880   7.461   6.193   6.719
 9313TIP3    H227881   7.511   6.178   6.577
 9314TIP3   OH227882   7.200   4.990   0.679
 9314TIP3    H127883   7.230   4.911   0.724
 9314TIP3    H227884   7.191   4.963   0.587
 9315TIP3   OH227885   3.038   2.076   0.048
 9315TIP3    H127886   3.106   2.052   0.112
 9315TIP3    H227887   2.972   2.121   0.100
 9316TIP3   OH227888   4.149   4.832   2.661
 9316TIP3    H127889   4.158   4.875   2.746
 9316TIP3    H227890   4.138   4.904   2.599
 9317TIP3   OH227891   0.935   0.711   3.783
 9317TIP3    H127892   0.979   0.757   3.711
 9317TIP3    H227893   0.879   0.777   3.823
 9318TIP3   OH227894   0.353   4.053   4.613
 9318TIP3    H127895   0.314   4.140   4.621
 9318TIP3    H227896   0.437   4.060   4.659
 9319TIP3   OH227897   2.036   7.128   4.538
 9319TIP3    H127898   1.967   7.094   4.595
 9319TIP3    H227899   2.074   7.201   4.585
 9320TIP3   OH227900   1.593   1.433   2.609
 9320TIP3    H127901   1.540   1.399   2.537
 9320TIP3    H227902   1.535   1.493   2.655
 9321TIP3   OH227903   6.119   1.773   5.440
 9321TIP3    H127904   6.205   1.814   5.437
 9321TIP3    H227905   6.123   1.711   5.513
 9322TIP3   OH227906   1.270   1.046   5.403
 9322TIP3    H127907   1.275   0.954   5.376
 9322TIP3    H227908   1.355   1.083   5.377
 9323TIP3   OH227909   1.415   5.293   0.433
 9323TIP3    H127910   1.334   5.243   0.449
 9323TIP3    H227911   1.484   5.227   0.437
 9324TIP3   OH227912   4.279   1.836   0.427
 9324TIP3    H127913   4.203   1.866   0.477
 9324TIP3    H227914   4.277   1.741   0.434
 9325TIP3   OH227915   4.416   2.757   0.625
 9325TIP3    H127916   4.342   2.759   0.685
 9325TIP3    H227917   4.432   2.848   0.602
 9326TIP3   OH227918   5.255   6.757   5.645
 9326TIP3    H127919   5.227   6.666   5.659
 9326TIP3    H227920   5.207   6.808   5.710
 9327TIP3   OH227921   5.267   7.622   5.181
 9327TIP3    H127922   5.360   7.597   5.186
 9327TIP3    H227923   5.263   7.685   5.109
 9328TIP3   OH227924   1.277   2.795   1.330
 9328TIP3    H127925   1.341   2.774   1.399
 9328TIP3    H227926   1.207   2.731   1.342
 9329TIP3   OH227927   7.390   6.292   1.735
 9329TIP3    H127928   7.447   6.326   1.804
 9329TIP3    H227929   7.379   6.366   1.675
 9330TIP3   OH227930   1.419   7.725   5.644
 9330TIP3    H127931   1.449   7.711   5.554
 9330TIP3    H227932   1.385   7.815   5.644
 9331TIP3   OH227933   2.165   5.033   1.841
 9331TIP3    H127934   2.079   5.076   1.838
 9331TIP3    H227935   2.146   4.944   1.870
 9332TIP3   OH227936   4.415   4.212   2.404
 9332TIP3    H127937   4.338   4.262   2.376
 9332TIP3    H227938   4.420   4.139   2.342
 9333TIP3   OH227939   2.498   0.770   3.134
 9333TIP3    H127940   2.429   0.836   3.142
 9333TIP3    H227941   2.522   0.773   3.042
 9334TIP3   OH227942   2.183   2.518   2.249
 9334TIP3    H127943   2.109   2.571   2.278
 9334TIP3    H227944   2.196   2.455   2.320
 9335TIP3   OH227945   0.417   5.078   2.003
 9335TIP3    H127946   0.402   5.017   2.076
 9335TIP3    H227947   0.511   5.098   2.007
 9336TIP3   OH227948   6.598   1.709   1.267
 9336TIP3    H127949   6.597   1.693   1.173
 9336TIP3    H227950   6.641   1.632   1.304
 9337TIP3   OH227951   4.743   4.323   6.060
 9337TIP3    H127952   4.736   4.376   5.981
 9337TIP3    H227953   4.676   4.255   6.049
 9338TIP3   OH227954   2.826   1.494   2.114
 9338TIP3    H127955   2.890   1.536   2.171
 9338TIP3    H227956   2.854   1.402   2.110
 9339TIP3   OH227957   3.741   3.420   6.403
 9339TIP3    H127958   3.794   3.500   6.403
 9339TIP3    H227959   3.776   3.367   6.332
 9340TIP3   OH227960   4.313   3.216   3.579
 9340TIP3    H127961   4.397   3.210   3.533
 9340TIP3    H227962   4.250   3.243   3.513
 9341TIP3   OH227963   0.931   4.373   4.982
 9341TIP3    H127964   0.888   4.373   5.067
 9341TIP3    H227965   0.937   4.281   4.958
 9342TIP3   OH227966   0.999   5.322   6.168
 9342TIP3    H127967   0.992   5.266   6.091
 9342TIP3    H227968   0.969   5.408   6.139
 9343TIP3   OH227969   4.031   6.855   4.002
 9343TIP3    H127970   4.093   6.827   3.935
 9343TIP3    H227971   4.019   6.949   3.988
 9344TIP3   OH227972   5.957   3.711   5.022
 9344TIP3    H127973   5.901   3.743   4.952
 9344TIP3    H227974   6.020   3.781   5.037
 9345TIP3   OH227975   7.458   4.133   4.616
 9345TIP3    H127976   7.474   4.085   4.535
 9345TIP3    H227977   7.428   4.066   4.678
 9346TIP3   OH227978   5.157   7.383   5.271
 9346TIP3    H127979   5.195   7.467   5.244
 9346TIP3    H227980   5.175   7.324   5.199
 9347TIP3   OH227981   7.386   2.048   2.623
 9347TIP3    H127982   7.312   2.107   2.617
 9347TIP3    H227983   7.404   2.042   2.717
 9348TIP3   OH227984   5.396   7.930   6.487
 9348TIP3    H127985   5.325   7.945   6.549
 9348TIP3    H227986   5.353   7.926   6.401
 9349TIP3   OH227987   2.448   4.406   1.733
 9349TIP3    H127988   2.408   4.397   1.819
 9349TIP3    H227989   2.493   4.323   1.719
 9350TIP3   OH227990   7.350   5.640   1.988
 9350TIP3    H127991   7.297   5.693   1.929
 9350TIP3    H227992   7.331   5.550   1.963
 9351TIP3   OH227993   5.923   1.322   5.705
 9351TIP3    H127994   5.953   1.241   5.747
 9351TIP3    H227995   5.837   1.338   5.744
 9352TIP3   OH227996   2.880   6.503   0.176
 9352TIP3    H127997   2.871   6.412   0.148
 9352TIP3    H227998   2.790   6.535   0.185
 9353TIP3   OH227999   1.074   6.797   3.804
 9353TIP3    H128000   1.158   6.838   3.824
 9353TIP3    H228001   1.063   6.809   3.710
 9354TIP3   OH228002   5.798   7.591   4.762
 9354TIP3    H128003   5.803   7.639   4.680
 9354TIP3    H228004   5.813   7.499   4.737
 9355TIP3   OH228005   1.664   5.108   2.418
 9355TIP3    H128006   1.584   5.057   2.404
 9355TIP3    H228007   1.710   5.063   2.489
 9356TIP3   OH228008   3.420   1.037   0.362
 9356TIP3    H128009   3.394   0.977   0.432
 9356TIP3    H228010   3.515   1.028   0.356
 9357TIP3   OH228011   3.375   6.050   4.980
 9357TIP3    H128012   3.397   6.015   5.067
 9357TIP3    H228013   3.449   6.105   4.956
 9358TIP3   OH228014   1.508   4.781   0.668
 9358TIP3    H128015   1.518   4.854   0.607
 9358TIP3    H228016   1.458   4.817   0.741
 9359TIP3   OH228017   6.132   0.560   5.018
 9359TIP3    H128018   6.046   0.551   4.976
 9359TIP3    H228019   6.181   0.618   4.959
 9360TIP3   OH228020   2.697   4.537   2.278
 9360TIP3    H128021   2.655   4.614   2.242
 9360TIP3    H228022   2.788   4.564   2.293
 9361TIP3   OH228023   7.574   7.345   0.386
 9361TIP3    H128024   7.492   7.320   0.344
 9361TIP3    H228025   7.642   7.321   0.322
 9362TIP3   OH228026   1.488   5.475   2.358
 9362TIP3    H128027   1.392   5.468   2.357
 9362TIP3    H228028   1.515   5.435   2.275
 9363TIP3   OH228029   7.596   4.557   0.413
 9363TIP3    H128030   7.571   4.558   0.320
 9363TIP3    H228031   7.675   4.610   0.417
 9364TIP3   OH228032   5.675   1.904   0.381
 9364TIP3    H128033   5.665   1.888   0.475
 9364TIP3    H228034   5.585   1.916   0.349
 9365TIP3   OH228035   7.108   0.696   3.280
 9365TIP3    H128036   7.172   0.764   3.256
 9365TIP3    H228037   7.033   0.714   3.224
 9366TIP3   OH228038   6.114   7.636   3.348
 9366TIP3    H128039   6.046   7.573   3.372
 9366TIP3    H228040   6.066   7.714   3.321
 9367TIP3   OH228041   4.845   4.583   1.294
 9367TIP3    H128042   4.911   4.641   1.256
 9367TIP3    H228043   4.766   4.601   1.242
 9368TIP3   OH228044   1.728   4.220   6.132
 9368TIP3    H128045   1.659   4.252   6.190
 9368TIP3    H228046   1.808   4.224   6.185
 9369TIP3   OH228047   1.311   3.194   3.157
 9369TIP3    H128048   1.224   3.207   3.120
 9369TIP3    H228049   1.302   3.116   3.213
 9370TIP3   OH228050   4.567   4.453   4.274
 9370TIP3    H128051   4.605   4.390   4.336
 9370TIP3    H228052   4.479   4.469   4.307
 9371TIP3   OH228053   4.544   1.893   1.545
 9371TIP3    H128054   4.578   1.981   1.564
 9371TIP3    H228055   4.516   1.897   1.454
 9372TIP3   OH228056   1.119   6.616   4.974
 9372TIP3    H128057   1.107   6.671   5.051
 9372TIP3    H228058   1.031   6.596   4.944
 9373TIP3   OH228059   0.028   2.796   3.252
 9373TIP3    H128060   0.073   2.878   3.273
 9373TIP3    H228061   0.003   2.760   3.337
 9374TIP3   OH228062   5.684   4.432   1.383
 9374TIP3    H128063   5.595   4.424   1.416
 9374TIP3    H228064   5.689   4.370   1.311
 9375TIP3   OH228065   6.222   2.989   1.124
 9375TIP3    H128066   6.271   3.022   1.199
 9375TIP3    H228067   6.282   2.998   1.050
 9376TIP3   OH228068   7.715   7.794   5.474
 9376TIP3    H128069   7.761   7.711   5.486
 9376TIP3    H228070   7.637   7.772   5.422
 9377TIP3   OH228071   4.326   6.476   4.528
 9377TIP3    H128072   4.258   6.533   4.563
 9377TIP3    H228073   4.286   6.435   4.452
 9378TIP3   OH228074   4.168   5.396   5.729
 9378TIP3    H128075   4.133   5.373   5.815
 9378TIP3    H228076   4.222   5.321   5.704
 9379TIP3   OH228077   1.027   3.446   5.715
 9379TIP3    H128078   1.074   3.432   5.797
 9379TIP3    H228079   0.970   3.370   5.707
 9380TIP3   OH228080   0.125   2.690   2.393
 9380TIP3    H128081   0.057   2.756   2.387
 9380TIP3    H228082   0.121   2.645   2.309
 9381TIP3   OH228083   1.654   2.027   5.516
 9381TIP3    H128084   1.608   2.100   5.557
 9381TIP3    H228085   1.715   1.997   5.583
 9382TIP3   OH228086   4.817   7.478   2.198
 9382TIP3    H128087   4.755   7.480   2.125
 9382TIP3    H228088   4.764   7.496   2.275
 9383TIP3   OH228089   5.250   7.028   4.174
 9383TIP3    H128090   5.269   7.029   4.268
 9383TIP3    H228091   5.162   6.990   4.167
 9384TIP3   OH228092   7.395   7.561   6.037
 9384TIP3    H128093   7.342   7.574   5.958
 9384TIP3    H228094   7.389   7.467   6.054
 9385TIP3   OH228095   3.047   6.627   3.175
 9385TIP3    H128096   2.960   6.628   3.135
 9385TIP3    H228097   3.100   6.572   3.118
 9386TIP3   OH228098   7.628   3.398   3.162
 9386TIP3    H128099   7.664   3.339   3.095
 9386TIP3    H228100   7.687   3.473   3.162
 9387TIP3   OH228101   5.435   0.776   5.951
 9387TIP3    H128102   5.385   0.767   5.870
 9387TIP3    H228103   5.472   0.864   5.946
 9388TIP3   OH228104   1.310   4.882   4.719
 9388TIP3    H128105   1.289   4.876   4.812
 9388TIP3    H228106   1.236   4.929   4.680
 9389TIP3   OH228107   3.009   1.281   2.101
 9389TIP3    H128108   3.009   1.197   2.147
 9389TIP3    H228109   3.097   1.314   2.112
 9390TIP3   OH228110   2.975   4.337   6.305
 9390TIP3    H128111   3.046   4.279   6.332
 9390TIP3    H228112   2.895   4.289   6.326
 9391TIP3   OH228113   8.043   3.336   0.250
 9391TIP3    H128114   8.029   3.425   0.220
 9391TIP3    H228115   8.117   3.341   0.309
 9392TIP3   OH228116   1.042   0.384   3.688
 9392TIP3    H128117   1.040   0.478   3.703
 9392TIP3    H228118   1.012   0.374   3.597
 9393TIP3   OH228119   3.906   6.933   6.574
 9393TIP3    H128120   3.939   6.963   6.658
 9393TIP3    H228121   3.813   6.915   6.590
 9394TIP3   OH228122   7.322   4.962   5.737
 9394TIP3    H128123   7.235   4.982   5.702
 9394TIP3    H228124   7.352   4.888   5.684
 9395TIP3   OH228125   3.786   7.720   6.179
 9395TIP3    H128126   3.881   7.719   6.165
 9395TIP3    H228127   3.775   7.703   6.272
 9396TIP3   OH228128   1.888   5.404   4.342
 9396TIP3    H128129   1.871   5.330   4.401
 9396TIP3    H228130   1.819   5.467   4.361
 9397TIP3   OH228131   5.677   6.252   4.100
 9397TIP3    H128132   5.698   6.324   4.160
 9397TIP3    H228133   5.581   6.246   4.103
 9398TIP3   OH228134   4.198   5.012   0.087
 9398TIP3    H128135   4.206   4.961   0.006
 9398TIP3    H228136   4.121   5.068   0.073
 9399TIP3   OH228137   0.882   0.363   5.549
 9399TIP3    H128138   0.820   0.375   5.621
 9399TIP3    H228139   0.897   0.269   5.545
 9400TIP3   OH228140   2.120   0.884   2.450
 9400TIP3    H128141   2.170   0.965   2.455
 9400TIP3    H228142   2.181   0.815   2.475
 9401TIP3   OH228143   4.892   5.060   6.181
 9401TIP3    H128144   4.872   4.996   6.249
 9401TIP3    H228145   4.955   5.120   6.221
 9402TIP3   OH228146   4.084   5.248   3.593
 9402TIP3    H128147   4.119   5.252   3.682
 9402TIP3    H228148   4.019   5.178   3.596
 9403TIP3   OH228149   3.275   4.259   0.945
 9403TIP3    H128150   3.348   4.204   0.973
 9403TIP3    H228151   3.261   4.319   1.019
 9404TIP3   OH228152   0.645   1.335   0.595
 9404TIP3    H128153   0.631   1.429   0.607
 9404TIP3    H228154   0.565   1.304   0.553
 9405TIP3   OH228155   1.268   4.263   4.568
 9405TIP3    H128156   1.258   4.203   4.494
 9405TIP3    H228157   1.183   4.307   4.575
 9406TIP3   OH228158  -0.021   4.908   2.046
 9406TIP3    H128159   0.061   4.958   2.044
 9406TIP3    H228160  -0.085   4.964   2.003
 9407TIP3   OH228161   5.737   6.400   4.335
 9407TIP3    H128162   5.830   6.384   4.354
 9407TIP3    H228163   5.720   6.487   4.370
 9408TIP3   OH228164   5.984   4.440   3.769
 9408TIP3    H128165   6.007   4.396   3.687
 9408TIP3    H228166   5.993   4.372   3.835
 9409TIP3   OH228167   7.670   1.287   2.476
 9409TIP3    H128168   7.627   1.213   2.517
 9409TIP3    H228169   7.599   1.342   2.443
 9410TIP3   OH228170   3.639   7.308   1.272
 9410TIP3    H128171   3.726   7.330   1.305
 9410TIP3    H228172   3.629   7.363   1.194
 9411TIP3   OH228173   4.941   6.188   4.860
 9411TIP3    H128174   4.937   6.268   4.913
 9411TIP3    H228175   5.030   6.187   4.825
 9412TIP3   OH228176   5.117   4.714   0.191
 9412TIP3    H128177   5.050   4.692   0.126
 9412TIP3    H228178   5.101   4.653   0.263
 9413TIP3   OH228179   6.773   7.800   4.920
 9413TIP3    H128180   6.835   7.854   4.871
 9413TIP3    H228181   6.689   7.815   4.877
 9414TIP3   OH228182   4.890   7.296   3.690
 9414TIP3    H128183   4.833   7.234   3.647
 9414TIP3    H228184   4.974   7.287   3.645
 9415TIP3   OH228185   0.682   1.922   0.874
 9415TIP3    H128186   0.751   1.876   0.826
 9415TIP3    H228187   0.603   1.910   0.820
 9416TIP3   OH228188   6.326   3.853   0.320
 9416TIP3    H128189   6.338   3.935   0.367
 9416TIP3    H228190   6.400   3.799   0.346
 9417TIP3   OH228191   0.778   3.812   0.140
 9417TIP3    H128192   0.848   3.765   0.094
 9417TIP3    H228193   0.776   3.773   0.227
 9418TIP3   OH228194   1.011   1.869   3.040
 9418TIP3    H128195   1.062   1.846   2.962
 9418TIP3    H228196   0.928   1.901   3.006
 9419TIP3   OH228197   6.406   3.185   4.805
 9419TIP3    H128198   6.421   3.192   4.899
 9419TIP3    H228199   6.433   3.270   4.770
 9420TIP3   OH228200   7.854   7.786   6.560
 9420TIP3    H128201   7.806   7.721   6.611
 9420TIP3    H228202   7.899   7.839   6.625
 9421TIP3   OH228203   4.882   7.703   1.146
 9421TIP3    H128204   4.860   7.712   1.053
 9421TIP3    H228205   4.797   7.706   1.191
 9422TIP3   OH228206   1.384   6.085   5.647
 9422TIP3    H128207   1.404   6.006   5.597
 9422TIP3    H228208   1.445   6.083   5.720
 9423TIP3   OH228209   7.666   4.732   6.007
 9423TIP3    H128210   7.719   4.711   5.930
 9423TIP3    H228211   7.575   4.724   5.975
 9424TIP3   OH228212   8.378   4.755   2.767
 9424TIP3    H128213   8.411   4.665   2.768
 9424TIP3    H228214   8.286   4.746   2.790
 9425TIP3   OH228215   5.410   7.361   6.490
 9425TIP3    H128216   5.425   7.455   6.499
 9425TIP3    H228217   5.322   7.347   6.525
 9426TIP3   OH228218   0.613   6.388   4.446
 9426TIP3    H128219   0.559   6.332   4.502
 9426TIP3    H228220   0.669   6.327   4.398
 9427TIP3   OH228221   0.170   3.289   5.083
 9427TIP3    H128222   0.084   3.330   5.080
 9427TIP3    H228223   0.225   3.352   5.130
 9428TIP3   OH228224   4.048   7.003   0.141
 9428TIP3    H128225   4.057   7.088   0.184
 9428TIP3    H228226   4.136   6.965   0.144
 9429TIP3   OH228227   5.562   0.557   2.654
 9429TIP3    H128228   5.609   0.633   2.686
 9429TIP3    H228229   5.569   0.493   2.725
 9430TIP3   OH228230   0.367   6.275   6.226
 9430TIP3    H128231   0.397   6.365   6.238
 9430TIP3    H228232   0.415   6.224   6.291
 9431TIP3   OH228233   5.906   6.858   2.521
 9431TIP3    H128234   5.877   6.932   2.467
 9431TIP3    H228235   5.838   6.792   2.509
 9432TIP3   OH228236   3.826   1.829   6.441
 9432TIP3    H128237   3.805   1.826   6.535
 9432TIP3    H228238   3.906   1.778   6.433
 9433TIP3   OH228239   4.329   5.989   6.069
 9433TIP3    H128240   4.311   6.027   6.155
 9433TIP3    H228241   4.244   5.992   6.024
 9434TIP3   OH228242   6.859   4.917   4.537
 9434TIP3    H128243   6.826   4.834   4.502
 9434TIP3    H228244   6.948   4.923   4.502
 9435TIP3   OH228245   2.223   0.904   5.199
 9435TIP3    H128246   2.256   0.994   5.205
 9435TIP3    H228247   2.293   0.851   5.237
 9436TIP3   OH228248   0.418   3.868   4.033
 9436TIP3    H128249   0.350   3.816   3.989
 9436TIP3    H228250   0.369   3.939   4.076
 9437TIP3   OH228251   4.189   3.178   2.102
 9437TIP3    H128252   4.181   3.082   2.094
 9437TIP3    H228253   4.283   3.194   2.104
 9438TIP3   OH228254   5.301   3.888   5.403
 9438TIP3    H128255   5.244   3.813   5.386
 9438TIP3    H228256   5.386   3.861   5.368
 9439TIP3   OH228257   7.655   0.666   3.452
 9439TIP3    H128258   7.656   0.636   3.361
 9439TIP3    H228259   7.745   0.690   3.471
 9440TIP3   OH228260   1.912   4.241   4.512
 9440TIP3    H128261   1.960   4.208   4.587
 9440TIP3    H228262   1.832   4.279   4.549
 9441TIP3   OH228263   8.175   6.021   4.065
 9441TIP3    H128264   8.213   6.054   3.983
 9441TIP3    H228265   8.104   6.082   4.085
 9442TIP3   OH228266   1.004   5.064   4.029
 9442TIP3    H128267   0.966   4.986   4.070
 9442TIP3    H228268   1.097   5.044   4.022
 9443TIP3   OH228269   3.104   7.416   4.736
 9443TIP3    H128270   3.169   7.350   4.711
 9443TIP3    H228271   3.046   7.370   4.797
 9444TIP3   OH228272   6.225   0.626   2.678
 9444TIP3    H128273   6.316   0.641   2.651
 9444TIP3    H228274   6.224   0.535   2.708
 9445TIP3   OH228275   8.292   1.818   2.406
 9445TIP3    H128276   8.344   1.743   2.437
 9445TIP3    H228277   8.270   1.795   2.315
 9446TIP3   OH228278   7.450   0.217   1.300
 9446TIP3    H128279   7.542   0.205   1.324
 9446TIP3    H228280   7.407   0.136   1.329
 9447TIP3   OH228281   2.085   3.354   0.049
 9447TIP3    H128282   2.009   3.400   0.085
 9447TIP3    H228283   2.061   3.334  -0.041
 9448TIP3   OH228284   4.593   5.682   3.584
 9448TIP3    H128285   4.661   5.622   3.614
 9448TIP3    H228286   4.521   5.626   3.558
 9449TIP3   OH228287   3.647   5.624   3.964
 9449TIP3    H128288   3.641   5.547   4.021
 9449TIP3    H228289   3.569   5.619   3.909
 9450TIP3   OH228290   0.635   0.496   3.250
 9450TIP3    H128291   0.544   0.516   3.230
 9450TIP3    H228292   0.635   0.474   3.344
 9451TIP3   OH228293   3.112   7.197   3.001
 9451TIP3    H128294   3.140   7.133   3.065
 9451TIP3    H228295   3.089   7.275   3.052
 9452TIP3   OH228296   7.533   1.198   3.193
 9452TIP3    H128297   7.602   1.196   3.126
 9452TIP3    H228298   7.493   1.111   3.188
 9453TIP3   OH228299   3.453   7.136   1.236
 9453TIP3    H128300   3.521   7.203   1.234
 9453TIP3    H228301   3.377   7.178   1.197
 9454TIP3   OH228302   2.550   6.434   4.304
 9454TIP3    H128303   2.584   6.424   4.392
 9454TIP3    H228304   2.471   6.381   4.302
 9455TIP3   OH228305   1.227   4.925   6.619
 9455TIP3    H128306   1.278   4.856   6.661
 9455TIP3    H228307   1.275   5.006   6.639
 9456TIP3   OH228308   2.950   0.560   4.873
 9456TIP3    H128309   3.020   0.587   4.813
 9456TIP3    H228310   2.964   0.466   4.887
 9457TIP3   OH228311   6.726   3.689   6.763
 9457TIP3    H128312   6.785   3.705   6.836
 9457TIP3    H228313   6.713   3.774   6.722
 9458TIP3   OH228314   6.506   3.506   0.988
 9458TIP3    H128315   6.424   3.555   0.996
 9458TIP3    H228316   6.574   3.574   0.986
 9459TIP3   OH228317   7.141   2.315   5.809
 9459TIP3    H128318   7.100   2.292   5.725
 9459TIP3    H228319   7.122   2.242   5.866
 9460TIP3   OH228320   0.227   3.135   4.804
 9460TIP3    H128321   0.172   3.176   4.738
 9460TIP3    H228322   0.285   3.204   4.834
 9461TIP3   OH228323   1.494   5.749   6.465
 9461TIP3    H128324   1.485   5.843   6.483
 9461TIP3    H228325   1.585   5.729   6.490
 9462TIP3   OH228326   2.056   6.421   1.831
 9462TIP3    H128327   1.997   6.434   1.905
 9462TIP3    H228328   2.062   6.508   1.790
 9463TIP3   OH228329   3.472   3.343   0.246
 9463TIP3    H128330   3.554   3.293   0.243
 9463TIP3    H228331   3.437   3.327   0.333
 9464TIP3   OH228332   3.983   0.669   1.573
 9464TIP3    H128333   3.987   0.603   1.503
 9464TIP3    H228334   4.075   0.684   1.596
 9465TIP3   OH228335   4.209   6.489   0.622
 9465TIP3    H128336   4.181   6.580   0.627
 9465TIP3    H228337   4.137   6.440   0.660
 9466TIP3   OH228338   3.198   1.820   0.644
 9466TIP3    H128339   3.245   1.898   0.613
 9466TIP3    H228340   3.123   1.855   0.693
 9467TIP3   OH228341   4.523   2.205   0.321
 9467TIP3    H128342   4.517   2.137   0.388
 9467TIP3    H228343   4.517   2.288   0.370
 9468TIP3   OH228344   2.530   7.611   0.835
 9468TIP3    H128345   2.435   7.616   0.841
 9468TIP3    H228346   2.549   7.517   0.835
 9469TIP3   OH228347   4.111   1.054   1.590
 9469TIP3    H128348   4.118   1.010   1.506
 9469TIP3    H228349   4.186   1.022   1.640
 9470TIP3   OH228350   3.803   1.675   5.858
 9470TIP3    H128351   3.784   1.581   5.868
 9470TIP3    H228352   3.882   1.689   5.912
 9471TIP3   OH228353   3.082   2.525   0.257
 9471TIP3    H128354   3.119   2.460   0.318
 9471TIP3    H228355   3.142   2.600   0.264
 9472TIP3   OH228356   3.031   0.524   0.523
 9472TIP3    H128357   2.983   0.564   0.595
 9472TIP3    H228358   2.963   0.483   0.469
 9473TIP3   OH228359   5.797   6.644   3.358
 9473TIP3    H128360   5.803   6.607   3.446
 9473TIP3    H228361   5.727   6.709   3.364
 9474TIP3   OH228362   5.317   1.635   2.296
 9474TIP3    H128363   5.251   1.700   2.320
 9474TIP3    H228364   5.389   1.650   2.357
 9475TIP3   OH228365   3.275   2.258   1.188
 9475TIP3    H128366   3.216   2.226   1.120
 9475TIP3    H228367   3.346   2.194   1.189
 9476TIP3   OH228368   7.356   3.926   1.449
 9476TIP3    H128369   7.319   3.863   1.387
 9476TIP3    H228370   7.412   3.873   1.506
 9477TIP3   OH228371   0.723   0.534   5.061
 9477TIP3    H128372   0.674   0.604   5.018
 9477TIP3    H228373   0.706   0.456   5.008
 9478TIP3   OH228374   2.442   3.120   0.322
 9478TIP3    H128375   2.357   3.083   0.347
 9478TIP3    H228376   2.428   3.215   0.322
 9479TIP3   OH228377   2.096   6.407   3.430
 9479TIP3    H128378   2.039   6.437   3.359
 9479TIP3    H228379   2.185   6.423   3.399
 9480TIP3   OH228380   5.507   3.934   1.480
 9480TIP3    H128381   5.519   4.026   1.455
 9480TIP3    H228382   5.458   3.896   1.407
 9481TIP3   OH228383   0.273   6.387   1.549
 9481TIP3    H128384   0.339   6.376   1.480
 9481TIP3    H228385   0.324   6.390   1.630
 9482TIP3   OH228386   1.211   0.145   3.171
 9482TIP3    H128387   1.247   0.230   3.199
 9482TIP3    H228388   1.144   0.125   3.237
 9483TIP3   OH228389   7.820   5.389   2.828
 9483TIP3    H128390   7.915   5.384   2.831
 9483TIP3    H228391   7.791   5.298   2.816
 9484TIP3   OH228392   2.188   1.873   6.082
 9484TIP3    H128393   2.134   1.863   6.160
 9484TIP3    H228394   2.278   1.860   6.113
 9485TIP3   OH228395   7.397   6.928   4.425
 9485TIP3    H128396   7.474   6.884   4.463
 9485TIP3    H228397   7.337   6.856   4.404
 9486TIP3   OH228398   5.804   3.286   4.502
 9486TIP3    H128399   5.849   3.234   4.568
 9486TIP3    H228400   5.864   3.288   4.427
 9487TIP3   OH228401   3.313   3.362   1.644
 9487TIP3    H128402   3.243   3.427   1.633
 9487TIP3    H228403   3.267   3.279   1.654
 9488TIP3   OH228404   1.091   7.264   4.355
 9488TIP3    H128405   1.166   7.209   4.330
 9488TIP3    H228406   1.016   7.205   4.351
 9489TIP3   OH228407   2.837   7.156   3.761
 9489TIP3    H128408   2.773   7.146   3.831
 9489TIP3    H228409   2.866   7.247   3.768
 9490TIP3   OH228410   1.065   7.118   0.626
 9490TIP3    H128411   1.073   7.046   0.689
 9490TIP3    H228412   0.989   7.096   0.573
 9491TIP3   OH228413   3.186   6.627   1.723
 9491TIP3    H128414   3.275   6.603   1.749
 9491TIP3    H228415   3.195   6.712   1.681
 9492TIP3   OH228416   5.808   6.030   2.520
 9492TIP3    H128417   5.873   6.079   2.570
 9492TIP3    H228418   5.818   5.939   2.549
 9493TIP3   OH228419   5.622   7.477   1.570
 9493TIP3    H128420   5.706   7.519   1.589
 9493TIP3    H228421   5.640   7.415   1.500
 9494TIP3   OH228422   5.813   5.629   3.120
 9494TIP3    H128423   5.906   5.649   3.117
 9494TIP3    H228424   5.798   5.599   3.210
 9495TIP3   OH228425   3.858   6.511   5.866
 9495TIP3    H128426   3.840   6.417   5.877
 9495TIP3    H228427   3.930   6.514   5.802
 9496TIP3   OH228428   4.118   2.455   5.879
 9496TIP3    H128429   4.063   2.378   5.896
 9496TIP3    H228430   4.114   2.506   5.960
 9497TIP3   OH228431   4.846   7.942   2.556
 9497TIP3    H128432   4.909   7.899   2.613
 9497TIP3    H228433   4.896   7.969   2.480
 9498TIP3   OH228434   5.552   6.657   6.488
 9498TIP3    H128435   5.550   6.695   6.576
 9498TIP3    H228436   5.474   6.692   6.445
 9499TIP3   OH228437   6.171   7.862   6.463
 9499TIP3    H128438   6.210   7.776   6.476
 9499TIP3    H228439   6.241   7.914   6.422
 9500TIP3   OH228440   3.199   1.952   4.680
 9500TIP3    H128441   3.256   1.897   4.733
 9500TIP3    H228442   3.110   1.922   4.699
 9501TIP3   OH228443   1.290   5.792   2.113
 9501TIP3    H128444   1.197   5.781   2.133
 9501TIP3    H228445   1.301   5.886   2.101
 9502TIP3   OH228446   5.613   4.612   6.005
 9502TIP3    H128447   5.681   4.582   6.064
 9502TIP3    H228448   5.617   4.708   6.010
 9503TIP3   OH228449   2.678   3.214   3.126
 9503TIP3    H128450   2.758   3.166   3.107
 9503TIP3    H228451   2.646   3.175   3.207
 9504TIP3   OH228452   2.126   2.672   3.864
 9504TIP3    H128453   2.138   2.681   3.769
 9504TIP3    H228454   2.063   2.601   3.874
 9505TIP3   OH228455   8.168   1.002   6.264
 9505TIP3    H128456   8.098   1.068   6.257
 9505TIP3    H228457   8.128   0.930   6.314
 9506TIP3   OH228458   5.448   2.146   0.045
 9506TIP3    H128459   5.478   2.064   0.086
 9506TIP3    H228460   5.524   2.176  -0.005
 9507TIP3   OH228461   2.978   4.628   4.567
 9507TIP3    H128462   2.882   4.623   4.564
 9507TIP3    H228463   3.006   4.584   4.487
 9508TIP3   OH228464   4.717   7.201   0.084
 9508TIP3    H128465   4.628   7.235   0.094
 9508TIP3    H228466   4.749   7.190   0.174
 9509TIP3   OH228467   4.662   7.099   5.247
 9509TIP3    H128468   4.724   7.171   5.240
 9509TIP3    H228469   4.576   7.139   5.243
 9510TIP3   OH228470   2.149   3.281   3.744
 9510TIP3    H128471   2.156   3.194   3.704
 9510TIP3    H228472   2.213   3.279   3.815
 9511TIP3   OH228473   0.141   4.593   1.034
 9511TIP3    H128474   0.188   4.622   0.955
 9511TIP3    H228475   0.168   4.656   1.101
 9512TIP3   OH228476   6.099   2.575   2.305
 9512TIP3    H128477   6.007   2.587   2.280
 9512TIP3    H228478   6.116   2.482   2.288
 9513TIP3   OH228479   2.679   2.524   4.727
 9513TIP3    H128480   2.773   2.537   4.741
 9513TIP3    H228481   2.650   2.607   4.687
 9514TIP3   OH228482   5.061   6.357   3.136
 9514TIP3    H128483   5.039   6.407   3.215
 9514TIP3    H228484   5.124   6.411   3.090
 9515TIP3   OH228485   7.295   4.345   6.715
 9515TIP3    H128486   7.348   4.396   6.776
 9515TIP3    H228487   7.358   4.300   6.660
 9516TIP3   OH228488   7.660   4.833   3.670
 9516TIP3    H128489   7.717   4.905   3.642
 9516TIP3    H228490   7.647   4.781   3.590
 9517TIP3   OH228491   4.745   4.778   2.682
 9517TIP3    H128492   4.732   4.688   2.710
 9517TIP3    H228493   4.686   4.829   2.738
 9518TIP3   OH228494   7.725   1.230   5.781
 9518TIP3    H128495   7.739   1.150   5.729
 9518TIP3    H228496   7.789   1.224   5.852
 9519TIP3   OH228497   4.556   4.604   5.901
 9519TIP3    H128498   4.624   4.553   5.858
 9519TIP3    H228499   4.582   4.695   5.887
 9520TIP3   OH228500   8.353   0.594   6.822
 9520TIP3    H128501   8.259   0.584   6.804
 9520TIP3    H228502   8.367   0.688   6.829
 9521TIP3   OH228503   5.714   5.024   5.560
 9521TIP3    H128504   5.794   4.995   5.605
 9521TIP3    H228505   5.744   5.095   5.502
 9522TIP3   OH228506   5.983   1.844   4.468
 9522TIP3    H128507   5.959   1.752   4.459
 9522TIP3    H228508   5.947   1.870   4.553
 9523TIP3   OH228509   2.263   3.583   0.293
 9523TIP3    H128510   2.208   3.631   0.231
 9523TIP3    H228511   2.347   3.629   0.292
 9524TIP3   OH228512   3.867   7.697   2.083
 9524TIP3    H128513   3.897   7.788   2.085
 9524TIP3    H228514   3.940   7.646   2.118
 9525TIP3   OH228515   1.336   6.785   2.419
 9525TIP3    H128516   1.366   6.873   2.398
 9525TIP3    H228517   1.390   6.728   2.363
 9526TIP3   OH228518   1.401   6.317   1.820
 9526TIP3    H128519   1.490   6.308   1.784
 9526TIP3    H228520   1.355   6.239   1.789
 9527TIP3   OH228521   4.361   1.566   0.446
 9527TIP3    H128522   4.269   1.538   0.452
 9527TIP3    H228523   4.392   1.526   0.364
 9528TIP3   OH228524   3.789   1.784   2.409
 9528TIP3    H128525   3.879   1.780   2.376
 9528TIP3    H228526   3.743   1.715   2.362
 9529TIP3   OH228527   7.426   4.498   4.368
 9529TIP3    H128528   7.428   4.473   4.461
 9529TIP3    H228529   7.392   4.420   4.324
 9530TIP3   OH228530   7.826   5.275   3.975
 9530TIP3    H128531   7.882   5.232   4.040
 9530TIP3    H228532   7.870   5.258   3.891
 9531TIP3   OH228533   5.179   1.034   4.054
 9531TIP3    H128534   5.166   1.111   4.109
 9531TIP3    H228535   5.271   1.038   4.027
 9532TIP3   OH228536   2.000   2.148   5.442
 9532TIP3    H128537   2.071   2.213   5.447
 9532TIP3    H228538   1.974   2.135   5.533
 9533TIP3   OH228539   7.184   6.109   6.176
 9533TIP3    H128540   7.262   6.140   6.223
 9533TIP3    H228541   7.205   6.124   6.083
 9534TIP3   OH228542   2.745   0.860   5.822
 9534TIP3    H128543   2.738   0.873   5.728
 9534TIP3    H228544   2.828   0.814   5.834
 9535TIP3   OH228545   0.530   2.113   2.700
 9535TIP3    H128546   0.490   2.026   2.688
 9535TIP3    H228547   0.460   2.167   2.737
 9536TIP3   OH228548   8.104   6.171   6.689
 9536TIP3    H128549   8.150   6.133   6.763
 9536TIP3    H228550   8.173   6.204   6.632
 9537TIP3   OH228551   5.089   2.336   2.384
 9537TIP3    H128552   4.995   2.338   2.398
 9537TIP3    H228553   5.124   2.398   2.448
 9538TIP3   OH228554   3.518   3.134   1.889
 9538TIP3    H128555   3.535   3.062   1.950
 9538TIP3    H228556   3.423   3.138   1.881
 9539TIP3   OH228557   4.475   5.992   4.769
 9539TIP3    H128558   4.484   6.082   4.738
 9539TIP3    H228559   4.413   5.997   4.842
 9540TIP3   OH228560   2.920   0.290   1.459
 9540TIP3    H128561   2.838   0.269   1.413
 9540TIP3    H228562   2.957   0.363   1.409
 9541TIP3   OH228563   0.716   1.580   2.761
 9541TIP3    H128564   0.736   1.491   2.731
 9541TIP3    H228565   0.776   1.594   2.834
 9542TIP3   OH228566   5.723   2.792   4.270
 9542TIP3    H128567   5.793   2.801   4.335
 9542TIP3    H228568   5.738   2.706   4.231
 9543TIP3   OH228569   5.613   3.731   0.872
 9543TIP3    H128570   5.627   3.675   0.948
 9543TIP3    H228571   5.520   3.753   0.874
 9544TIP3   OH228572   7.826   7.581   2.605
 9544TIP3    H128573   7.808   7.647   2.671
 9544TIP3    H228574   7.784   7.614   2.525
 9545TIP3   OH228575   1.095   7.652   0.485
 9545TIP3    H128576   1.109   7.570   0.533
 9545TIP3    H228577   1.126   7.634   0.396
 9546TIP3   OH228578   1.853   0.406   3.454
 9546TIP3    H128579   1.945   0.421   3.474
 9546TIP3    H228580   1.846   0.311   3.445
 9547TIP3   OH228581   6.272   6.404   6.190
 9547TIP3    H128582   6.245   6.370   6.104
 9547TIP3    H228583   6.275   6.499   6.178
 9548TIP3   OH228584   5.619   0.021   6.714
 9548TIP3    H128585   5.573   0.092   6.669
 9548TIP3    H228586   5.675  -0.017   6.646
 9549TIP3   OH228587   5.206   7.392   2.534
 9549TIP3    H128588   5.295   7.404   2.565
 9549TIP3    H228589   5.212   7.323   2.467
 9550TIP3   OH228590   7.821   7.898   6.854
 9550TIP3    H128591   7.840   7.983   6.895
 9550TIP3    H228592   7.906   7.855   6.847
 9551TIP3   OH228593   2.768   5.795   4.131
 9551TIP3    H128594   2.835   5.788   4.063
 9551TIP3    H228595   2.686   5.772   4.087
 9552TIP3   OH228596   2.781   3.163   6.502
 9552TIP3    H128597   2.868   3.142   6.469
 9552TIP3    H228598   2.724   3.161   6.424
 9553TIP3   OH228599   7.533   1.472   4.978
 9553TIP3    H128600   7.497   1.473   4.890
 9553TIP3    H228601   7.590   1.549   4.983
 9554TIP3   OH228602   4.787   4.765   2.415
 9554TIP3    H128603   4.753   4.853   2.398
 9554TIP3    H228604   4.765   4.748   2.506
 9555TIP3   OH228605   3.921   5.783   5.912
 9555TIP3    H128606   3.874   5.825   5.984
 9555TIP3    H228607   3.889   5.827   5.834
 9556TIP3   OH228608   2.952   2.279   6.749
 9556TIP3    H128609   2.940   2.223   6.672
 9556TIP3    H228610   3.034   2.326   6.733
 9557TIP3   OH228611   1.475   0.535   4.195
 9557TIP3    H128612   1.530   0.522   4.117
 9557TIP3    H228613   1.513   0.477   4.261
 9558TIP3   OH228614   2.737   7.146   2.531
 9558TIP3    H128615   2.711   7.220   2.476
 9558TIP3    H228616   2.664   7.133   2.591
 9559TIP3   OH228617   5.900   3.241   4.793
 9559TIP3    H128618   5.948   3.319   4.823
 9559TIP3    H228619   5.957   3.168   4.815
 9560TIP3   OH228620   1.525   5.734   3.065
 9560TIP3    H128621   1.580   5.803   3.102
 9560TIP3    H228622   1.435   5.767   3.076
 9561TIP3   OH228623   1.404   3.294   3.803
 9561TIP3    H128624   1.491   3.265   3.775
 9561TIP3    H228625   1.416   3.386   3.826
 9562TIP3   OH228626   2.704   2.811   6.260
 9562TIP3    H128627   2.628   2.783   6.209
 9562TIP3    H228628   2.696   2.906   6.264
 9563TIP3   OH228629   1.023   4.191   2.245
 9563TIP3    H128630   1.045   4.283   2.259
 9563TIP3    H228631   1.015   4.183   2.150
 9564TIP3   OH228632   1.514   1.123   3.220
 9564TIP3    H128633   1.471   1.043   3.252
 9564TIP3    H228634   1.589   1.134   3.279
 9565TIP3   OH228635   2.523   0.455   2.206
 9565TIP3    H128636   2.606   0.504   2.211
 9565TIP3    H228637   2.549   0.364   2.213
 9566TIP3   OH228638   3.351   4.317   1.920
 9566TIP3    H128639   3.357   4.408   1.889
 9566TIP3    H228640   3.287   4.276   1.862
 9567TIP3   OH228641   0.360   3.202   6.603
 9567TIP3    H128642   0.421   3.264   6.563
 9567TIP3    H228643   0.411   3.121   6.611
 9568TIP3   OH228644   3.238   2.971   6.341
 9568TIP3    H128645   3.238   2.880   6.370
 9568TIP3    H228646   3.160   2.978   6.285
 9569TIP3   OH228647   2.295   3.641   2.641
 9569TIP3    H128648   2.361   3.654   2.573
 9569TIP3    H228649   2.309   3.551   2.671
 9570TIP3   OH228650   7.765   2.904   2.756
 9570TIP3    H128651   7.783   2.901   2.850
 9570TIP3    H228652   7.747   2.996   2.738
 9571TIP3   OH228653  -0.008   7.038   5.396
 9571TIP3    H128654   0.075   7.030   5.444
 9571TIP3    H228655  -0.030   6.948   5.373
 9572TIP3   OH228656   1.240   5.618   6.470
 9572TIP3    H128657   1.242   5.523   6.455
 9572TIP3    H228658   1.327   5.648   6.446
 9573TIP3   OH228659   2.098   1.703   5.215
 9573TIP3    H128660   2.171   1.647   5.186
 9573TIP3    H228661   2.140   1.786   5.240
 9574TIP3   OH228662   1.364   0.307   5.268
 9574TIP3    H128663   1.361   0.350   5.354
 9574TIP3    H228664   1.444   0.340   5.228
 9575TIP3   OH228665   4.256   2.271   1.283
 9575TIP3    H128666   4.313   2.308   1.216
 9575TIP3    H228667   4.255   2.177   1.265
 9576TIP3   OH228668   0.222   5.854   6.452
 9576TIP3    H128669   0.179   5.835   6.535
 9576TIP3    H228670   0.303   5.804   6.455
 9577TIP3   OH228671   2.677   0.544   0.638
 9577TIP3    H128672   2.628   0.593   0.704
 9577TIP3    H228673   2.737   0.607   0.600
 9578TIP3   OH228674   1.566   7.165   6.315
 9578TIP3    H128675   1.619   7.244   6.319
 9578TIP3    H228676   1.616   7.099   6.363
 9579TIP3   OH228677   7.586   1.118   4.864
 9579TIP3    H128678   7.570   1.084   4.952
 9579TIP3    H228679   7.630   1.046   4.818
 9580TIP3   OH228680   2.024   4.999   4.335
 9580TIP3    H128681   2.056   5.085   4.362
 9580TIP3    H228682   2.045   4.942   4.410
 9581TIP3   OH228683   7.678   2.171   2.161
 9581TIP3    H128684   7.648   2.161   2.251
 9581TIP3    H228685   7.712   2.260   2.157
 9582TIP3   OH228686   4.129   6.522   6.259
 9582TIP3    H128687   4.069   6.528   6.185
 9582TIP3    H228688   4.095   6.450   6.312
 9583TIP3   OH228689   4.982   5.544   1.955
 9583TIP3    H128690   4.923   5.576   2.023
 9583TIP3    H228691   5.015   5.622   1.912
 9584TIP3   OH228692   3.319   0.105   5.778
 9584TIP3    H128693   3.399   0.149   5.806
 9584TIP3    H228694   3.325   0.101   5.683
 9585TIP3   OH228695   2.441   7.779   1.552
 9585TIP3    H128696   2.432   7.803   1.644
 9585TIP3    H228697   2.367   7.821   1.508
 9586TIP3   OH228698   2.260   2.601   6.053
 9586TIP3    H128699   2.169   2.571   6.057
 9586TIP3    H228700   2.259   2.672   5.990
 9587TIP3   OH228701   3.228   3.566   4.021
 9587TIP3    H128702   3.192   3.604   3.940
 9587TIP3    H228703   3.213   3.633   4.087
 9588TIP3   OH228704   6.265   5.671   3.893
 9588TIP3    H128705   6.235   5.582   3.880
 9588TIP3    H228706   6.321   5.689   3.817
 9589TIP3   OH228707   2.202   4.610   0.691
 9589TIP3    H128708   2.233   4.603   0.601
 9589TIP3    H228709   2.151   4.530   0.704
 9590TIP3   OH228710   7.956   6.265   0.722
 9590TIP3    H128711   7.931   6.346   0.767
 9590TIP3    H228712   7.916   6.195   0.774
 9591TIP3   OH228713   0.951   1.101   6.212
 9591TIP3    H128714   1.026   1.159   6.200
 9591TIP3    H228715   0.934   1.066   6.125
 9592TIP3   OH228716   1.526   3.192   1.661
 9592TIP3    H128717   1.515   3.135   1.737
 9592TIP3    H228718   1.618   3.218   1.663
 9593TIP3   OH228719   1.042   2.568   1.148
 9593TIP3    H128720   1.078   2.516   1.076
 9593TIP3    H228721   1.085   2.533   1.226
 9594TIP3   OH228722   2.202   4.142   3.734
 9594TIP3    H128723   2.270   4.170   3.674
 9594TIP3    H228724   2.209   4.202   3.808
 9595TIP3   OH228725   5.308   6.253   0.324
 9595TIP3    H128726   5.234   6.296   0.367
 9595TIP3    H228727   5.384   6.273   0.380
 9596TIP3   OH228728   0.650   5.859   0.252
 9596TIP3    H128729   0.667   5.943   0.209
 9596TIP3    H228730   0.579   5.821   0.201
 9597TIP3   OH228731   4.013   1.757   4.032
 9597TIP3    H128732   4.082   1.794   3.977
 9597TIP3    H228733   3.931   1.790   3.994
 9598TIP3   OH228734   2.115   3.330   1.306
 9598TIP3    H128735   2.133   3.237   1.295
 9598TIP3    H228736   2.142   3.350   1.396
 9599TIP3   OH228737   6.456   5.696   5.023
 9599TIP3    H128738   6.456   5.655   4.936
 9599TIP3    H228739   6.375   5.664   5.064
 9600TIP3   OH228740   7.625   2.241   3.205
 9600TIP3    H128741   7.533   2.245   3.178
 9600TIP3    H228742   7.673   2.264   3.125
 9601TIP3   OH228743   5.873   0.337   4.539
 9601TIP3    H128744   5.948   0.351   4.597
 9601TIP3    H228745   5.798   0.328   4.598
 9602TIP3   OH228746   3.510   3.346   0.760
 9602TIP3    H128747   3.479   3.368   0.848
 9602TIP3    H228748   3.543   3.257   0.767
 9603TIP3   OH228749   5.149   3.379   0.212
 9603TIP3    H128750   5.062   3.343   0.192
 9603TIP3    H228751   5.147   3.468   0.178
 9604TIP3   OH228752   7.867   5.946   4.391
 9604TIP3    H128753   7.936   5.953   4.457
 9604TIP3    H228754   7.838   6.036   4.378
 9605TIP3   OH228755   6.015   6.850   3.798
 9605TIP3    H128756   5.964   6.863   3.718
 9605TIP3    H228757   6.081   6.919   3.797
 9606TIP3   OH228758   6.314   0.369   4.813
 9606TIP3    H128759   6.273   0.305   4.870
 9606TIP3    H228760   6.362   0.316   4.749
 9607TIP3   OH228761   1.187   5.771   3.572
 9607TIP3    H128762   1.202   5.706   3.504
 9607TIP3    H228763   1.232   5.737   3.649
 9608TIP3   OH228764   7.497   6.644   2.291
 9608TIP3    H128765   7.545   6.621   2.211
 9608TIP3    H228766   7.435   6.572   2.303
 9609TIP3   OH228767   7.461   4.569   0.659
 9609TIP3    H128768   7.523   4.541   0.726
 9609TIP3    H228769   7.513   4.574   0.579
 9610TIP3   OH228770   2.361   4.584   0.895
 9610TIP3    H128771   2.329   4.529   0.966
 9610TIP3    H228772   2.303   4.566   0.822
 9611TIP3   OH228773   2.506   7.519   2.788
 9611TIP3    H128774   2.554   7.458   2.843
 9611TIP3    H228775   2.428   7.542   2.838
 9612TIP3   OH228776   0.141   6.954   3.786
 9612TIP3    H128777   0.099   7.040   3.781
 9612TIP3    H228778   0.081   6.901   3.840
 9613TIP3   OH228779   7.108   6.264   2.852
 9613TIP3    H128780   7.072   6.244   2.766
 9613TIP3    H228781   7.190   6.215   2.857
 9614TIP3   OH228782   5.140   2.336   2.111
 9614TIP3    H128783   5.228   2.372   2.119
 9614TIP3    H228784   5.110   2.323   2.201
 9615TIP3   OH228785   7.761   6.655   5.977
 9615TIP3    H128786   7.718   6.672   5.893
 9615TIP3    H228787   7.708   6.586   6.017
 9616TIP3   OH228788   1.676   4.059   3.088
 9616TIP3    H128789   1.652   4.112   3.013
 9616TIP3    H228790   1.762   4.023   3.066
 9617TIP3   OH228791   4.127   7.811   6.322
 9617TIP3    H128792   4.055   7.780   6.377
 9617TIP3    H228793   4.106   7.778   6.235
 9618TIP3   OH228794   1.511   5.672   1.084
 9618TIP3    H128795   1.473   5.728   1.152
 9618TIP3    H228796   1.436   5.627   1.045
 9619TIP3   OH228797   4.428   3.768   6.681
 9619TIP3    H128798   4.371   3.841   6.706
 9619TIP3    H228799   4.412   3.756   6.587
 9620TIP3   OH228800   7.802   0.513   5.637
 9620TIP3    H128801   7.791   0.514   5.542
 9620TIP3    H228802   7.828   0.423   5.658
 9621TIP3   OH228803   1.664   7.940   3.481
 9621TIP3    H128804   1.696   7.967   3.395
 9621TIP3    H228805   1.739   7.898   3.523
 9622TIP3   OH228806   4.671   7.568   5.291
 9622TIP3    H128807   4.628   7.598   5.211
 9622TIP3    H228808   4.668   7.644   5.349
 9623TIP3   OH228809   2.904   6.094   6.752
 9623TIP3    H128810   2.889   6.016   6.699
 9623TIP3    H228811   2.936   6.060   6.836
 9624TIP3   OH228812   1.360   1.623   2.420
 9624TIP3    H128813   1.310   1.554   2.376
 9624TIP3    H228814   1.294   1.687   2.446
 9625TIP3   OH228815   1.885   0.202   4.751
 9625TIP3    H128816   1.932   0.167   4.675
 9625TIP3    H228817   1.870   0.125   4.807
 9626TIP3   OH228818   7.980   3.097   2.979
 9626TIP3    H128819   7.918   3.102   3.051
 9626TIP3    H228820   8.043   3.167   2.997
 9627TIP3   OH228821   6.915   3.416   2.056
 9627TIP3    H128822   6.951   3.439   2.142
 9627TIP3    H228823   6.953   3.479   1.996
 9628TIP3   OH228824   5.867   1.375   6.346
 9628TIP3    H128825   5.802   1.346   6.282
 9628TIP3    H228826   5.885   1.297   6.399
 9629TIP3   OH228827   0.517   6.229   4.660
 9629TIP3    H128828   0.579   6.174   4.708
 9629TIP3    H228829   0.436   6.178   4.658
 9630TIP3   OH228830   0.206   3.917   1.061
 9630TIP3    H128831   0.111   3.921   1.049
 9630TIP3    H228832   0.223   3.965   1.142
 9631TIP3   OH228833   2.007   4.972   0.471
 9631TIP3    H128834   1.912   4.976   0.480
 9631TIP3    H228835   2.022   4.901   0.408
 9632TIP3   OH228836   0.245   6.179   1.148
 9632TIP3    H128837   0.321   6.175   1.090
 9632TIP3    H228838   0.267   6.121   1.221
 9633TIP3   OH228839   4.167   4.708   4.630
 9633TIP3    H128840   4.178   4.788   4.680
 9633TIP3    H228841   4.256   4.682   4.605
 9634TIP3   OH228842   6.812   6.007   2.815
 9634TIP3    H128843   6.834   5.921   2.780
 9634TIP3    H228844   6.809   5.995   2.910
 9635TIP3   OH228845   0.889   4.529   0.967
 9635TIP3    H128846   0.802   4.494   0.946
 9635TIP3    H228847   0.914   4.578   0.889
 9636TIP3   OH228848   7.888   7.462   3.885
 9636TIP3    H128849   7.901   7.380   3.838
 9636TIP3    H228850   7.897   7.530   3.818
 9637TIP3   OH228851   6.634   7.762   5.896
 9637TIP3    H128852   6.674   7.797   5.976
 9637TIP3    H228853   6.645   7.832   5.831
 9638TIP3   OH228854   3.236   6.563   2.991
 9638TIP3    H128855   3.299   6.631   2.967
 9638TIP3    H228856   3.288   6.496   3.036
 9639TIP3   OH228857   7.111   3.496   5.296
 9639TIP3    H128858   7.047   3.448   5.243
 9639TIP3    H228859   7.112   3.450   5.380
 9640TIP3   OH228860   7.537   4.007   2.858
 9640TIP3    H128861   7.478   3.934   2.879
 9640TIP3    H228862   7.533   4.014   2.763
 9641TIP3   OH228863   2.710   2.405   4.234
 9641TIP3    H128864   2.798   2.398   4.197
 9641TIP3    H228865   2.653   2.411   4.158
 9642TIP3   OH228866   1.885   3.395   1.206
 9642TIP3    H128867   1.960   3.378   1.262
 9642TIP3    H228868   1.857   3.484   1.230
 9643TIP3   OH228869   2.502   6.693   3.760
 9643TIP3    H128870   2.485   6.601   3.738
 9643TIP3    H228871   2.454   6.707   3.842
 9644TIP3   OH228872   7.922   7.360   1.310
 9644TIP3    H128873   7.968   7.398   1.385
 9644TIP3    H228874   7.952   7.269   1.307
 9645TIP3   OH228875   6.449   7.226   2.168
 9645TIP3    H128876   6.457   7.254   2.259
 9645TIP3    H228877   6.538   7.209   2.139
 9646TIP3   OH228878   4.006   6.678   6.591
 9646TIP3    H128879   3.981   6.768   6.569
 9646TIP3    H228880   4.072   6.687   6.659
 9647TIP3   OH228881   6.324   1.159   0.845
 9647TIP3    H128882   6.410   1.171   0.803
 9647TIP3    H228883   6.327   1.071   0.881
 9648TIP3   OH228884   0.979   0.761   2.049
 9648TIP3    H128885   1.018   0.811   1.978
 9648TIP3    H228886   0.893   0.735   2.016
 9649TIP3   OH228887   6.122   0.360   2.233
 9649TIP3    H128888   6.056   0.428   2.223
 9649TIP3    H228889   6.112   0.329   2.323
 9650TIP3   OH228890   0.970   1.701   5.721
 9650TIP3    H128891   0.935   1.670   5.805
 9650TIP3    H228892   0.938   1.638   5.657
 9651TIP3   OH228893   5.605   2.528   5.686
 9651TIP3    H128894   5.533   2.545   5.746
 9651TIP3    H228895   5.671   2.593   5.708
 9652TIP3   OH228896   1.995   0.829   5.059
 9652TIP3    H128897   2.037   0.899   5.109
 9652TIP3    H228898   2.045   0.825   4.978
 9653TIP3   OH228899   6.465   5.149   2.229
 9653TIP3    H128900   6.532   5.158   2.297
 9653TIP3    H228901   6.462   5.055   2.211
 9654TIP3   OH228902   3.732   6.360   3.858
 9654TIP3    H128903   3.638   6.362   3.873
 9654TIP3    H228904   3.770   6.351   3.945
 9655TIP3   OH228905   4.643   6.569   5.157
 9655TIP3    H128906   4.621   6.658   5.129
 9655TIP3    H228907   4.736   6.560   5.136
 9656TIP3   OH228908   4.781   7.566   6.371
 9656TIP3    H128909   4.772   7.637   6.308
 9656TIP3    H228910   4.873   7.541   6.367
 9657TIP3   OH228911   0.774   5.769   3.971
 9657TIP3    H128912   0.815   5.851   3.997
 9657TIP3    H228913   0.847   5.708   3.960
 9658TIP3   OH228914   7.791   0.236   5.706
 9658TIP3    H128915   7.842   0.162   5.670
 9658TIP3    H228916   7.704   0.224   5.669
 9659TIP3   OH228917   5.577   1.055   4.690
 9659TIP3    H128918   5.505   1.114   4.712
 9659TIP3    H228919   5.653   1.113   4.677
 9660TIP3   OH228920   1.661   1.770   6.627
 9660TIP3    H128921   1.617   1.687   6.645
 9660TIP3    H228922   1.591   1.834   6.624
 9661TIP3   OH228923   5.863   2.929   5.982
 9661TIP3    H128924   5.952   2.942   6.013
 9661TIP3    H228925   5.871   2.927   5.886
 9662TIP3   OH228926   7.531   1.487   4.284
 9662TIP3    H128927   7.604   1.451   4.234
 9662TIP3    H228928   7.572   1.532   4.358
 9663TIP3   OH228929   3.632   4.284   1.844
 9663TIP3    H128930   3.701   4.289   1.778
 9663TIP3    H228931   3.593   4.197   1.830
 9664TIP3   OH228932   6.663   7.840   6.222
 9664TIP3    H128933   6.743   7.818   6.174
 9664TIP3    H228934   6.642   7.761   6.271
 9665TIP3   OH228935   2.746   5.877   4.384
 9665TIP3    H128936   2.738   5.846   4.294
 9665TIP3    H228937   2.814   5.944   4.381
 9666TIP3   OH228938   2.116   6.905   3.661
 9666TIP3    H128939   2.206   6.881   3.685
 9666TIP3    H228940   2.113   6.895   3.566
 9667TIP3   OH228941   7.474   6.160   3.739
 9667TIP3    H128942   7.477   6.075   3.784
 9667TIP3    H228943   7.411   6.211   3.789
 9668TIP3   OH228944   3.045   5.578   3.290
 9668TIP3    H128945   3.033   5.655   3.345
 9668TIP3    H228946   3.110   5.605   3.225
 9669TIP3   OH228947   6.802   2.877   5.271
 9669TIP3    H128948   6.830   2.825   5.346
 9669TIP3    H228949   6.884   2.900   5.226
 9670TIP3   OH228950   4.101   4.317   2.749
 9670TIP3    H128951   4.132   4.407   2.741
 9670TIP3    H228952   4.052   4.302   2.668
 9671TIP3   OH228953   2.521   6.264   1.372
 9671TIP3    H128954   2.603   6.215   1.373
 9671TIP3    H228955   2.543   6.349   1.411
 9672TIP3   OH228956   6.504   0.650   5.542
 9672TIP3    H128957   6.438   0.593   5.501
 9672TIP3    H228958   6.470   0.667   5.630
 9673TIP3   OH228959   3.679   7.903   5.558
 9673TIP3    H128960   3.726   7.960   5.618
 9673TIP3    H228961   3.720   7.920   5.473
 9674TIP3   OH228962   8.286   7.236   4.698
 9674TIP3    H128963   8.250   7.283   4.623
 9674TIP3    H228964   8.369   7.280   4.717
 9675TIP3   OH228965   5.701   1.689   6.544
 9675TIP3    H128966   5.620   1.718   6.502
 9675TIP3    H228967   5.677   1.609   6.592
 9676TIP3   OH228968   6.904   2.244   3.173
 9676TIP3    H128969   6.879   2.336   3.178
 9676TIP3    H228970   6.863   2.203   3.249
 9677TIP3   OH228971   5.274   4.336   0.372
 9677TIP3    H128972   5.289   4.375   0.457
 9677TIP3    H228973   5.355   4.351   0.323
 9678TIP3   OH228974   6.550   0.200   2.144
 9678TIP3    H128975   6.491   0.151   2.201
 9678TIP3    H228976   6.591   0.133   2.089
 9679TIP3   OH228977   1.382   5.172   1.948
 9679TIP3    H128978   1.301   5.196   1.992
 9679TIP3    H228979   1.452   5.206   2.004
 9680TIP3   OH228980   1.567   2.784   5.928
 9680TIP3    H128981   1.607   2.816   5.847
 9680TIP3    H228982   1.473   2.789   5.913
 9681TIP3   OH228983   1.354   3.409   1.966
 9681TIP3    H128984   1.330   3.434   1.876
 9681TIP3    H228985   1.443   3.443   1.976
 9682TIP3   OH228986   2.482   5.268   6.326
 9682TIP3    H128987   2.572   5.239   6.312
 9682TIP3    H228988   2.449   5.285   6.238
 9683TIP3   OH228989   1.530   7.658   5.388
 9683TIP3    H128990   1.601   7.616   5.340
 9683TIP3    H228991   1.566   7.744   5.413
 9684TIP3   OH228992   0.809   7.388   5.473
 9684TIP3    H128993   0.757   7.402   5.552
 9684TIP3    H228994   0.878   7.327   5.499
 9685TIP3   OH228995   0.873   5.043   4.299
 9685TIP3    H128996   0.889   4.973   4.236
 9685TIP3    H228997   0.815   5.005   4.365
 9686TIP3   OH228998   5.636   1.444   0.273
 9686TIP3    H128999   5.717   1.421   0.227
 9686TIP3    H229000   5.581   1.366   0.265
 9687TIP3   OH229001   2.969   7.252   1.139
 9687TIP3    H129002   3.036   7.197   1.178
 9687TIP3    H229003   2.887   7.203   1.151
 9688TIP3   OH229004   0.485   3.840   6.208
 9688TIP3    H129005   0.454   3.926   6.179
 9688TIP3    H229006   0.438   3.777   6.153
 9689TIP3   OH229007   0.318   7.153   2.902
 9689TIP3    H129008   0.226   7.179   2.902
 9689TIP3    H229009   0.317   7.061   2.876
 9690TIP3   OH229010   6.313   0.356   0.266
 9690TIP3    H129011   6.348   0.402   0.190
 9690TIP3    H229012   6.330   0.415   0.340
 9691TIP3   OH229013   7.239   0.516   0.047
 9691TIP3    H129014   7.222   0.444   0.109
 9691TIP3    H229015   7.279   0.473  -0.028
 9692TIP3   OH229016   7.936   4.486   2.147
 9692TIP3    H129017   7.986   4.562   2.177
 9692TIP3    H229018   7.853   4.522   2.116
 9693TIP3   OH229019   3.155   3.143   1.734
 9693TIP3    H129020   3.191   3.078   1.793
 9693TIP3    H229021   3.107   3.091   1.668
 9694TIP3   OH229022   4.738   2.432   4.475
 9694TIP3    H129023   4.733   2.486   4.554
 9694TIP3    H229024   4.830   2.408   4.468
 9695TIP3   OH229025   5.466   7.730   1.904
 9695TIP3    H129026   5.556   7.709   1.880
 9695TIP3    H229027   5.414   7.661   1.863
 9696TIP3   OH229028   3.622   2.033   0.684
 9696TIP3    H129029   3.590   2.119   0.712
 9696TIP3    H229030   3.549   1.994   0.637
 9697TIP3   OH229031   2.198   5.539   6.731
 9697TIP3    H129032   2.251   5.510   6.805
 9697TIP3    H229033   2.245   5.505   6.654
 9698TIP3   OH229034   7.514   0.969   4.365
 9698TIP3    H129035   7.430   0.927   4.385
 9698TIP3    H229036   7.529   0.951   4.273
 9699TIP3   OH229037   5.526   2.173   0.538
 9699TIP3    H129038   5.447   2.139   0.499
 9699TIP3    H229039   5.580   2.201   0.464
 9700TIP3   OH229040   2.306   3.612   2.974
 9700TIP3    H129041   2.256   3.681   2.930
 9700TIP3    H229042   2.351   3.566   2.903
 9701TIP3   OH229043   4.236   6.353   0.265
 9701TIP3    H129044   4.331   6.345   0.271
 9701TIP3    H229045   4.216   6.439   0.301
 9702TIP3   OH229046   3.380   3.399   2.431
 9702TIP3    H129047   3.349   3.490   2.433
 9702TIP3    H229048   3.391   3.376   2.523
 9703TIP3   OH229049   8.208   7.870   5.689
 9703TIP3    H129050   8.239   7.930   5.757
 9703TIP3    H229051   8.169   7.927   5.623
 9704TIP3   OH229052   4.607   7.843   6.759
 9704TIP3    H129053   4.573   7.796   6.835
 9704TIP3    H229054   4.695   7.807   6.745
 9705TIP3   OH229055   4.406   5.665   6.595
 9705TIP3    H129056   4.486   5.697   6.554
 9705TIP3    H229057   4.354   5.630   6.522
 9706TIP3   OH229058   1.885   4.899   2.194
 9706TIP3    H129059   1.889   4.994   2.195
 9706TIP3    H229060   1.848   4.877   2.109
 9707TIP3   OH229061   0.363   6.087   3.734
 9707TIP3    H129062   0.352   6.126   3.820
 9707TIP3    H229063   0.422   6.145   3.687
 9708TIP3   OH229064   4.535   4.759   5.337
 9708TIP3    H129065   4.444   4.780   5.361
 9708TIP3    H229066   4.544   4.666   5.355
 9709TIP3   OH229067   3.550   3.325   1.044
 9709TIP3    H129068   3.640   3.358   1.034
 9709TIP3    H229069   3.552   3.239   1.003
 9710TIP3   OH229070   6.059   1.437   3.687
 9710TIP3    H129071   5.966   1.461   3.691
 9710TIP3    H229072   6.078   1.402   3.774
 9711TIP3   OH229073   6.037   1.726   5.188
 9711TIP3    H129074   6.006   1.814   5.166
 9711TIP3    H229075   6.060   1.732   5.281
 9712TIP3   OH229076   0.231   4.728   6.470
 9712TIP3    H129077   0.235   4.782   6.391
 9712TIP3    H229078   0.156   4.670   6.455
 9713TIP3   OH229079   7.470   6.162   2.656
 9713TIP3    H129080   7.514   6.149   2.740
 9713TIP3    H229081   7.516   6.235   2.616
 9714TIP3   OH229082   1.175   1.372   2.026
 9714TIP3    H129083   1.215   1.288   2.003
 9714TIP3    H229084   1.093   1.373   1.976
 9715TIP3   OH229085   1.743   3.668   2.091
 9715TIP3    H129086   1.682   3.732   2.127
 9715TIP3    H229087   1.727   3.672   1.996
 9716TIP3   OH229088   1.435   5.975   1.022
 9716TIP3    H129089   1.407   5.960   0.931
 9716TIP3    H229090   1.526   5.944   1.024
 9717TIP3   OH229091   2.361   6.081   4.006
 9717TIP3    H129092   2.292   6.038   3.955
 9717TIP3    H229093   2.327   6.169   4.023
 9718TIP3   OH229094   3.637   2.598   2.217
 9718TIP3    H129095   3.645   2.655   2.140
 9718TIP3    H229096   3.683   2.518   2.192
 9719TIP3   OH229097   2.330   4.090   0.492
 9719TIP3    H129098   2.244   4.124   0.469
 9719TIP3    H229099   2.385   4.112   0.417
 9720TIP3   OH229100   6.868   5.987   6.023
 9720TIP3    H129101   6.911   5.909   6.058
 9720TIP3    H229102   6.917   6.008   5.943
 9721TIP3   OH229103   2.593   0.772   0.326
 9721TIP3    H129104   2.681   0.774   0.363
 9721TIP3    H229105   2.590   0.691   0.275
 9722TIP3   OH229106   5.415   2.229   3.316
 9722TIP3    H129107   5.386   2.221   3.407
 9722TIP3    H229108   5.383   2.314   3.287
 9723TIP3   OH229109   0.125   2.218   2.044
 9723TIP3    H129110   0.167   2.215   2.130
 9723TIP3    H229111   0.042   2.263   2.059
 9724TIP3   OH229112   7.060   4.465   4.323
 9724TIP3    H129113   6.988   4.505   4.372
 9724TIP3    H229114   7.111   4.538   4.289
 9725TIP3   OH229115   5.027   4.207   0.101
 9725TIP3    H129116   5.111   4.252   0.105
 9725TIP3    H229117   4.974   4.261   0.042
 9726TIP3   OH229118   0.320   2.099   5.243
 9726TIP3    H129119   0.325   2.194   5.252
 9726TIP3    H229120   0.304   2.067   5.331
 9727TIP3   OH229121   4.276   6.896   0.250
 9727TIP3    H129122   4.290   6.802   0.243
 9727TIP3    H229123   4.301   6.918   0.340
 9728TIP3   OH229124   4.755   0.054   6.380
 9728TIP3    H129125   4.803   0.000   6.443
 9728TIP3    H229126   4.696  -0.006   6.336
 9729TIP3   OH229127   0.203   1.500   2.636
 9729TIP3    H129128   0.222   1.560   2.709
 9729TIP3    H229129   0.246   1.540   2.561
 9730TIP3   OH229130   5.246   1.159   0.118
 9730TIP3    H129131   5.334   1.164   0.157
 9730TIP3    H229132   5.219   1.068   0.132
 9731TIP3   OH229133   7.939   6.236   4.123
 9731TIP3    H129134   7.888   6.222   4.203
 9731TIP3    H229135   7.874   6.240   4.053
 9732TIP3   OH229136   0.255   5.166   4.663
 9732TIP3    H129137   0.343   5.170   4.626
 9732TIP3    H229138   0.198   5.148   4.588
 9733TIP3   OH229139   5.135   3.460   2.926
 9733TIP3    H129140   5.229   3.444   2.939
 9733TIP3    H229141   5.096   3.444   3.012
 9734TIP3   OH229142   1.733   5.464   5.304
 9734TIP3    H129143   1.791   5.452   5.378
 9734TIP3    H229144   1.682   5.383   5.300
 9735TIP3   OH229145   5.802   4.499   2.340
 9735TIP3    H129146   5.889   4.496   2.299
 9735TIP3    H229147   5.816   4.548   2.421
 9736TIP3   OH229148   3.426   7.586   3.052
 9736TIP3    H129149   3.472   7.570   3.135
 9736TIP3    H229150   3.393   7.500   3.026
 9737TIP3   OH229151   4.944   2.221   0.109
 9737TIP3    H129152   5.028   2.187   0.139
 9737TIP3    H229153   4.931   2.182   0.023
 9738TIP3   OH229154   4.182   6.703   1.868
 9738TIP3    H129155   4.167   6.797   1.859
 9738TIP3    H229156   4.159   6.683   1.959
 9739TIP3   OH229157   1.780   1.504   0.173
 9739TIP3    H129158   1.846   1.539   0.113
 9739TIP3    H229159   1.820   1.425   0.209
 9740TIP3   OH229160   1.077   7.211   5.296
 9740TIP3    H129161   1.035   7.215   5.210
 9740TIP3    H229162   1.167   7.239   5.281
 9741TIP3   OH229163   4.818   4.284   1.052
 9741TIP3    H129164   4.780   4.354   0.999
 9741TIP3    H229165   4.815   4.318   1.141
 9742TIP3   OH229166   7.113   1.318   1.299
 9742TIP3    H129167   7.126   1.401   1.254
 9742TIP3    H229168   7.058   1.267   1.239
 9743TIP3   OH229169   6.491   7.836   4.255
 9743TIP3    H129170   6.494   7.825   4.160
 9743TIP3    H229171   6.582   7.826   4.283
 9744TIP3   OH229172   0.174   5.551   2.888
 9744TIP3    H129173   0.219   5.589   2.812
 9744TIP3    H229174   0.224   5.583   2.963
 9745TIP3   OH229175   1.328   7.806   2.070
 9745TIP3    H129176   1.411   7.758   2.071
 9745TIP3    H229177   1.265   7.747   2.110
 9746TIP3   OH229178   0.340   0.795   3.329
 9746TIP3    H129179   0.332   0.889   3.310
 9746TIP3    H229180   0.310   0.787   3.419
 9747TIP3   OH229181   5.810   7.353   2.329
 9747TIP3    H129182   5.757   7.426   2.362
 9747TIP3    H229183   5.778   7.338   2.240
 9748TIP3   OH229184   7.721   7.873   4.718
 9748TIP3    H129185   7.773   7.794   4.706
 9748TIP3    H229186   7.710   7.909   4.630
 9749TIP3   OH229187   5.831   1.747   2.174
 9749TIP3    H129188   5.816   1.692   2.251
 9749TIP3    H229189   5.843   1.835   2.209
 9750TIP3   OH229190   6.155   2.450   5.477
 9750TIP3    H129191   6.143   2.542   5.454
 9750TIP3    H229192   6.148   2.448   5.573
 9751TIP3   OH229193   0.778   3.855   2.587
 9751TIP3    H129194   0.787   3.950   2.593
 9751TIP3    H229195   0.826   3.831   2.508
 9752TIP3   OH229196   0.881   5.681   0.175
 9752TIP3    H129197   0.874   5.617   0.246
 9752TIP3    H229198   0.810   5.743   0.191
 9753TIP3   OH229199   7.423   1.583   3.583
 9753TIP3    H129200   7.410   1.522   3.510
 9753TIP3    H229201   7.512   1.563   3.615
 9754TIP3   OH229202   5.031   2.962   2.516
 9754TIP3    H129203   5.029   3.058   2.517
 9754TIP3    H229204   5.124   2.941   2.512
 9755TIP3   OH229205   4.819   0.278   2.779
 9755TIP3    H129206   4.755   0.286   2.849
 9755TIP3    H229207   4.801   0.352   2.721
 9756TIP3   OH229208   1.658   4.084   4.958
 9756TIP3    H129209   1.629   4.126   4.877
 9756TIP3    H229210   1.754   4.080   4.949
 9757TIP3   OH229211   7.540   6.550   0.639
 9757TIP3    H129212   7.491   6.480   0.681
 9757TIP3    H229213   7.548   6.523   0.548
 9758TIP3   OH229214   0.911   1.003   2.962
 9758TIP3    H129215   0.991   1.014   2.910
 9758TIP3    H229216   0.928   1.053   3.042
 9759TIP3   OH229217   5.535   3.287   0.301
 9759TIP3    H129218   5.630   3.290   0.295
 9759TIP3    H229219   5.518   3.257   0.390
 9760TIP3   OH229220   3.404   1.512   4.326
 9760TIP3    H129221   3.420   1.602   4.298
 9760TIP3    H229222   3.432   1.459   4.252
 9761TIP3   OH229223   0.276   4.145   3.030
 9761TIP3    H129224   0.333   4.069   3.043
 9761TIP3    H229225   0.336   4.218   3.015
 9762TIP3   OH229226   3.020   6.885   6.709
 9762TIP3    H129227   3.042   6.973   6.743
 9762TIP3    H229228   2.925   6.886   6.702
 9763TIP3   OH229229   5.909   6.370   5.401
 9763TIP3    H129230   5.955   6.394   5.482
 9763TIP3    H229231   5.818   6.360   5.426
 9764TIP3   OH229232   0.905   5.538   3.423
 9764TIP3    H129233   1.001   5.541   3.430
 9764TIP3    H229234   0.886   5.451   3.389
 9765TIP3   OH229235   3.927   6.182   4.782
 9765TIP3    H129236   3.995   6.235   4.741
 9765TIP3    H229237   3.917   6.106   4.724
 9766TIP3   OH229238   2.561   4.624   5.855
 9766TIP3    H129239   2.490   4.684   5.878
 9766TIP3    H229240   2.629   4.681   5.818
 9767TIP3   OH229241   3.658   6.179   5.211
 9767TIP3    H129242   3.728   6.174   5.147
 9767TIP3    H229243   3.666   6.267   5.249
 9768TIP3   OH229244   6.612   0.931   5.997
 9768TIP3    H129245   6.661   0.849   5.990
 9768TIP3    H229246   6.578   0.932   6.086
 9769TIP3   OH229247   6.357   2.563  -0.002
 9769TIP3    H129248   6.304   2.537   0.074
 9769TIP3    H229249   6.437   2.600   0.036
 9770TIP3   OH229250   7.298   1.388   4.158
 9770TIP3    H129251   7.359   1.392   4.232
 9770TIP3    H229252   7.336   1.324   4.098
 9771TIP3   OH229253   4.075   3.184   0.083
 9771TIP3    H129254   4.163   3.161   0.053
 9771TIP3    H229255   4.017   3.128   0.030
 9772TIP3   OH229256   2.909   4.340   5.895
 9772TIP3    H129257   2.929   4.276   5.827
 9772TIP3    H229258   2.814   4.348   5.892
 9773TIP3   OH229259   1.848   5.339   0.284
 9773TIP3    H129260   1.765   5.385   0.284
 9773TIP3    H229261   1.828   5.251   0.251
 9774TIP3   OH229262   6.564   0.576   0.567
 9774TIP3    H129263   6.646   0.607   0.604
 9774TIP3    H229264   6.575   0.481   0.561
 9775TIP3   OH229265   8.076   0.572   2.942
 9775TIP3    H129266   8.089   0.520   3.022
 9775TIP3    H229267   8.121   0.522   2.873
 9776TIP3   OH229268   8.029   2.380   1.664
 9776TIP3    H129269   7.972   2.303   1.672
 9776TIP3    H229270   7.972   2.454   1.686
 9777TIP3   OH229271   8.102   7.426   6.133
 9777TIP3    H129272   8.148   7.347   6.107
 9777TIP3    H229273   8.073   7.466   6.051
 9778TIP3   OH229274   5.187   1.654   4.163
 9778TIP3    H129275   5.110   1.648   4.106
 9778TIP3    H229276   5.242   1.580   4.137
 9779TIP3   OH229277   0.915   4.787   3.220
 9779TIP3    H129278   0.901   4.750   3.307
 9779TIP3    H229279   0.827   4.799   3.184
 9780TIP3   OH229280   7.604   7.366   4.297
 9780TIP3    H129281   7.586   7.403   4.383
 9780TIP3    H229282   7.532   7.397   4.242
 9781TIP3   OH229283   8.328   6.535   5.705
 9781TIP3    H129284   8.243   6.545   5.662
 9781TIP3    H229285   8.327   6.447   5.741
 9782TIP3   OH229286   7.875   3.101   5.066
 9782TIP3    H129287   7.840   3.082   4.978
 9782TIP3    H229288   7.880   3.015   5.108
 9783TIP3   OH229289   6.017   5.204   6.303
 9783TIP3    H129290   6.060   5.290   6.304
 9783TIP3    H229291   5.955   5.208   6.375
 9784TIP3   OH229292   0.514   6.524   3.514
 9784TIP3    H129293   0.442   6.533   3.576
 9784TIP3    H229294   0.523   6.611   3.475
 9785TIP3   OH229295   2.968   0.219   3.024
 9785TIP3    H129296   2.979   0.249   2.934
 9785TIP3    H229297   3.023   0.141   3.031
 9786TIP3   OH229298   6.908   2.599   1.800
 9786TIP3    H129299   6.817   2.571   1.792
 9786TIP3    H229300   6.927   2.643   1.717
 9787TIP3   OH229301   3.504   4.450   6.735
 9787TIP3    H129302   3.453   4.409   6.665
 9787TIP3    H229303   3.565   4.508   6.690
 9788TIP3   OH229304   0.953   5.599   4.509
 9788TIP3    H129305   1.009   5.676   4.509
 9788TIP3    H229306   1.002   5.535   4.561
 9789TIP3   OH229307   4.386   7.063   0.017
 9789TIP3    H129308   4.381   7.141  -0.040
 9789TIP3    H229309   4.361   7.095   0.103
 9790TIP3   OH229310   6.436   3.276   6.317
 9790TIP3    H129311   6.429   3.189   6.358
 9790TIP3    H229312   6.473   3.332   6.385
 9791TIP3   OH229313   7.476   5.420   5.569
 9791TIP3    H129314   7.519   5.495   5.527
 9791TIP3    H229315   7.496   5.432   5.662
 9792TIP3   OH229316   6.034   4.829   1.403
 9792TIP3    H129317   5.983   4.760   1.361
 9792TIP3    H229318   6.030   4.808   1.497
 9793TIP3   OH229319   7.244   5.370   1.062
 9793TIP3    H129320   7.278   5.286   1.033
 9793TIP3    H229321   7.151   5.366   1.039
 9794TIP3   OH229322   5.594   7.724   2.161
 9794TIP3    H129323   5.659   7.663   2.127
 9794TIP3    H229324   5.528   7.730   2.093
 9795TIP3   OH229325   3.425   7.839   2.043
 9795TIP3    H129326   3.376   7.757   2.053
 9795TIP3    H229327   3.468   7.831   1.958
 9796TIP3   OH229328   5.881   7.033   1.869
 9796TIP3    H129329   5.896   6.938   1.871
 9796TIP3    H229330   5.891   7.061   1.960
 9797TIP3   OH229331   3.800   0.263   5.738
 9797TIP3    H129332   3.797   0.227   5.649
 9797TIP3    H229333   3.848   0.346   5.729
 9798TIP3   OH229334   8.084   4.934   5.207
 9798TIP3    H129335   8.092   4.879   5.285
 9798TIP3    H229336   8.155   4.997   5.215
 9799TIP3   OH229337   0.266   2.279   3.793
 9799TIP3    H129338   0.171   2.287   3.784
 9799TIP3    H229339   0.280   2.191   3.827
 9800TIP3   OH229340   4.762   4.926   1.244
 9800TIP3    H129341   4.851   4.906   1.273
 9800TIP3    H229342   4.738   4.853   1.187
 9801TIP3   OH229343   1.421   6.649   0.663
 9801TIP3    H129344   1.470   6.728   0.686
 9801TIP3    H229345   1.376   6.672   0.581
 9802TIP3   OH229346   6.670   5.446   0.198
 9802TIP3    H129347   6.624   5.530   0.193
 9802TIP3    H229348   6.686   5.432   0.291
 9803TIP3   OH229349   3.319   3.029   4.113
 9803TIP3    H129350   3.344   3.120   4.096
 9803TIP3    H229351   3.230   3.036   4.149
 9804TIP3   OH229352   4.810   1.468   6.405
 9804TIP3    H129353   4.745   1.538   6.406
 9804TIP3    H229354   4.835   1.457   6.497
 9805TIP3   OH229355   7.309   4.546   6.461
 9805TIP3    H129356   7.276   4.509   6.379
 9805TIP3    H229357   7.307   4.473   6.523
 9806TIP3   OH229358   4.855   0.278   2.069
 9806TIP3    H129359   4.777   0.231   2.039
 9806TIP3    H229360   4.825   0.367   2.086
 9807TIP3   OH229361   1.220   3.286   0.280
 9807TIP3    H129362   1.305   3.249   0.259
 9807TIP3    H229363   1.164   3.210   0.294
 9808TIP3   OH229364   5.400   0.262   6.698
 9808TIP3    H129365   5.481   0.305   6.725
 9808TIP3    H229366   5.354   0.327   6.646
 9809TIP3   OH229367   0.723   6.145   5.773
 9809TIP3    H129368   0.706   6.226   5.725
 9809TIP3    H229369   0.772   6.172   5.850
 9810TIP3   OH229370   7.561   4.674   6.415
 9810TIP3    H129371   7.597   4.698   6.500
 9810TIP3    H229372   7.480   4.627   6.435
 9811TIP3   OH229373   4.514   3.950   3.430
 9811TIP3    H129374   4.541   3.922   3.343
 9811TIP3    H229375   4.437   4.004   3.415
 9812TIP3   OH229376   4.978   6.949   2.945
 9812TIP3    H129377   4.928   6.914   2.871
 9812TIP3    H229378   5.029   7.021   2.908
 9813TIP3   OH229379   1.630   2.288  -0.041
 9813TIP3    H129380   1.632   2.192  -0.037
 9813TIP3    H229381   1.596   2.315   0.044
 9814TIP3   OH229382   7.137   2.582   2.295
 9814TIP3    H129383   7.149   2.490   2.271
 9814TIP3    H229384   7.225   2.615   2.308
 9815TIP3   OH229385   3.313   5.658   5.717
 9815TIP3    H129386   3.348   5.597   5.783
 9815TIP3    H229387   3.341   5.744   5.747
 9816TIP3   OH229388   1.496   1.799   5.360
 9816TIP3    H129389   1.481   1.763   5.273
 9816TIP3    H229390   1.466   1.890   5.354
 9817TIP3   OH229391   2.444   4.624   3.023
 9817TIP3    H129392   2.501   4.595   2.951
 9817TIP3    H229393   2.473   4.573   3.098
 9818TIP3   OH229394   6.299   3.082   3.216
 9818TIP3    H129395   6.205   3.090   3.201
 9818TIP3    H229396   6.328   3.173   3.229
 9819TIP3   OH229397   6.680   5.608   6.095
 9819TIP3    H129398   6.647   5.692   6.126
 9819TIP3    H229399   6.695   5.621   6.001
 9820TIP3   OH229400   6.901   4.647   4.802
 9820TIP3    H129401   6.916   4.619   4.892
 9820TIP3    H229402   6.912   4.742   4.803
 9821TIP3   OH229403   5.810   5.423   3.298
 9821TIP3    H129404   5.838   5.356   3.361
 9821TIP3    H229405   5.859   5.403   3.219
 9822TIP3   OH229406   3.317   0.863   0.538
 9822TIP3    H129407   3.286   0.800   0.473
 9822TIP3    H229408   3.238   0.911   0.564
 9823TIP3   OH229409   4.167   6.934   3.367
 9823TIP3    H129410   4.183   7.029   3.363
 9823TIP3    H229411   4.082   6.925   3.409
 9824TIP3   OH229412   6.932   1.964   5.110
 9824TIP3    H129413   6.900   1.923   5.030
 9824TIP3    H229414   7.013   1.918   5.131
 9825TIP3   OH229415   7.338   7.720   6.265
 9825TIP3    H129416   7.356   7.640   6.215
 9825TIP3    H229417   7.287   7.775   6.205
 9826TIP3   OH229418   8.212   7.806   6.191
 9826TIP3    H129419   8.131   7.757   6.205
 9826TIP3    H229420   8.253   7.810   6.277
 9827TIP3   OH229421   5.291   3.743   6.748
 9827TIP3    H129422   5.364   3.705   6.700
 9827TIP3    H229423   5.286   3.691   6.828
 9828TIP3   OH229424   6.021   6.052   0.445
 9828TIP3    H129425   5.926   6.043   0.455
 9828TIP3    H229426   6.032   6.131   0.393
 9829TIP3   OH229427   4.875   3.251   3.397
 9829TIP3    H129428   4.781   3.268   3.405
 9829TIP3    H229429   4.893   3.252   3.303
 9830TIP3   OH229430   7.444   0.036   5.655
 9830TIP3    H129431   7.482   0.046   5.742
 9830TIP3    H229432   7.465   0.117   5.610
 9831TIP3   OH229433   3.336   7.838   3.029
 9831TIP3    H129434   3.390   7.882   3.095
 9831TIP3    H229435   3.369   7.748   3.028
 9832TIP3   OH229436   0.654   7.517   0.294
 9832TIP3    H129437   0.593   7.493   0.224
 9832TIP3    H229438   0.739   7.522   0.250
 9833TIP3   OH229439   0.987   6.994   6.356
 9833TIP3    H129440   1.007   6.900   6.350
 9833TIP3    H229441   0.931   7.002   6.433
 9834TIP3   OH229442   2.781   7.387   6.265
 9834TIP3    H129443   2.843   7.426   6.203
 9834TIP3    H229444   2.819   7.303   6.289
 9835TIP3   OH229445   0.741   6.902   0.682
 9835TIP3    H129446   0.688   6.969   0.725
 9835TIP3    H229447   0.800   6.871   0.751
 9836TIP3   OH229448   4.915   1.210   6.352
 9836TIP3    H129449   4.898   1.303   6.368
 9836TIP3    H229450   4.829   1.173   6.330
 9837TIP3   OH229451   4.549   2.307   6.822
 9837TIP3    H129452   4.484   2.237   6.833
 9837TIP3    H229453   4.609   2.275   6.754
 9838TIP3   OH229454   6.085   3.018   0.709
 9838TIP3    H129455   6.170   3.005   0.667
 9838TIP3    H229456   6.044   2.931   0.706
 9839TIP3   OH229457   0.477   6.096   6.437
 9839TIP3    H129458   0.439   6.144   6.511
 9839TIP3    H229459   0.453   6.005   6.452
 9840TIP3   OH229460   6.695   3.312   0.857
 9840TIP3    H129461   6.616   3.365   0.859
 9840TIP3    H229462   6.669   3.228   0.894
 9841TIP3   OH229463   2.320   2.298   2.352
 9841TIP3    H129464   2.286   2.229   2.410
 9841TIP3    H229465   2.388   2.340   2.404
 9842TIP3   OH229466   4.778   6.013   5.037
 9842TIP3    H129467   4.759   5.951   4.967
 9842TIP3    H229468   4.832   6.081   4.996
 9843TIP3   OH229469   5.295   6.377   0.664
 9843TIP3    H129470   5.229   6.437   0.630
 9843TIP3    H229471   5.254   6.339   0.742
 9844TIP3   OH229472   7.568   4.213   3.433
 9844TIP3    H129473   7.542   4.213   3.525
 9844TIP3    H229474   7.622   4.135   3.424
 9845TIP3   OH229475   6.579   1.864   6.218
 9845TIP3    H129476   6.648   1.810   6.256
 9845TIP3    H229477   6.605   1.874   6.126
 9846TIP3   OH229478   6.426   0.947   0.454
 9846TIP3    H129479   6.405   1.034   0.491
 9846TIP3    H229480   6.437   0.891   0.531
 9847TIP3   OH229481   4.637   1.587   3.029
 9847TIP3    H129482   4.557   1.560   3.074
 9847TIP3    H229483   4.689   1.508   3.023
 9848TIP3   OH229484   5.012   0.306   0.124
 9848TIP3    H129485   5.084   0.369   0.116
 9848TIP3    H229486   5.016   0.278   0.215
 9849TIP3   OH229487   3.468   1.364   6.535
 9849TIP3    H129488   3.430   1.295   6.589
 9849TIP3    H229489   3.417   1.442   6.556
 9850TIP3   OH229490   7.006   7.827   4.139
 9850TIP3    H129491   6.993   7.748   4.086
 9850TIP3    H229492   7.100   7.830   4.154
 9851TIP3   OH229493   0.780   7.354   0.487
 9851TIP3    H129494   0.804   7.261   0.482
 9851TIP3    H229495   0.727   7.369   0.410
 9852TIP3   OH229496   3.520   1.353   4.507
 9852TIP3    H129497   3.494   1.426   4.450
 9852TIP3    H229498   3.437   1.312   4.532
 9853TIP3   OH229499   6.669   4.034   5.869
 9853TIP3    H129500   6.676   3.942   5.843
 9853TIP3    H229501   6.703   4.083   5.793
 9854TIP3   OH229502   1.439   2.605   1.560
 9854TIP3    H129503   1.431   2.690   1.603
 9854TIP3    H229504   1.396   2.544   1.619
 9855TIP3   OH229505   4.316   6.500   1.995
 9855TIP3    H129506   4.334   6.417   1.950
 9855TIP3    H229507   4.278   6.556   1.927
 9856TIP3   OH229508   5.811   2.353   6.225
 9856TIP3    H129509   5.865   2.319   6.296
 9856TIP3    H229510   5.832   2.446   6.222
 9857TIP3   OH229511   1.709   7.546   1.166
 9857TIP3    H129512   1.630   7.600   1.176
 9857TIP3    H229513   1.695   7.471   1.223
 9858TIP3   OH229514   1.670   5.129   4.863
 9858TIP3    H129515   1.727   5.093   4.930
 9858TIP3    H229516   1.600   5.172   4.912
 9859TIP3   OH229517   4.331   7.360   6.878
 9859TIP3    H129518   4.354   7.448   6.908
 9859TIP3    H229519   4.364   7.357   6.788
 9860TIP3   OH229520   7.756   7.828   3.040
 9860TIP3    H129521   7.740   7.915   3.002
 9860TIP3    H229522   7.807   7.782   2.972
 9861TIP3   OH229523   1.479   3.374   1.335
 9861TIP3    H129524   1.491   3.460   1.296
 9861TIP3    H229525   1.503   3.312   1.266
 9862TIP3   OH229526   1.218   5.292   5.915
 9862TIP3    H129527   1.222   5.386   5.933
 9862TIP3    H229528   1.142   5.262   5.965
 9863TIP3   OH229529   2.994   6.472   6.674
 9863TIP3    H129530   2.955   6.516   6.750
 9863TIP3    H229531   2.931   6.403   6.652
 9864TIP3   OH229532   0.700   4.165   1.072
 9864TIP3    H129533   0.739   4.245   1.108
 9864TIP3    H229534   0.616   4.156   1.118
 9865TIP3   OH229535   0.870   5.157   4.697
 9865TIP3    H129536   0.844   5.067   4.678
 9865TIP3    H229537   0.820   5.210   4.634
 9866TIP3   OH229538   3.332   2.290   5.828
 9866TIP3    H129539   3.310   2.212   5.879
 9866TIP3    H229540   3.257   2.302   5.769
 9867TIP3   OH229541   7.562   0.105   4.734
 9867TIP3    H129542   7.520   0.047   4.798
 9867TIP3    H229543   7.560   0.055   4.652
 9868TIP3   OH229544   4.418   3.302   5.859
 9868TIP3    H129545   4.406   3.396   5.849
 9868TIP3    H229546   4.488   3.293   5.922
 9869TIP3   OH229547   2.668   0.526   3.638
 9869TIP3    H129548   2.741   0.575   3.678
 9869TIP3    H229549   2.690   0.522   3.545
 9870TIP3   OH229550   7.982   2.205   3.433
 9870TIP3    H129551   8.038   2.191   3.357
 9870TIP3    H229552   8.040   2.241   3.500
 9871TIP3   OH229553   4.548   1.611   2.431
 9871TIP3    H129554   4.490   1.590   2.357
 9871TIP3    H229555   4.491   1.604   2.508
 9872TIP3   OH229556   3.635   5.244   2.786
 9872TIP3    H129557   3.699   5.220   2.719
 9872TIP3    H229558   3.581   5.312   2.746
 9873TIP3   OH229559   3.672   6.120   5.479
 9873TIP3    H129560   3.660   6.138   5.386
 9873TIP3    H229561   3.585   6.096   5.510
 9874TIP3   OH229562   6.469   6.912   3.054
 9874TIP3    H129563   6.521   6.889   3.131
 9874TIP3    H229564   6.531   6.910   2.982
 9875TIP3   OH229565   7.252   7.602   4.391
 9875TIP3    H129566   7.250   7.698   4.392
 9875TIP3    H229567   7.163   7.576   4.368
 9876TIP3   OH229568   6.371   5.775   3.279
 9876TIP3    H129569   6.294   5.720   3.293
 9876TIP3    H229570   6.340   5.864   3.290
 9877TIP3   OH229571   7.474   0.200   6.828
 9877TIP3    H129572   7.398   0.250   6.860
 9877TIP3    H229573   7.438   0.116   6.802
 9878TIP3   OH229574   4.410   3.893   0.449
 9878TIP3    H129575   4.431   3.975   0.405
 9878TIP3    H229576   4.354   3.846   0.386
 9879TIP3   OH229577   0.356   3.654   1.332
 9879TIP3    H129578   0.363   3.685   1.422
 9879TIP3    H229579   0.445   3.658   1.298
 9880TIP3   OH229580   3.302   7.822   4.841
 9880TIP3    H129581   3.323   7.806   4.749
 9880TIP3    H229582   3.335   7.745   4.887
 9881TIP3   OH229583   5.713   3.207   6.032
 9881TIP3    H129584   5.761   3.132   6.068
 9881TIP3    H229585   5.647   3.167   5.976
 9882TIP3   OH229586   0.611   1.633   5.312
 9882TIP3    H129587   0.574   1.545   5.306
 9882TIP3    H229588   0.704   1.619   5.329
 9883TIP3   OH229589   0.444   4.720   2.221
 9883TIP3    H129590   0.362   4.767   2.204
 9883TIP3    H229591   0.451   4.720   2.317
 9884TIP3   OH229592   5.961   6.577   6.237
 9884TIP3    H129593   5.871   6.609   6.228
 9884TIP3    H229594   5.998   6.585   6.149
 9885TIP3   OH229595   1.287   3.292   4.422
 9885TIP3    H129596   1.199   3.281   4.387
 9885TIP3    H229597   1.341   3.313   4.345
 9886TIP3   OH229598   5.000   5.003   0.568
 9886TIP3    H129599   5.023   4.914   0.596
 9886TIP3    H229600   5.013   5.002   0.473
 9887TIP3   OH229601   4.662   2.384   6.523
 9887TIP3    H129602   4.734   2.380   6.461
 9887TIP3    H229603   4.682   2.316   6.588
 9888TIP3   OH229604   3.069   4.884   0.148
 9888TIP3    H129605   2.978   4.909   0.164
 9888TIP3    H229606   3.079   4.800   0.193
 9889TIP3   OH229607   6.175   6.809   4.290
 9889TIP3    H129608   6.149   6.818   4.382
 9889TIP3    H229609   6.176   6.714   4.275
 9890TIP3   OH229610   2.890   2.230   4.691
 9890TIP3    H129611   2.934   2.297   4.639
 9890TIP3    H229612   2.817   2.201   4.637
 9891TIP3   OH229613   0.261   3.396   3.571
 9891TIP3    H129614   0.205   3.322   3.546
 9891TIP3    H229615   0.292   3.431   3.487
 9892TIP3   OH229616   3.791   1.219   4.987
 9892TIP3    H129617   3.856   1.174   5.041
 9892TIP3    H229618   3.707   1.184   5.017
 9893TIP3   OH229619   2.335   3.067   2.344
 9893TIP3    H129620   2.281   3.115   2.282
 9893TIP3    H229621   2.410   3.037   2.292
 9894TIP3   OH229622   8.038   6.103   0.341
 9894TIP3    H129623   7.979   6.051   0.395
 9894TIP3    H229624   8.122   6.056   0.345
 9895TIP3   OH229625   4.936   5.441   6.864
 9895TIP3    H129626   4.966   5.369   6.809
 9895TIP3    H229627   5.012   5.499   6.871
 9896TIP3   OH229628   3.273   3.940   4.814
 9896TIP3    H129629   3.302   3.956   4.904
 9896TIP3    H229630   3.306   4.015   4.764
 9897TIP3   OH229631   2.746   5.061   3.581
 9897TIP3    H129632   2.793   5.034   3.660
 9897TIP3    H229633   2.793   5.018   3.509
 9898TIP3   OH229634   7.254   6.866   5.450
 9898TIP3    H129635   7.330   6.811   5.468
 9898TIP3    H229636   7.201   6.860   5.529
 9899TIP3   OH229637   6.471   2.022   2.317
 9899TIP3    H129638   6.477   2.084   2.390
 9899TIP3    H229639   6.431   1.944   2.355
 9900TIP3   OH229640   3.743   5.478   3.720
 9900TIP3    H129641   3.783   5.516   3.642
 9900TIP3    H229642   3.742   5.549   3.785
 9901TIP3   OH229643   4.766   4.466   3.196
 9901TIP3    H129644   4.850   4.476   3.240
 9901TIP3    H229645   4.785   4.414   3.118
 9902TIP3   OH229646   0.563   5.527   5.844
 9902TIP3    H129647   0.470   5.512   5.860
 9902TIP3    H229648   0.566   5.565   5.756
 9903TIP3   OH229649   2.101   2.998   5.514
 9903TIP3    H129650   2.153   2.938   5.568
 9903TIP3    H229651   2.015   2.957   5.509
 9904TIP3   OH229652   6.213   3.816   4.751
 9904TIP3    H129653   6.188   3.852   4.836
 9904TIP3    H229654   6.175   3.876   4.687
 9905TIP3   OH229655   1.172   1.044   4.543
 9905TIP3    H129656   1.221   1.085   4.472
 9905TIP3    H229657   1.239   1.007   4.601
 9906TIP3   OH229658   3.663   7.338   6.605
 9906TIP3    H129659   3.659   7.319   6.699
 9906TIP3    H229660   3.752   7.371   6.591
 9907TIP3   OH229661   4.590   7.131   6.815
 9907TIP3    H129662   4.659   7.197   6.810
 9907TIP3    H229663   4.611   7.069   6.744
 9908TIP3   OH229664   2.738   5.630   6.375
 9908TIP3    H129665   2.714   5.612   6.284
 9908TIP3    H229666   2.807   5.566   6.393
 9909TIP3   OH229667   4.222   5.429   5.204
 9909TIP3    H129668   4.314   5.406   5.217
 9909TIP3    H229669   4.182   5.419   5.290
 9910TIP3   OH229670   3.025   5.687   1.721
 9910TIP3    H129671   3.025   5.664   1.814
 9910TIP3    H229672   3.098   5.638   1.684
 9911TIP3   OH229673   5.727   5.214   0.419
 9911TIP3    H129674   5.821   5.215   0.403
 9911TIP3    H229675   5.719   5.207   0.514
 9912TIP3   OH229676   2.041   4.088   1.052
 9912TIP3    H129677   2.115   4.053   1.102
 9912TIP3    H229678   2.065   4.073   0.960
 9913TIP3   OH229679   2.928   7.126   3.313
 9913TIP3    H129680   2.994   7.172   3.364
 9913TIP3    H229681   2.872   7.084   3.378
 9914TIP3   OH229682   6.089   1.713   5.921
 9914TIP3    H129683   6.091   1.622   5.950
 9914TIP3    H229684   6.047   1.760   5.993
 9915TIP3   OH229685   7.580   6.567   6.558
 9915TIP3    H129686   7.569   6.601   6.647
 9915TIP3    H229687   7.650   6.502   6.567
 9916TIP3   OH229688   5.757   0.977   0.472
 9916TIP3    H129689   5.720   0.928   0.545
 9916TIP3    H229690   5.786   0.910   0.410
 9917TIP3   OH229691   8.011   5.196   5.519
 9917TIP3    H129692   7.927   5.224   5.483
 9917TIP3    H229693   8.074   5.258   5.482
 9918TIP3   OH229694   2.055   7.012   6.835
 9918TIP3    H129695   2.150   7.011   6.834
 9918TIP3    H229696   2.030   6.927   6.798
 9919TIP3   OH229697   5.779   1.902   1.556
 9919TIP3    H129698   5.778   1.894   1.651
 9919TIP3    H229699   5.797   1.995   1.540
 9920TIP3   OH229700   0.700   7.115   2.724
 9920TIP3    H129701   0.737   7.146   2.807
 9920TIP3    H229702   0.716   7.186   2.663
 9921TIP3   OH229703   2.649   1.011   4.313
 9921TIP3    H129704   2.698   1.058   4.380
 9921TIP3    H229705   2.623   0.929   4.355
 9922TIP3   OH229706   5.455   3.523   3.377
 9922TIP3    H129707   5.444   3.568   3.461
 9922TIP3    H229708   5.542   3.550   3.346
 9923TIP3   OH229709   2.401   0.201   0.221
 9923TIP3    H129710   2.386   0.290   0.191
 9923TIP3    H229711   2.351   0.146   0.160
 9924TIP3   OH229712   7.941   5.710   6.181
 9924TIP3    H129713   7.984   5.655   6.246
 9924TIP3    H229714   7.992   5.697   6.101
 9925TIP3   OH229715   5.758   5.880   6.157
 9925TIP3    H129716   5.700   5.956   6.152
 9925TIP3    H229717   5.769   5.852   6.066
 9926TIP3   OH229718   2.321   7.824   6.699
 9926TIP3    H129719   2.349   7.839   6.609
 9926TIP3    H229720   2.389   7.866   6.752
 9927TIP3   OH229721   6.004   0.470   3.547
 9927TIP3    H129722   5.930   0.529   3.534
 9927TIP3    H229723   6.015   0.466   3.642
 9928TIP3   OH229724   1.203   1.683   4.660
 9928TIP3    H129725   1.183   1.593   4.631
 9928TIP3    H229726   1.287   1.676   4.704
 9929TIP3   OH229727   3.718   2.197   5.054
 9929TIP3    H129728   3.672   2.279   5.070
 9929TIP3    H229729   3.750   2.204   4.964
 9930TIP3   OH229730   6.549   0.508   4.315
 9930TIP3    H129731   6.575   0.522   4.406
 9930TIP3    H229732   6.462   0.548   4.309
 9931TIP3   OH229733   3.942   7.111   1.973
 9931TIP3    H129734   3.972   7.159   2.050
 9931TIP3    H229735   3.849   7.133   1.965
 9932TIP3   OH229736   3.941   5.051   4.918
 9932TIP3    H129737   3.881   5.110   4.873
 9932TIP3    H229738   3.963   5.096   4.999
 9933TIP3   OH229739   4.198   0.444   5.771
 9933TIP3    H129740   4.234   0.356   5.780
 9933TIP3    H229741   4.191   0.476   5.861
 9934TIP3   OH229742   3.016   2.286   2.432
 9934TIP3    H129743   3.088   2.233   2.398
 9934TIP3    H229744   2.937   2.239   2.405
 9935TIP3   OH229745   2.320   6.923   2.057
 9935TIP3    H129746   2.253   6.918   1.989
 9935TIP3    H229747   2.400   6.891   2.016
 9936TIP3   OH229748   0.526   1.115   4.163
 9936TIP3    H129749   0.610   1.155   4.142
 9936TIP3    H229750   0.464   1.156   4.102
 9937TIP3   OH229751   5.814   6.855   5.086
 9937TIP3    H129752   5.773   6.770   5.100
 9937TIP3    H229753   5.904   6.835   5.061
 9938TIP3   OH229754   8.028   1.288   1.575
 9938TIP3    H129755   7.974   1.242   1.511
 9938TIP3    H229756   7.990   1.376   1.579
 9939TIP3   OH229757   5.200   7.545   3.259
 9939TIP3    H129758   5.152   7.599   3.322
 9939TIP3    H229759   5.168   7.574   3.174
 9940TIP3   OH229760   2.815   3.759   5.956
 9940TIP3    H129761   2.868   3.803   6.022
 9940TIP3    H229762   2.725   3.787   5.975
 9941TIP3   OH229763   5.970   7.733   2.345
 9941TIP3    H129764   6.012   7.781   2.417
 9941TIP3    H229765   5.903   7.793   2.312
 9942TIP3   OH229766   1.760   6.388   2.751
 9942TIP3    H129767   1.710   6.336   2.814
 9942TIP3    H229768   1.742   6.347   2.666
 9943TIP3   OH229769   1.532   6.220   0.344
 9943TIP3    H129770   1.587   6.204   0.420
 9943TIP3    H229771   1.479   6.296   0.368
 9944TIP3   OH229772   1.520   5.945   5.877
 9944TIP3    H129773   1.464   5.878   5.918
 9944TIP3    H229774   1.496   6.026   5.922
 9945TIP3   OH229775   3.858   7.247   2.990
 9945TIP3    H129776   3.806   7.168   3.006
 9945TIP3    H229777   3.946   7.215   2.973
 9946TIP3   OH229778   0.744   1.966   3.725
 9946TIP3    H129779   0.737   2.029   3.796
 9946TIP3    H229780   0.810   2.003   3.666
 9947TIP3   OH229781   8.358   6.087   1.702
 9947TIP3    H129782   8.384   6.037   1.625
 9947TIP3    H229783   8.279   6.043   1.733
 9948TIP3   OH229784   8.332   6.802   1.327
 9948TIP3    H129785   8.412   6.839   1.364
 9948TIP3    H229786   8.363   6.734   1.267
 9949TIP3   OH229787   1.943   6.247   6.404
 9949TIP3    H129788   1.861   6.262   6.356
 9949TIP3    H229789   2.011   6.253   6.336
 9950TIP3   OH229790   4.106   5.177   1.016
 9950TIP3    H129791   4.025   5.197   1.063
 9950TIP3    H229792   4.093   5.088   0.981
 9951TIP3   OH229793   8.016   5.549   6.404
 9951TIP3    H129794   8.101   5.510   6.384
 9951TIP3    H229795   7.952   5.484   6.375
 9952TIP3   OH229796   6.089   6.872   1.580
 9952TIP3    H129797   6.015   6.931   1.565
 9952TIP3    H229798   6.152   6.925   1.629
 9953TIP3   OH229799   0.636   3.640   5.174
 9953TIP3    H129800   0.611   3.581   5.103
 9953TIP3    H229801   0.604   3.598   5.253
 9954TIP3   OH229802   5.027   6.606   2.887
 9954TIP3    H129803   5.067   6.614   2.974
 9954TIP3    H229804   5.069   6.530   2.848
 9955TIP3   OH229805   1.753   7.655   4.793
 9955TIP3    H129806   1.747   7.585   4.858
 9955TIP3    H229807   1.827   7.709   4.821
 9956TIP3   OH229808   0.114   7.367   4.761
 9956TIP3    H129809   0.080   7.451   4.731
 9956TIP3    H229810   0.177   7.389   4.829
 9957TIP3   OH229811   7.858   3.180   3.194
 9957TIP3    H129812   7.821   3.180   3.282
 9957TIP3    H229813   7.945   3.218   3.204
 9958TIP3   OH229814   5.347   4.601   0.141
 9958TIP3    H129815   5.268   4.655   0.150
 9958TIP3    H229816   5.419   4.663   0.144
 9959TIP3   OH229817   4.290   4.135   3.373
 9959TIP3    H129818   4.201   4.172   3.376
 9959TIP3    H229819   4.345   4.202   3.413
 9960TIP3   OH229820   2.189   1.778   4.753
 9960TIP3    H129821   2.243   1.726   4.694
 9960TIP3    H229822   2.154   1.849   4.699
 9961TIP3   OH229823   7.795   4.315   6.491
 9961TIP3    H129824   7.774   4.367   6.413
 9961TIP3    H229825   7.883   4.280   6.473
 9962TIP3   OH229826   8.153   6.031   0.916
 9962TIP3    H129827   8.224   6.095   0.912
 9962TIP3    H229828   8.096   6.062   0.986
 9963TIP3   OH229829   2.610   3.216   4.877
 9963TIP3    H129830   2.688   3.218   4.932
 9963TIP3    H229831   2.570   3.302   4.890
 9964TIP3   OH229832   3.146   6.247   3.958
 9964TIP3    H129833   3.066   6.197   3.939
 9964TIP3    H229834   3.178   6.210   4.040
 9965TIP3   OH229835   7.451   5.912   3.940
 9965TIP3    H129836   7.486   5.828   3.971
 9965TIP3    H229837   7.371   5.924   3.991
 9966TIP3   OH229838   7.007   6.002   6.388
 9966TIP3    H129839   7.043   5.914   6.376
 9966TIP3    H229840   7.044   6.053   6.315
 9967TIP3   OH229841   2.665   0.473   6.313
 9967TIP3    H129842   2.703   0.391   6.344
 9967TIP3    H229843   2.590   0.488   6.370
 9968TIP3   OH229844   2.838   6.943   4.568
 9968TIP3    H129845   2.876   7.027   4.539
 9968TIP3    H229846   2.762   6.931   4.512
 9969TIP3   OH229847   2.546   6.205   4.775
 9969TIP3    H129848   2.540   6.138   4.708
 9969TIP3    H229849   2.640   6.219   4.788
 9970TIP3   OH229850   6.443   1.335   5.798
 9970TIP3    H129851   6.376   1.353   5.732
 9970TIP3    H229852   6.525   1.344   5.751
 9971TIP3   OH229853   6.835   3.222   2.280
 9971TIP3    H129854   6.810   3.245   2.190
 9971TIP3    H229855   6.909   3.279   2.299
 9972TIP3   OH229856   4.220   5.485   2.274
 9972TIP3    H129857   4.139   5.451   2.311
 9972TIP3    H229858   4.192   5.525   2.191
 9973TIP3   OH229859   6.978   0.729   4.460
 9973TIP3    H129860   6.917   0.660   4.432
 9973TIP3    H229861   7.030   0.689   4.530
 9974TIP3   OH229862   7.482   3.403   5.242
 9974TIP3    H129863   7.565   3.387   5.197
 9974TIP3    H229864   7.416   3.400   5.172
 9975TIP3   OH229865   5.579   0.714   0.184
 9975TIP3    H129866   5.530   0.641   0.149
 9975TIP3    H229867   5.602   0.687   0.273
 9976TIP3   OH229868   5.226   3.645   5.950
 9976TIP3    H129869   5.271   3.706   6.008
 9976TIP3    H229870   5.146   3.623   5.996
 9977TIP3   OH229871   7.751   6.937   6.114
 9977TIP3    H129872   7.832   6.890   6.133
 9977TIP3    H229873   7.747   6.939   6.019
 9978TIP3   OH229874   6.499   5.148   4.132
 9978TIP3    H129875   6.526   5.096   4.208
 9978TIP3    H229876   6.578   5.152   4.077
 9979TIP3   OH229877   8.296   5.839   2.038
 9979TIP3    H129878   8.209   5.876   2.022
 9979TIP3    H229879   8.278   5.755   2.082
 9980TIP3   OH229880   0.957   3.949   6.084
 9980TIP3    H129881   0.905   3.962   6.005
 9980TIP3    H229882   0.897   3.907   6.146
 9981TIP3   OH229883   4.285   0.100   0.553
 9981TIP3    H129884   4.201   0.068   0.522
 9981TIP3    H229885   4.290   0.071   0.644
 9982TIP3   OH229886   0.459   0.796   1.054
 9982TIP3    H129887   0.512   0.773   0.978
 9982TIP3    H229888   0.492   0.742   1.125
 9983TIP3   OH229889   1.835   6.475   0.235
 9983TIP3    H129890   1.860   6.383   0.228
 9983TIP3    H229891   1.758   6.483   0.178
 9984TIP3   OH229892   1.713   2.626   5.502
 9984TIP3    H129893   1.735   2.535   5.522
 9984TIP3    H229894   1.783   2.654   5.443
 9985TIP3   OH229895   0.944   4.377   1.518
 9985TIP3    H129896   0.938   4.319   1.594
 9985TIP3    H229897   0.897   4.456   1.545
 9986TIP3   OH229898   3.436   6.945   3.482
 9986TIP3    H129899   3.435   6.929   3.388
 9986TIP3    H229900   3.383   6.876   3.519
 9987TIP3   OH229901   6.843   7.342   0.183
 9987TIP3    H129902   6.763   7.373   0.142
 9987TIP3    H229903   6.825   7.251   0.207
 9988TIP3   OH229904   3.206   2.920   5.289
 9988TIP3    H129905   3.245   2.858   5.228
 9988TIP3    H229906   3.240   2.894   5.375
 9989TIP3   OH229907   0.693   5.580   4.673
 9989TIP3    H129908   0.754   5.617   4.609
 9989TIP3    H229909   0.745   5.572   4.753
 9990TIP3   OH229910   6.847   2.402   1.304
 9990TIP3    H129911   6.909   2.363   1.243
 9990TIP3    H229912   6.770   2.345   1.301
 9991TIP3   OH229913   6.394   1.818   4.814
 9991TIP3    H129914   6.317   1.821   4.757
 9991TIP3    H229915   6.423   1.727   4.809
 9992TIP3   OH229916   0.830   6.884   3.229
 9992TIP3    H129917   0.845   6.832   3.308
 9992TIP3    H229918   0.841   6.975   3.258
 9993TIP3   OH229919   0.160   6.021   2.663
 9993TIP3    H129920   0.222   5.949   2.652
 9993TIP3    H229921   0.074   5.981   2.654
 9994TIP3   OH229922   2.010   5.713   1.979
 9994TIP3    H129923   2.049   5.773   2.043
 9994TIP3    H229924   2.082   5.656   1.953
 9995TIP3   OH229925   6.560   3.029   5.199
 9995TIP3    H129926   6.627   2.997   5.260
 9995TIP3    H229927   6.597   3.013   5.112
 9996TIP3   OH229928   2.937   7.747   1.931
 9996TIP3    H129929   2.865   7.718   1.875
 9996TIP3    H229930   2.950   7.675   1.993
 9997TIP3   OH229931   5.071   2.459   3.086
 9997TIP3    H129932   5.144   2.396   3.092
 9997TIP3    H229933   4.993   2.404   3.091
 9998TIP3   OH229934   5.996   6.125   6.479
 9998TIP3    H129935   6.036   6.075   6.550
 9998TIP3    H229936   6.058   6.117   6.406
 9999TIP3   OH229937   1.854   7.719   1.009
 9999TIP3    H129938   1.884   7.661   0.938
 9999TIP3    H229939   1.801   7.663   1.065
10000TIP3   OH229940   6.627   6.300   6.185
10000TIP3    H129941   6.559   6.253   6.234
10000TIP3    H229942   6.600   6.292   6.094
10001TIP3   OH229943   3.872   5.267   1.198
10001TIP3    H129944   3.808   5.196   1.209
10001TIP3    H229945   3.838   5.338   1.253
10002TIP3   OH229946   4.182   1.571   5.617
10002TIP3    H129947   4.100   1.537   5.656
10002TIP3    H229948   4.153   1.642   5.560
10003TIP3   OH229949   5.683   3.157   0.101
10003TIP3    H129950   5.768   3.148   0.144
10003TIP3    H229951   5.704   3.176   0.009
10004TIP3   OH229952   8.103   1.879   2.956
10004TIP3    H129953   8.056   1.922   3.027
10004TIP3    H229954   8.035   1.856   2.892
10005TIP3   OH229955   4.493   0.859   6.840
10005TIP3    H129956   4.529   0.794   6.779
10005TIP3    H229957   4.424   0.812   6.887
10006TIP3   OH229958   7.930   5.276   4.334
10006TIP3    H129959   7.850   5.316   4.298
10006TIP3    H229960   7.963   5.221   4.263
10007TIP3   OH229961   5.283   5.507   6.127
10007TIP3    H129962   5.339   5.493   6.203
10007TIP3    H229963   5.249   5.596   6.138
10008TIP3   OH229964   5.710   7.117   3.532
10008TIP3    H129965   5.703   7.168   3.613
10008TIP3    H229966   5.674   7.032   3.555
10009TIP3   OH229967   1.511   4.497   3.650
10009TIP3    H129968   1.568   4.457   3.584
10009TIP3    H229969   1.512   4.436   3.723
10010TIP3   OH229970   5.448   5.254   6.628
10010TIP3    H129971   5.461   5.220   6.717
10010TIP3    H229972   5.520   5.314   6.615
10011TIP3   OH229973   4.757   4.630   3.670
10011TIP3    H129974   4.690   4.629   3.738
10011TIP3    H229975   4.722   4.573   3.601
10012TIP3   OH229976   4.684   3.068   4.035
10012TIP3    H129977   4.603   3.068   4.085
10012TIP3    H229978   4.690   2.979   3.998
10013TIP3   OH229979   4.415   1.444   1.175
10013TIP3    H129980   4.502   1.416   1.203
10013TIP3    H229981   4.369   1.465   1.256
10014TIP3   OH229982   6.960   0.841  -0.044
10014TIP3    H129983   6.940   0.749  -0.029
10014TIP3    H229984   6.913   0.888   0.025
10015TIP3   OH229985   2.051   5.262   6.768
10015TIP3    H129986   2.073   5.349   6.733
10015TIP3    H229987   2.135   5.226   6.795
10016TIP3   OH229988   6.058   1.614   0.105
10016TIP3    H129989   6.030   1.626   0.196
10016TIP3    H229990   6.031   1.695   0.061
10017TIP3   OH229991   3.994   1.484   6.124
10017TIP3    H129992   3.899   1.495   6.130
10017TIP3    H229993   4.018   1.442   6.207
10018TIP3   OH229994   0.152   4.667   4.399
10018TIP3    H129995   0.190   4.579   4.398
10018TIP3    H229996   0.127   4.682   4.490
10019TIP3   OH229997   1.589   6.642   4.635
10019TIP3    H129998   1.588   6.690   4.717
10019TIP3    H229999   1.681   6.630   4.614
10020TIP3   OH230000   7.800   0.569   5.984
10020TIP3    H130001   7.841   0.623   6.051
10020TIP3    H230002   7.731   0.625   5.947
10021TIP3   OH230003   1.553   6.817   3.612
10021TIP3    H130004   1.639   6.774   3.610
10021TIP3    H230005   1.564   6.894   3.556
10022TIP3   OH230006   3.482   1.486   3.600
10022TIP3    H130007   3.467   1.411   3.543
10022TIP3    H230008   3.417   1.477   3.670
10023TIP3   OH230009   6.427   3.466   2.696
10023TIP3    H130010   6.376   3.547   2.684
10023TIP3    H230011   6.404   3.412   2.620
10024TIP3   OH230012   4.578   3.740   4.333
10024TIP3    H130013   4.514   3.688   4.284
10024TIP3    H230014   4.550   3.732   4.424
10025TIP3   OH230015   4.686   2.616   4.255
10025TIP3    H130016   4.616   2.581   4.200
10025TIP3    H230017   4.658   2.596   4.344
10026TIP3   OH230018   4.210   7.773   5.435
10026TIP3    H130019   4.202   7.801   5.526
10026TIP3    H230020   4.259   7.691   5.439
10027TIP3   OH230021   0.783   6.998   6.648
10027TIP3    H130022   0.780   7.027   6.739
10027TIP3    H230023   0.693   7.001   6.618
10028TIP3   OH230024   5.681   7.358   2.042
10028TIP3    H130025   5.739   7.425   2.006
10028TIP3    H230026   5.669   7.296   1.970
10029TIP3   OH230027   6.823   4.554   2.069
10029TIP3    H130028   6.885   4.627   2.068
10029TIP3    H230029   6.811   4.532   1.977
10030TIP3   OH230030   3.887   4.884   3.967
10030TIP3    H130031   3.881   4.957   4.029
10030TIP3    H230032   3.826   4.818   4.001
10031TIP3   OH230033   5.140   5.567   1.632
10031TIP3    H130034   5.068   5.555   1.570
10031TIP3    H230035   5.103   5.620   1.702
10032TIP3   OH230036   8.096   3.137   2.132
10032TIP3    H130037   8.045   3.207   2.092
10032TIP3    H230038   8.033   3.067   2.147
10033TIP3   OH230039   2.082   4.504   1.998
10033TIP3    H130040   2.011   4.480   2.058
10033TIP3    H230041   2.040   4.509   1.912
10034TIP3   OH230042   7.117   2.642   3.477
10034TIP3    H130043   7.157   2.725   3.450
10034TIP3    H230044   7.121   2.644   3.572
10035TIP3   OH230045   3.886   1.749   3.387
10035TIP3    H130046   3.843   1.826   3.423
10035TIP3    H230047   3.821   1.710   3.328
10036TIP3   OH230048   0.996   2.558   0.724
10036TIP3    H130049   0.937   2.487   0.750
10036TIP3    H230050   1.027   2.533   0.637
10037TIP3   OH230051   8.084   3.007   4.243
10037TIP3    H130052   8.035   3.062   4.305
10037TIP3    H230053   8.083   2.920   4.283
10038TIP3   OH230054   1.120   2.096   0.140
10038TIP3    H130055   1.025   2.109   0.150
10038TIP3    H230056   1.128   2.009   0.103
10039TIP3   OH230057   4.240   4.467   6.508
10039TIP3    H130058   4.319   4.447   6.457
10039TIP3    H230059   4.265   4.448   6.599
10040TIP3   OH230060   6.995   0.804   4.069
10040TIP3    H130061   6.959   0.717   4.084
10040TIP3    H230062   6.935   0.845   4.007
10041TIP3   OH230063   5.866   1.285   2.952
10041TIP3    H130064   5.915   1.252   2.876
10041TIP3    H230065   5.849   1.207   3.006
10042TIP3   OH230066   1.489   3.031   1.418
10042TIP3    H130067   1.416   2.977   1.449
10042TIP3    H230068   1.521   3.075   1.497
10043TIP3   OH230069   5.608   6.630   4.876
10043TIP3    H130070   5.578   6.676   4.797
10043TIP3    H230071   5.601   6.537   4.854
10044TIP3   OH230072   7.032   2.538   5.071
10044TIP3    H130073   7.031   2.545   5.167
10044TIP3    H230074   7.118   2.570   5.046
10045TIP3   OH230075   4.093   7.921   0.609
10045TIP3    H130076   4.055   8.001   0.645
10045TIP3    H230077   4.020   7.859   0.605
10046TIP3   OH230078   0.465   2.471   3.868
10046TIP3    H130079   0.388   2.413   3.865
10046TIP3    H230080   0.487   2.486   3.777
10047TIP3   OH230081   3.563   3.384   6.582
10047TIP3    H130082   3.487   3.398   6.525
10047TIP3    H230083   3.639   3.394   6.524
10048TIP3   OH230084   7.157   2.489   0.860
10048TIP3    H130085   7.181   2.397   0.873
10048TIP3    H230086   7.181   2.532   0.942
10049TIP3   OH230087   2.310   1.109   0.334
10049TIP3    H130088   2.274   1.130   0.247
10049TIP3    H230089   2.398   1.076   0.316
10050TIP3   OH230090   2.082   7.217   6.025
10050TIP3    H130091   2.164   7.266   6.016
10050TIP3    H230092   2.110   7.128   6.046
10051TIP3   OH230093   6.161   6.995   5.435
10051TIP3    H130094   6.195   6.972   5.522
10051TIP3    H230095   6.201   7.079   5.414
10052TIP3   OH230096   0.202   4.801   4.170
10052TIP3    H130097   0.129   4.811   4.108
10052TIP3    H230098   0.164   4.755   4.245
10053TIP3   OH230099   0.068   1.867   2.024
10053TIP3    H130100   0.091   1.793   2.080
10053TIP3    H230101   0.151   1.911   2.008
10054TIP3   OH230102   2.146   3.091   2.013
10054TIP3    H130103   2.198   3.047   1.945
10054TIP3    H230104   2.141   3.026   2.084
10055TIP3   OH230105   1.235   2.532   5.059
10055TIP3    H130106   1.204   2.490   5.139
10055TIP3    H230107   1.281   2.610   5.089
10056TIP3   OH230108   4.855   2.279   4.955
10056TIP3    H130109   4.817   2.360   4.920
10056TIP3    H230110   4.902   2.241   4.881
10057TIP3   OH230111   3.059   5.235   5.891
10057TIP3    H130112   3.114   5.200   5.821
10057TIP3    H230113   3.055   5.329   5.873
10058TIP3   OH230114   1.441   6.259   3.157
10058TIP3    H130115   1.444   6.232   3.248
10058TIP3    H230116   1.419   6.353   3.160
10059TIP3   OH230117   4.708   2.689   5.262
10059TIP3    H130118   4.719   2.775   5.303
10059TIP3    H230119   4.680   2.632   5.333
10060TIP3   OH230120   4.824   2.971   2.135
10060TIP3    H130121   4.895   2.909   2.124
10060TIP3    H230122   4.829   3.000   2.226
10061TIP3   OH230123   3.290   4.998   4.473
10061TIP3    H130124   3.229   5.072   4.477
10061TIP3    H230125   3.377   5.038   4.471
10062TIP3   OH230126   4.335   1.645   1.379
10062TIP3    H130127   4.393   1.711   1.339
10062TIP3    H230128   4.267   1.697   1.423
10063TIP3   OH230129   2.254   5.550   4.445
10063TIP3    H130130   2.189   5.567   4.378
10063TIP3    H230131   2.336   5.536   4.396
10064TIP3   OH230132   3.183   7.702   6.524
10064TIP3    H130133   3.252   7.638   6.506
10064TIP3    H230134   3.209   7.743   6.606
10065TIP3   OH230135   3.084   6.997   6.236
10065TIP3    H130136   3.045   7.014   6.150
10065TIP3    H230137   3.029   7.046   6.297
10066TIP3   OH230138   4.209   5.966   3.879
10066TIP3    H130139   4.119   5.978   3.910
10066TIP3    H230140   4.200   5.913   3.799
10067TIP3   OH230141   6.146   2.839   1.606
10067TIP3    H130142   6.120   2.795   1.686
10067TIP3    H230143   6.204   2.777   1.561
10068TIP3   OH230144   1.356   3.867   3.755
10068TIP3    H130145   1.404   3.799   3.708
10068TIP3    H230146   1.272   3.827   3.776
10069TIP3   OH230147   3.460   1.061   5.342
10069TIP3    H130148   3.550   1.035   5.322
10069TIP3    H230149   3.454   1.152   5.311
10070TIP3   OH230150   3.320   2.612   5.411
10070TIP3    H130151   3.331   2.691   5.464
10070TIP3    H230152   3.234   2.577   5.437
10071TIP3   OH230153   4.141   6.404   1.112
10071TIP3    H130154   4.176   6.491   1.095
10071TIP3    H230155   4.208   6.361   1.166
10072TIP3   OH230156   7.147   6.725   1.881
10072TIP3    H130157   7.115   6.788   1.945
10072TIP3    H230158   7.215   6.676   1.928
10073TIP3   OH230159   0.544   6.439   6.707
10073TIP3    H130160   0.614   6.474   6.761
10073TIP3    H230161   0.533   6.348   6.737
10074TIP3   OH230162   4.054   7.500   2.128
10074TIP3    H130163   4.091   7.528   2.212
10074TIP3    H230164   4.003   7.422   2.150
10075TIP3   OH230165   6.707   0.941   3.343
10075TIP3    H130166   6.689   1.005   3.412
10075TIP3    H230167   6.787   0.897   3.372
10076TIP3   OH230168   6.602   6.475   1.623
10076TIP3    H130169   6.627   6.566   1.638
10076TIP3    H230170   6.681   6.425   1.644
10077TIP3   OH230171   1.056   7.335   1.795
10077TIP3    H130172   1.139   7.296   1.824
10077TIP3    H230173   0.990   7.296   1.852
10078TIP3   OH230174   1.110   6.238   4.073
10078TIP3    H130175   1.111   6.322   4.120
10078TIP3    H230176   1.202   6.219   4.056
10079TIP3   OH230177   1.557   1.698   2.007
10079TIP3    H130178   1.525   1.701   2.098
10079TIP3    H230179   1.536   1.609   1.978
10080TIP3   OH230180   2.852   2.733   4.375
10080TIP3    H130181   2.925   2.691   4.329
10080TIP3    H230182   2.803   2.778   4.307
10081TIP3   OH230183   6.962   4.277   3.469
10081TIP3    H130184   6.911   4.331   3.529
10081TIP3    H230185   6.988   4.336   3.399
10082TIP3   OH230186   4.920   2.965   4.245
10082TIP3    H130187   4.939   2.871   4.243
10082TIP3    H230188   4.950   2.997   4.159
10083TIP3   OH230189   5.448   4.214   1.435
10083TIP3    H130190   5.370   4.163   1.455
10083TIP3    H230191   5.429   4.254   1.350
10084TIP3   OH230192   1.124   1.840   0.048
10084TIP3    H130193   1.099   1.843  -0.045
10084TIP3    H230194   1.068   1.771   0.085
10085TIP3   OH230195   4.628   5.806   1.373
10085TIP3    H130196   4.585   5.868   1.431
10085TIP3    H230197   4.702   5.856   1.336
10086TIP3   OH230198   7.074   2.760   0.752
10086TIP3    H130199   7.131   2.690   0.784
10086TIP3    H230200   7.134   2.823   0.712
10087TIP3   OH230201   5.570   1.271   3.645
10087TIP3    H130202   5.573   1.178   3.668
10087TIP3    H230203   5.501   1.277   3.579
10088TIP3   OH230204   1.614   7.408   0.011
10088TIP3    H130205   1.556   7.355  -0.043
10088TIP3    H230206   1.558   7.480   0.042
10089TIP3   OH230207   8.064   5.937   1.941
10089TIP3    H130208   8.046   6.025   1.974
10089TIP3    H230209   8.057   5.945   1.846
10090TIP3   OH230210   0.705   4.908   5.250
10090TIP3    H130211   0.764   4.952   5.311
10090TIP3    H230212   0.624   4.896   5.299
10091TIP3   OH230213   4.288   1.138   6.803
10091TIP3    H130214   4.200   1.171   6.787
10091TIP3    H230215   4.292   1.127   6.898
10092TIP3   OH230216   7.136   0.554   0.481
10092TIP3    H130217   7.198   0.575   0.411
10092TIP3    H230218   7.060   0.608   0.464
10093TIP3   OH230219   2.466   1.912   6.400
10093TIP3    H130220   2.404   1.913   6.474
10093TIP3    H230221   2.435   1.982   6.342
10094TIP3   OH230222   5.328   3.954   0.239
10094TIP3    H130223   5.398   3.918   0.184
10094TIP3    H230224   5.300   3.880   0.293
10095TIP3   OH230225   7.801   5.375   0.956
10095TIP3    H130226   7.788   5.282   0.934
10095TIP3    H230227   7.735   5.421   0.904
10096TIP3   OH230228   1.602   2.964   5.279
10096TIP3    H130229   1.566   3.033   5.224
10096TIP3    H230230   1.677   2.930   5.231
10097TIP3   OH230231   3.957   3.157   0.865
10097TIP3    H130232   3.903   3.224   0.907
10097TIP3    H230233   3.988   3.198   0.784
10098TIP3   OH230234   2.129   3.538   3.830
10098TIP3    H130235   2.196   3.541   3.899
10098TIP3    H230236   2.101   3.447   3.827
10099TIP3   OH230237   0.388   6.720   5.751
10099TIP3    H130238   0.445   6.732   5.828
10099TIP3    H230239   0.299   6.722   5.787
10100TIP3   OH230240   1.818   1.435   6.636
10100TIP3    H130241   1.885   1.381   6.678
10100TIP3    H230242   1.754   1.453   6.706
10101TIP3   OH230243   5.454   7.647   6.584
10101TIP3    H130244   5.370   7.643   6.631
10101TIP3    H230245   5.457   7.736   6.549
10102TIP3   OH230246   2.109   3.757   0.123
10102TIP3    H130247   2.078   3.761   0.032
10102TIP3    H230248   2.082   3.841   0.161
10103TIP3   OH230249   1.951   1.657   4.467
10103TIP3    H130250   1.942   1.567   4.436
10103TIP3    H230251   1.870   1.700   4.438
10104TIP3   OH230252   0.907   5.432   0.806
10104TIP3    H130253   1.002   5.439   0.805
10104TIP3    H230254   0.887   5.372   0.734
10105TIP3   OH230255   6.039   1.061   3.104
10105TIP3    H130256   6.014   1.147   3.138
10105TIP3    H230257   6.133   1.068   3.088
10106TIP3   OH230258   5.802   0.325   4.054
10106TIP3    H130259   5.836   0.337   4.143
10106TIP3    H230260   5.753   0.405   4.037
10107TIP3   OH230261   6.562   0.623   0.148
10107TIP3    H130262   6.613   0.681   0.204
10107TIP3    H230263   6.627   0.578   0.094
10108TIP3   OH230264   6.444   3.760   0.050
10108TIP3    H130265   6.436   3.764   0.145
10108TIP3    H230266   6.509   3.826   0.029
10109TIP3   OH230267   5.388   0.893   3.428
10109TIP3    H130268   5.480   0.898   3.455
10109TIP3    H230269   5.354   0.982   3.442
10110TIP3   OH230270   1.353   3.483   0.605
10110TIP3    H130271   1.307   3.486   0.689
10110TIP3    H230272   1.297   3.532   0.545
10111TIP3   OH230273   8.054   5.958   4.595
10111TIP3    H130274   8.084   5.976   4.684
10111TIP3    H230275   8.076   5.867   4.579
10112TIP3   OH230276   2.761   0.898   2.110
10112TIP3    H130277   2.700   0.910   2.037
10112TIP3    H230278   2.704   0.880   2.186
10113TIP3   OH230279   1.702   4.439   3.982
10113TIP3    H130280   1.637   4.508   3.996
10113TIP3    H230281   1.691   4.380   4.057
10114TIP3   OH230282   0.148   5.196   3.677
10114TIP3    H130283   0.110   5.245   3.604
10114TIP3    H230284   0.076   5.141   3.708
10115TIP3   OH230285   3.548   3.497   5.415
10115TIP3    H130286   3.457   3.503   5.386
10115TIP3    H230287   3.545   3.447   5.497
10116TIP3   OH230288   2.644   6.381   5.282
10116TIP3    H130289   2.566   6.355   5.332
10116TIP3    H230290   2.650   6.476   5.296
10117TIP3   OH230291   0.515   4.930   1.784
10117TIP3    H130292   0.425   4.959   1.771
10117TIP3    H230293   0.544   4.978   1.862
10118TIP3   OH230294   7.256   1.757   2.960
10118TIP3    H130295   7.302   1.745   2.877
10118TIP3    H230296   7.164   1.748   2.938
10119TIP3   OH230297   4.715   2.760   6.829
10119TIP3    H130298   4.687   2.765   6.738
10119TIP3    H230299   4.736   2.668   6.843
10120TIP3   OH230300   1.248   6.233   2.213
10120TIP3    H130301   1.172   6.291   2.212
10120TIP3    H230302   1.257   6.208   2.305
10121TIP3   OH230303   7.476   2.943   4.634
10121TIP3    H130304   7.430   2.882   4.577
10121TIP3    H230305   7.560   2.901   4.651
10122TIP3   OH230306   7.114   0.364   1.091
10122TIP3    H130307   7.130   0.343   1.183
10122TIP3    H230308   7.067   0.447   1.093
10123TIP3   OH230309   5.811   2.275   3.965
10123TIP3    H130310   5.739   2.261   4.026
10123TIP3    H230311   5.798   2.364   3.932
10124TIP3   OH230312   1.382   0.854   4.639
10124TIP3    H130313   1.464   0.837   4.685
10124TIP3    H230314   1.381   0.789   4.568
10125TIP3   OH230315   6.094   3.669   5.940
10125TIP3    H130316   6.068   3.626   6.021
10125TIP3    H230317   6.189   3.661   5.937
10126TIP3   OH230318   4.113   5.630   4.441
10126TIP3    H130319   4.200   5.662   4.418
10126TIP3    H230320   4.056   5.706   4.428
10127TIP3   OH230321   5.299   6.802   6.724
10127TIP3    H130322   5.260   6.782   6.809
10127TIP3    H230323   5.394   6.799   6.740
10128TIP3   OH230324   3.884   6.254   6.016
10128TIP3    H130325   3.843   6.250   6.102
10128TIP3    H230326   3.974   6.279   6.033
10129TIP3   OH230327   1.377   6.647   1.886
10129TIP3    H130328   1.329   6.648   1.803
10129TIP3    H230329   1.436   6.572   1.879
10130TIP3   OH230330   5.030   1.821   0.950
10130TIP3    H130331   5.099   1.820   1.017
10130TIP3    H230332   4.952   1.850   0.997
10131TIP3   OH230333   2.110   4.480   6.693
10131TIP3    H130334   2.160   4.410   6.734
10131TIP3    H230335   2.098   4.545   6.763
10132TIP3   OH230336   6.748   3.050   5.897
10132TIP3    H130337   6.710   3.081   5.979
10132TIP3    H230338   6.809   2.981   5.924
10133TIP3   OH230339   0.485   3.358   4.406
10133TIP3    H130340   0.444   3.444   4.396
10133TIP3    H230341   0.570   3.366   4.363
10134TIP3   OH230342   4.459   7.447   0.478
10134TIP3    H130343   4.522   7.384   0.514
10134TIP3    H230344   4.482   7.530   0.519
10135TIP3   OH230345   4.049   3.439   0.740
10135TIP3    H130346   4.077   3.442   0.832
10135TIP3    H230347   3.965   3.485   0.740
10136TIP3   OH230348   5.637   0.817   3.227
10136TIP3    H130349   5.648   0.722   3.220
10136TIP3    H230350   5.606   0.831   3.316
10137TIP3   OH230351   1.799   2.982   5.900
10137TIP3    H130352   1.822   3.046   5.968
10137TIP3    H230353   1.769   3.035   5.827
10138TIP3   OH230354   0.848   2.856   3.367
10138TIP3    H130355   0.916   2.793   3.390
10138TIP3    H230356   0.776   2.802   3.333
10139TIP3   OH230357   6.201   3.461   4.723
10139TIP3    H130358   6.140   3.457   4.796
10139TIP3    H230359   6.169   3.533   4.668
10140TIP3   OH230360   7.156   0.120   5.873
10140TIP3    H130361   7.224   0.175   5.833
10140TIP3    H230362   7.151   0.043   5.816
10141TIP3   OH230363   0.814   6.732   4.557
10141TIP3    H130364   0.742   6.790   4.532
10141TIP3    H230365   0.771   6.658   4.599
10142TIP3   OH230366   5.268   2.217   0.779
10142TIP3    H130367   5.283   2.124   0.764
10142TIP3    H230368   5.317   2.236   0.859
10143TIP3   OH230369   2.650   5.417   6.780
10143TIP3    H130370   2.704   5.421   6.858
10143TIP3    H230371   2.664   5.328   6.747
10144TIP3   OH230372   6.195   7.080   3.830
10144TIP3    H130373   6.251   7.157   3.823
10144TIP3    H230374   6.242   7.021   3.889
10145TIP3   OH230375   5.505   5.464   1.102
10145TIP3    H130376   5.446   5.389   1.102
10145TIP3    H230377   5.548   5.461   1.187
10146TIP3   OH230378   6.950   0.530   1.847
10146TIP3    H130379   7.000   0.511   1.926
10146TIP3    H230380   6.871   0.477   1.854
10147TIP3   OH230381   3.056   6.998   5.075
10147TIP3    H130382   3.108   7.053   5.132
10147TIP3    H230383   2.986   7.055   5.043
10148TIP3   OH230384   6.469   4.706   1.141
10148TIP3    H130385   6.405   4.745   1.200
10148TIP3    H230386   6.417   4.654   1.080
10149TIP3   OH230387   0.112   4.465   0.682
10149TIP3    H130388   0.129   4.382   0.727
10149TIP3    H230389   0.019   4.482   0.698
10150TIP3   OH230390   2.477   1.713   4.639
10150TIP3    H130391   2.544   1.770   4.676
10150TIP3    H230392   2.526   1.639   4.602
10151TIP3   OH230393   1.137   5.329   1.026
10151TIP3    H130394   1.045   5.310   1.007
10151TIP3    H230395   1.156   5.279   1.105
10152TIP3   OH230396   1.654   5.660   6.163
10152TIP3    H130397   1.610   5.716   6.227
10152TIP3    H230398   1.700   5.721   6.106
10153TIP3   OH230399   0.437   7.574   6.073
10153TIP3    H130400   0.404   7.604   5.989
10153TIP3    H230401   0.516   7.626   6.088
10154TIP3   OH230402   2.347   3.723   3.222
10154TIP3    H130403   2.279   3.713   3.288
10154TIP3    H230404   2.312   3.681   3.144
10155TIP3   OH230405   0.405   5.609   6.640
10155TIP3    H130406   0.312   5.586   6.643
10155TIP3    H230407   0.450   5.526   6.625
10156TIP3   OH230408   6.878   4.540   4.088
10156TIP3    H130409   6.944   4.518   4.153
10156TIP3    H230410   6.880   4.635   4.083
10157TIP3   OH230411   3.578   2.101   6.751
10157TIP3    H130412   3.595   2.143   6.667
10157TIP3    H230413   3.665   2.092   6.791
10158TIP3   OH230414   0.576   2.447   0.880
10158TIP3    H130415   0.649   2.465   0.939
10158TIP3    H230416   0.590   2.505   0.805
10159TIP3   OH230417   1.652   2.591   3.030
10159TIP3    H130418   1.570   2.555   3.062
10159TIP3    H230419   1.669   2.544   2.949
10160TIP3   OH230420   1.673   1.869   1.790
10160TIP3    H130421   1.761   1.896   1.764
10160TIP3    H230422   1.685   1.784   1.833
10161TIP3   OH230423   0.282   3.419   4.867
10161TIP3    H130424   0.238   3.374   4.938
10161TIP3    H230425   0.215   3.476   4.829
10162TIP3   OH230426   4.359   0.334   1.629
10162TIP3    H130427   4.419   0.271   1.667
10162TIP3    H230428   4.283   0.332   1.686
10163TIP3   OH230429   6.723   5.146   1.691
10163TIP3    H130430   6.644   5.171   1.740
10163TIP3    H230431   6.736   5.218   1.629
10164TIP3   OH230432   1.956   7.837   4.867
10164TIP3    H130433   1.918   7.919   4.836
10164TIP3    H230434   2.010   7.806   4.794
10165TIP3   OH230435   4.770   4.833   4.119
10165TIP3    H130436   4.741   4.744   4.139
10165TIP3    H230437   4.824   4.859   4.194
10166TIP3   OH230438   1.572   3.193   5.109
10166TIP3    H130439   1.656   3.236   5.126
10166TIP3    H230440   1.540   3.232   5.028
10167TIP3   OH230441   0.264   5.811   2.387
10167TIP3    H130442   0.221   5.894   2.367
10167TIP3    H230443   0.308   5.786   2.305
10168TIP3   OH230444   6.338   3.384   3.775
10168TIP3    H130445   6.430   3.359   3.771
10168TIP3    H230446   6.316   3.411   3.686
10169TIP3   OH230447   6.690   6.692   4.412
10169TIP3    H130448   6.658   6.768   4.460
10169TIP3    H230449   6.738   6.640   4.477
10170TIP3   OH230450   0.349   6.416   3.175
10170TIP3    H130451   0.413   6.486   3.186
10170TIP3    H230452   0.287   6.450   3.111
10171TIP3   OH230453   7.561   0.326   2.174
10171TIP3    H130454   7.567   0.410   2.219
10171TIP3    H230455   7.642   0.281   2.198
10172TIP3   OH230456   5.031   3.953   1.032
10172TIP3    H130457   5.088   3.878   1.051
10172TIP3    H230458   5.023   3.953   0.936
10173TIP3   OH230459   2.934   1.611   1.149
10173TIP3    H130460   2.847   1.575   1.166
10173TIP3    H230461   2.917   1.699   1.116
10174TIP3   OH230462   5.189   5.455   1.280
10174TIP3    H130463   5.097   5.450   1.304
10174TIP3    H230464   5.189   5.455   1.184
10175TIP3   OH230465   8.163   0.965   2.117
10175TIP3    H130466   8.081   0.977   2.166
10175TIP3    H230467   8.170   1.042   2.061
10176TIP3   OH230468   0.179   5.275   5.822
10176TIP3    H130469   0.203   5.366   5.840
10176TIP3    H230470   0.262   5.230   5.810
10177TIP3   OH230471   2.906   1.165   0.344
10177TIP3    H130472   2.910   1.248   0.297
10177TIP3    H230473   2.833   1.175   0.405
10178TIP3   OH230474   5.804   2.227   4.873
10178TIP3    H130475   5.749   2.267   4.940
10178TIP3    H230476   5.887   2.212   4.917
10179TIP3   OH230477   7.797   1.381   4.796
10179TIP3    H130478   7.815   1.313   4.861
10179TIP3    H230479   7.710   1.359   4.761
10180TIP3   OH230480   2.990   4.259   2.421
10180TIP3    H130481   2.937   4.247   2.341
10180TIP3    H230482   2.937   4.316   2.477
10181TIP3   OH230483   7.281   3.333   5.049
10181TIP3    H130484   7.255   3.243   5.032
10181TIP3    H230485   7.230   3.385   4.986
10182TIP3   OH230486   3.711   6.431   0.561
10182TIP3    H130487   3.720   6.385   0.645
10182TIP3    H230488   3.739   6.367   0.496
10183TIP3   OH230489   8.340   5.766   6.367
10183TIP3    H130490   8.426   5.799   6.391
10183TIP3    H230491   8.341   5.674   6.394
10184TIP3   OH230492   3.628   2.853   6.556
10184TIP3    H130493   3.663   2.936   6.590
10184TIP3    H230494   3.588   2.876   6.473
10185TIP3   OH230495   5.485   2.363   1.663
10185TIP3    H130496   5.501   2.280   1.708
10185TIP3    H230497   5.441   2.337   1.582
10186TIP3   OH230498   2.992   1.549   6.264
10186TIP3    H130499   3.023   1.484   6.327
10186TIP3    H230500   2.917   1.506   6.222
10187TIP3   OH230501   1.213   4.906   2.667
10187TIP3    H130502   1.173   4.822   2.685
10187TIP3    H230503   1.290   4.909   2.724
10188TIP3   OH230504   6.093   1.659   6.694
10188TIP3    H130505   6.175   1.705   6.675
10188TIP3    H230506   6.081   1.601   6.619
10189TIP3   OH230507   6.339   0.536   2.954
10189TIP3    H130508   6.320   0.560   3.045
10189TIP3    H230509   6.407   0.470   2.961
10190TIP3   OH230510   3.772   7.301   4.548
10190TIP3    H130511   3.849   7.251   4.521
10190TIP3    H230512   3.774   7.300   4.643
10191TIP3   OH230513   2.110   0.751   0.664
10191TIP3    H130514   2.173   0.783   0.599
10191TIP3    H230515   2.163   0.736   0.742
10192TIP3   OH230516   7.435   7.019   6.666
10192TIP3    H130517   7.498   6.950   6.642
10192TIP3    H230518   7.352   6.988   6.631
10193TIP3   OH230519   5.058   6.742   2.236
10193TIP3    H130520   5.074   6.735   2.142
10193TIP3    H230521   5.131   6.793   2.270
10194TIP3   OH230522   3.403   5.922   1.187
10194TIP3    H130523   3.375   5.944   1.098
10194TIP3    H230524   3.492   5.956   1.194
10195TIP3   OH230525   7.678   6.880   3.732
10195TIP3    H130526   7.606   6.843   3.783
10195TIP3    H230527   7.659   6.974   3.729
10196TIP3   OH230528   4.336   5.561   3.093
10196TIP3    H130529   4.423   5.538   3.061
10196TIP3    H230530   4.285   5.577   3.014
10197TIP3   OH230531   8.338   2.832   4.479
10197TIP3    H130532   8.337   2.786   4.563
10197TIP3    H230533   8.257   2.805   4.436
10198TIP3   OH230534   3.094   1.919   1.790
10198TIP3    H130535   3.105   2.007   1.755
10198TIP3    H230536   3.092   1.931   1.885
10199TIP3   OH230537   1.531   0.491   5.084
10199TIP3    H130538   1.440   0.519   5.079
10199TIP3    H230539   1.580   0.572   5.098
10200TIP3   OH230540   2.702   5.992   5.388
10200TIP3    H130541   2.606   5.995   5.388
10200TIP3    H230542   2.723   5.912   5.436
10201TIP3   OH230543   5.925   7.286   6.173
10201TIP3    H130544   5.840   7.247   6.154
10201TIP3    H230545   5.913   7.379   6.156
10202TIP3   OH230546   5.773   3.867   1.917
10202TIP3    H130547   5.741   3.791   1.869
10202TIP3    H230548   5.744   3.851   2.007
10203TIP3   OH230549   2.679   6.413   4.534
10203TIP3    H130550   2.697   6.340   4.594
10203TIP3    H230551   2.704   6.491   4.583
10204TIP3   OH230552   4.131   2.250   0.989
10204TIP3    H130553   4.090   2.315   1.046
10204TIP3    H230554   4.144   2.174   1.045
10205TIP3   OH230555   5.713   7.590   5.348
10205TIP3    H130556   5.643   7.566   5.287
10205TIP3    H230557   5.679   7.666   5.395
10206TIP3   OH230558   0.324   5.228   6.083
10206TIP3    H130559   0.388   5.210   6.015
10206TIP3    H230560   0.336   5.320   6.104
10207TIP3   OH230561   6.230   3.773   0.978
10207TIP3    H130562   6.203   3.844   0.921
10207TIP3    H230563   6.202   3.694   0.933
10208TIP3   OH230564   6.402   2.565   0.574
10208TIP3    H130565   6.389   2.564   0.669
10208TIP3    H230566   6.491   2.598   0.562
10209TIP3   OH230567   1.110   0.227   1.524
10209TIP3    H130568   1.024   0.266   1.539
10209TIP3    H230569   1.168   0.302   1.511
10210TIP3   OH230570   5.504   5.899   4.493
10210TIP3    H130571   5.590   5.897   4.536
10210TIP3    H230572   5.506   5.977   4.439
10211TIP3   OH230573   4.328   7.331   3.082
10211TIP3    H130574   4.372   7.247   3.091
10211TIP3    H230575   4.282   7.343   3.165
10212TIP3   OH230576   6.579   1.328   6.553
10212TIP3    H130577   6.592   1.304   6.645
10212TIP3    H230578   6.624   1.412   6.544
10213TIP3   OH230579   1.215   0.545   3.003
10213TIP3    H130580   1.177   0.633   3.005
10213TIP3    H230581   1.309   0.560   2.996
10214TIP3   OH230582   2.851   7.824   2.919
10214TIP3    H130583   2.792   7.888   2.958
10214TIP3    H230584   2.799   7.743   2.916
10215TIP3   OH230585   6.995   3.052   0.237
10215TIP3    H130586   6.991   2.961   0.206
10215TIP3    H230587   6.904   3.076   0.253
10216TIP3   OH230588   1.999   6.205   2.379
10216TIP3    H130589   2.072   6.257   2.413
10216TIP3    H230590   2.023   6.186   2.289
10217TIP3   OH230591   7.997   1.043   4.156
10217TIP3    H130592   7.932   0.986   4.114
10217TIP3    H230593   7.992   1.021   4.249
10218TIP3   OH230594   8.040   4.786   3.658
10218TIP3    H130595   8.044   4.818   3.568
10218TIP3    H230596   8.121   4.736   3.669
10219TIP3   OH230597   3.987   7.131   0.574
10219TIP3    H130598   3.981   7.064   0.505
10219TIP3    H230599   3.934   7.204   0.540
10220TIP3   OH230600   7.182   1.879   6.326
10220TIP3    H130601   7.171   1.878   6.421
10220TIP3    H230602   7.274   1.855   6.312
10221TIP3   OH230603   2.444   1.071   2.877
10221TIP3    H130604   2.479   1.114   2.955
10221TIP3    H230605   2.427   1.143   2.816
10222TIP3   OH230606   7.376   1.268   1.380
10222TIP3    H130607   7.289   1.267   1.341
10222TIP3    H230608   7.361   1.258   1.474
10223TIP3   OH230609   4.410   5.431   2.619
10223TIP3    H130610   4.411   5.502   2.555
10223TIP3    H230611   4.502   5.405   2.628
10224TIP3   OH230612   4.745   6.833   4.521
10224TIP3    H130613   4.687   6.810   4.449
10224TIP3    H230614   4.820   6.775   4.512
10225TIP3   OH230615   4.747   3.573   4.091
10225TIP3    H130616   4.720   3.552   4.180
10225TIP3    H230617   4.763   3.487   4.050
10226TIP3   OH230618   8.314   7.626   5.652
10226TIP3    H130619   8.317   7.625   5.556
10226TIP3    H230620   8.286   7.715   5.673
10227TIP3   OH230621   4.123   4.267   0.126
10227TIP3    H130622   4.186   4.214   0.077
10227TIP3    H230623   4.056   4.204   0.153
10228TIP3   OH230624   1.190   1.922   2.148
10228TIP3    H130625   1.096   1.941   2.157
10228TIP3    H230626   1.193   1.829   2.128
10229TIP3   OH230627   7.260   6.288   5.368
10229TIP3    H130628   7.317   6.227   5.321
10229TIP3    H230629   7.175   6.245   5.371
10230TIP3   OH230630   8.106   5.701   4.531
10230TIP3    H130631   8.178   5.673   4.588
10230TIP3    H230632   8.069   5.619   4.498
10231TIP3   OH230633   3.772   5.329   5.983
10231TIP3    H130634   3.860   5.312   5.948
10231TIP3    H230635   3.713   5.280   5.925
10232TIP3   OH230636   6.394   6.987   2.575
10232TIP3    H130637   6.366   6.896   2.566
10232TIP3    H230638   6.315   7.038   2.561
10233TIP3   OH230639   3.761   0.654   4.793
10233TIP3    H130640   3.799   0.733   4.752
10233TIP3    H230641   3.745   0.595   4.719
10234TIP3   OH230642   8.251   1.069   4.984
10234TIP3    H130643   8.340   1.082   5.015
10234TIP3    H230644   8.202   1.040   5.061
10235TIP3   OH230645   7.352   2.404   1.460
10235TIP3    H130646   7.323   2.323   1.417
10235TIP3    H230647   7.271   2.450   1.481
10236TIP3   OH230648   1.251   0.359   6.535
10236TIP3    H130649   1.308   0.299   6.583
10236TIP3    H230650   1.233   0.313   6.453
10237TIP3   OH230651   4.962   5.058   5.628
10237TIP3    H130652   5.028   5.017   5.572
10237TIP3    H230653   4.879   5.041   5.584
10238TIP3   OH230654   7.335   0.563   4.754
10238TIP3    H130655   7.388   0.586   4.678
10238TIP3    H230656   7.398   0.560   4.827
10239TIP3   OH230657   0.619   7.762   5.023
10239TIP3    H130658   0.625   7.773   4.928
10239TIP3    H230659   0.710   7.772   5.053
10240TIP3   OH230660   0.408   5.992   0.535
10240TIP3    H130661   0.412   5.994   0.440
10240TIP3    H230662   0.384   6.082   0.560
10241TIP3   OH230663   6.926   6.410   5.259
10241TIP3    H130664   6.958   6.432   5.347
10241TIP3    H230665   6.879   6.488   5.230
10242TIP3   OH230666   3.435   3.451   1.896
10242TIP3    H130667   3.419   3.453   1.801
10242TIP3    H230668   3.386   3.375   1.927
10243TIP3   OH230669   3.162   7.064   1.179
10243TIP3    H130670   3.209   7.014   1.246
10243TIP3    H230671   3.200   7.036   1.096
10244TIP3   OH230672   0.286   6.783   3.579
10244TIP3    H130673   0.325   6.847   3.520
10244TIP3    H230674   0.214   6.830   3.622
10245TIP3   OH230675   0.281   5.385   4.124
10245TIP3    H130676   0.288   5.401   4.030
10245TIP3    H230677   0.275   5.289   4.131
10246TIP3   OH230678   7.689   2.299   0.262
10246TIP3    H130679   7.609   2.249   0.279
10246TIP3    H230680   7.684   2.321   0.169
10247TIP3   OH230681   7.678   2.547   3.197
10247TIP3    H130682   7.698   2.477   3.259
10247TIP3    H230683   7.610   2.510   3.141
10248TIP3   OH230684   8.051   1.455   4.411
10248TIP3    H130685   8.024   1.398   4.340
10248TIP3    H230686   8.131   1.497   4.378
10249TIP3   OH230687   1.398   5.660   4.214
10249TIP3    H130688   1.360   5.574   4.232
10249TIP3    H230689   1.446   5.647   4.131
10250TIP3   OH230690   5.538   6.027   5.627
10250TIP3    H130691   5.489   6.075   5.560
10250TIP3    H230692   5.602   5.976   5.577
10251TIP3   OH230693   5.172   1.381   0.865
10251TIP3    H130694   5.256   1.424   0.850
10251TIP3    H230695   5.146   1.407   0.953
10252TIP3   OH230696   6.254   0.791   3.895
10252TIP3    H130697   6.168   0.780   3.935
10252TIP3    H230698   6.315   0.753   3.959
10253TIP3   OH230699   7.644   0.140   1.042
10253TIP3    H130700   7.651   0.146   1.137
10253TIP3    H230701   7.656   0.230   1.011
10254TIP3   OH230702   2.476   6.573   5.919
10254TIP3    H130703   2.497   6.615   5.836
10254TIP3    H230704   2.561   6.560   5.961
10255TIP3   OH230705   3.369   1.131   0.125
10255TIP3    H130706   3.374   1.058   0.063
10255TIP3    H230707   3.375   1.090   0.211
10256TIP3   OH230708   3.562   3.458   1.379
10256TIP3    H130709   3.644   3.481   1.336
10256TIP3    H230710   3.571   3.365   1.399
10257TIP3   OH230711   1.980   7.582   1.960
10257TIP3    H130712   1.977   7.674   1.935
10257TIP3    H230713   1.891   7.562   1.990
10258TIP3   OH230714   2.589   2.674   2.836
10258TIP3    H130715   2.555   2.667   2.925
10258TIP3    H230716   2.600   2.768   2.822
10259TIP3   OH230717   8.234   4.882   2.513
10259TIP3    H130718   8.280   4.881   2.429
10259TIP3    H230719   8.275   4.812   2.563
10260TIP3   OH230720   2.757   5.790   2.247
10260TIP3    H130721   2.672   5.824   2.276
10260TIP3    H230722   2.755   5.698   2.274
10261TIP3   OH230723   8.271   6.128   3.840
10261TIP3    H130724   8.231   6.214   3.826
10261TIP3    H230725   8.248   6.079   3.761
10262TIP3   OH230726   3.142   6.705   4.739
10262TIP3    H130727   3.185   6.643   4.799
10262TIP3    H230728   3.171   6.678   4.652
10263TIP3   OH230729   1.858   3.875   0.495
10263TIP3    H130730   1.928   3.815   0.470
10263TIP3    H230731   1.849   3.865   0.590
10264TIP3   OH230732   5.396   6.106   5.049
10264TIP3    H130733   5.393   6.107   4.953
10264TIP3    H230734   5.307   6.082   5.075
10265TIP3   OH230735   1.064   5.012   3.490
10265TIP3    H130736   1.124   5.062   3.435
10265TIP3    H230737   1.014   5.079   3.537
10266TIP3   OH230738   6.732   2.586   5.644
10266TIP3    H130739   6.806   2.612   5.590
10266TIP3    H230740   6.655   2.613   5.593
10267TIP3   OH230741   7.443   1.077   5.479
10267TIP3    H130742   7.375   1.025   5.437
10267TIP3    H230743   7.396   1.131   5.543
10268TIP3   OH230744   4.430   2.627   2.694
10268TIP3    H130745   4.413   2.712   2.655
10268TIP3    H230746   4.496   2.587   2.637
10269TIP3   OH230747   0.557   5.065   4.979
10269TIP3    H130748   0.560   5.141   4.919
10269TIP3    H230749   0.649   5.049   5.001
10270TIP3   OH230750   0.619   1.739   3.631
10270TIP3    H130751   0.525   1.746   3.647
10270TIP3    H230752   0.658   1.805   3.689
10271TIP3   OH230753   6.863   4.136   1.687
10271TIP3    H130754   6.840   4.091   1.605
10271TIP3    H230755   6.797   4.107   1.749
10272TIP3   OH230756   0.820   0.045   6.404
10272TIP3    H130757   0.880   0.006   6.341
10272TIP3    H230758   0.874   0.065   6.480
10273TIP3   OH230759   1.777   7.622   5.285
10273TIP3    H130760   1.855   7.587   5.329
10273TIP3    H230761   1.803   7.710   5.257
10274TIP3   OH230762   5.616   7.337   0.505
10274TIP3    H130763   5.687   7.401   0.500
10274TIP3    H230764   5.658   7.253   0.490
10275TIP3   OH230765   7.454   6.519   6.332
10275TIP3    H130766   7.471   6.587   6.267
10275TIP3    H230767   7.531   6.521   6.390
10276TIP3   OH230768   8.103   3.932   3.953
10276TIP3    H130769   8.010   3.911   3.959
10276TIP3    H230770   8.111   4.016   3.998
10277TIP3   OH230771   4.756   7.584   0.557
10277TIP3    H130772   4.834   7.539   0.589
10277TIP3    H230773   4.741   7.546   0.470
10278TIP3   OH230774   8.224   4.817   1.250
10278TIP3    H130775   8.268   4.741   1.288
10278TIP3    H230776   8.244   4.889   1.310
10279TIP3   OH230777   5.015   6.891  -0.037
10279TIP3    H130778   5.003   6.821   0.027
10279TIP3    H230779   5.090   6.862  -0.089
10280TIP3   OH230780   7.312   4.395   0.792
10280TIP3    H130781   7.247   4.438   0.848
10280TIP3    H230782   7.347   4.466   0.738
10281TIP3   OH230783   0.961   1.302   4.891
10281TIP3    H130784   0.939   1.216   4.925
10281TIP3    H230785   0.907   1.363   4.942
10282TIP3   OH230786   7.604   6.698   0.365
10282TIP3    H130787   7.675   6.642   0.396
10282TIP3    H230788   7.538   6.637   0.331
10283TIP3   OH230789   2.541   4.478   2.011
10283TIP3    H130790   2.628   4.500   1.976
10283TIP3    H230791   2.500   4.563   2.025
10284TIP3   OH230792   8.002   7.057   1.327
10284TIP3    H130793   7.924   7.002   1.331
10284TIP3    H230794   8.039   7.041   1.241
10285TIP3   OH230795   3.970   7.950   1.809
10285TIP3    H130796   3.977   7.881   1.743
10285TIP3    H230797   3.973   7.904   1.892
10286TIP3   OH230798   5.166   0.399   0.521
10286TIP3    H130799   5.103   0.339   0.482
10286TIP3    H230800   5.132   0.486   0.501
10287TIP3   OH230801   2.945   0.271   5.228
10287TIP3    H130802   2.956   0.222   5.147
10287TIP3    H230803   2.851   0.289   5.233
10288TIP3   OH230804   3.375   4.573   6.336
10288TIP3    H130805   3.380   4.589   6.242
10288TIP3    H230806   3.331   4.650   6.372
10289TIP3   OH230807   0.600   2.839   3.984
10289TIP3    H130808   0.573   2.881   3.902
10289TIP3    H230809   0.555   2.755   3.984
10290TIP3   OH230810   5.450   3.457   2.426
10290TIP3    H130811   5.506   3.381   2.441
10290TIP3    H230812   5.361   3.422   2.433
10291TIP3   OH230813   0.732   1.580   0.241
10291TIP3    H130814   0.785   1.516   0.289
10291TIP3    H230815   0.695   1.530   0.168
10292TIP3   OH230816   4.800   6.994   4.751
10292TIP3    H130817   4.802   6.940   4.671
10292TIP3    H230818   4.707   7.007   4.768
10293TIP3   OH230819   4.352   1.509   2.246
10293TIP3    H130820   4.263   1.512   2.279
10293TIP3    H230821   4.350   1.558   2.164
10294TIP3   OH230822   6.561   1.887   2.072
10294TIP3    H130823   6.548   1.792   2.079
10294TIP3    H230824   6.563   1.917   2.163
10295TIP3   OH230825   6.789   1.860   2.860
10295TIP3    H130826   6.814   1.951   2.870
10295TIP3    H230827   6.736   1.840   2.937
10296TIP3   OH230828   5.361   2.630   5.499
10296TIP3    H130829   5.367   2.536   5.518
10296TIP3    H230830   5.268   2.644   5.480
10297TIP3   OH230831   6.419   4.282   4.643
10297TIP3    H130832   6.498   4.275   4.589
10297TIP3    H230833   6.374   4.198   4.632
10298TIP3   OH230834   3.646   5.051   2.003
10298TIP3    H130835   3.645   4.998   1.923
10298TIP3    H230836   3.669   4.990   2.072
10299TIP3   OH230837   6.358   5.939   4.994
10299TIP3    H130838   6.394   5.853   5.017
10299TIP3    H230839   6.308   5.965   5.071
10300TIP3   OH230840   3.523   1.764   3.611
10300TIP3    H130841   3.438   1.802   3.633
10300TIP3    H230842   3.507   1.670   3.607
10301TIP3   OH230843   0.828   1.018   2.137
10301TIP3    H130844   0.778   0.965   2.200
10301TIP3    H230845   0.881   0.954   2.089
10302TIP3   OH230846   3.948   2.789   1.984
10302TIP3    H130847   3.931   2.855   1.917
10302TIP3    H230848   3.943   2.837   2.067
10303TIP3   OH230849   1.126   1.851   4.436
10303TIP3    H130850   1.159   1.789   4.371
10303TIP3    H230851   1.119   1.800   4.516
10304TIP3   OH230852   3.293   4.800   5.036
10304TIP3    H130853   3.290   4.777   4.943
10304TIP3    H230854   3.372   4.756   5.068
10305TIP3   OH230855   7.702   4.635   1.978
10305TIP3    H130856   7.774   4.698   1.973
10305TIP3    H230857   7.642   4.661   1.908
10306TIP3   OH230858   3.660   6.347   0.825
10306TIP3    H130859   3.661   6.255   0.851
10306TIP3    H230860   3.670   6.395   0.907
10307TIP3   OH230861   3.818   7.835   4.735
10307TIP3    H130862   3.764   7.912   4.718
10307TIP3    H230863   3.758   7.761   4.726
10308TIP3   OH230864   1.760   3.335   3.361
10308TIP3    H130865   1.773   3.241   3.351
10308TIP3    H230866   1.721   3.363   3.278
10309TIP3   OH230867   0.451   0.056   1.259
10309TIP3    H130868   0.537   0.076   1.296
10309TIP3    H230869   0.464   0.062   1.164
10310TIP3   OH230870   7.909   6.484   3.614
10310TIP3    H130871   7.913   6.574   3.646
10310TIP3    H230872   7.952   6.433   3.682
10311TIP3   OH230873   2.467   1.689   0.672
10311TIP3    H130874   2.438   1.634   0.746
10311TIP3    H230875   2.513   1.629   0.614
10312TIP3   OH230876   5.767   6.821   2.846
10312TIP3    H130877   5.725   6.807   2.761
10312TIP3    H230878   5.754   6.914   2.865
10313TIP3   OH230879   3.992   7.036   2.580
10313TIP3    H130880   4.008   7.120   2.536
10313TIP3    H230881   3.979   6.973   2.509
10314TIP3   OH230882   7.201   3.258   3.754
10314TIP3    H130883   7.174   3.332   3.699
10314TIP3    H230884   7.284   3.229   3.716
10315TIP3   OH230885   0.890   2.618   3.177
10315TIP3    H130886   0.921   2.558   3.110
10315TIP3    H230887   0.811   2.658   3.139
10316TIP3   OH230888   0.353   2.808   5.923
10316TIP3    H130889   0.378   2.806   6.016
10316TIP3    H230890   0.424   2.856   5.880
10317TIP3   OH230891   6.594   4.385   3.447
10317TIP3    H130892   6.669   4.375   3.388
10317TIP3    H230893   6.576   4.479   3.448
10318TIP3   OH230894   0.428   3.150   1.631
10318TIP3    H130895   0.483   3.076   1.658
10318TIP3    H230896   0.343   3.131   1.670
10319TIP3   OH230897   6.858   4.824   4.027
10319TIP3    H130898   6.768   4.822   3.994
10319TIP3    H230899   6.896   4.903   3.989
10320TIP3   OH230900   1.752   1.014   4.703
10320TIP3    H130901   1.739   1.013   4.798
10320TIP3    H230902   1.843   0.987   4.691
10321TIP3   OH230903   4.359   4.245   6.240
10321TIP3    H130904   4.364   4.274   6.149
10321TIP3    H230905   4.403   4.313   6.290
10322TIP3   OH230906   7.414   5.385   4.954
10322TIP3    H130907   7.364   5.303   4.961
10322TIP3    H230908   7.504   5.357   4.938
10323TIP3   OH230909   6.035   3.162   6.058
10323TIP3    H130910   6.030   3.186   6.150
10323TIP3    H230911   6.114   3.204   6.026
10324TIP3   OH230912   3.732   6.363   6.226
10324TIP3    H130913   3.640   6.384   6.211
10324TIP3    H230914   3.765   6.437   6.278
10325TIP3   OH230915   0.630   1.137   5.653
10325TIP3    H130916   0.623   1.055   5.604
10325TIP3    H230917   0.719   1.168   5.635
10326TIP3   OH230918   5.192   6.978   6.526
10326TIP3    H130919   5.235   7.059   6.553
10326TIP3    H230920   5.214   6.915   6.595
10327TIP3   OH230921   2.363   5.952   2.032
10327TIP3    H130922   2.279   5.970   2.074
10327TIP3    H230923   2.351   5.979   1.941
10328TIP3   OH230924   3.410   1.772   6.693
10328TIP3    H130925   3.370   1.832   6.756
10328TIP3    H230926   3.438   1.697   6.746
10329TIP3   OH230927   4.207   3.551   0.512
10329TIP3    H130928   4.127   3.585   0.473
10329TIP3    H230929   4.185   3.536   0.604
10330TIP3   OH230930   7.546   0.648   3.688
10330TIP3    H130931   7.493   0.722   3.717
10330TIP3    H230932   7.580   0.675   3.602
10331TIP3   OH230933   4.681   4.492   6.739
10331TIP3    H130934   4.616   4.443   6.790
10331TIP3    H230935   4.703   4.433   6.666
10332TIP3   OH230936   5.506   1.205   1.083
10332TIP3    H130937   5.528   1.120   1.045
10332TIP3    H230938   5.560   1.211   1.161
10333TIP3   OH230939   0.910   3.848   1.179
10333TIP3    H130940   0.983   3.906   1.157
10333TIP3    H230941   0.924   3.826   1.271
10334TIP3   OH230942   2.331   2.705   1.137
10334TIP3    H130943   2.292   2.672   1.056
10334TIP3    H230944   2.404   2.759   1.108
10335TIP3   OH230945   4.470   2.031   6.625
10335TIP3    H130946   4.525   1.953   6.632
10335TIP3    H230947   4.425   2.035   6.710
10336TIP3   OH230948   8.094   7.491   0.098
10336TIP3    H130949   8.014   7.459   0.140
10336TIP3    H230950   8.111   7.428   0.028
10337TIP3   OH230951   7.644   0.235   2.826
10337TIP3    H130952   7.639   0.219   2.731
10337TIP3    H230953   7.558   0.271   2.849
10338TIP3   OH230954   2.011   7.317   2.863
10338TIP3    H130955   1.987   7.406   2.890
10338TIP3    H230956   1.976   7.310   2.774
10339TIP3   OH230957   1.376   3.583   4.418
10339TIP3    H130958   1.460   3.550   4.452
10339TIP3    H230959   1.318   3.506   4.420
10340TIP3   OH230960   1.283   5.459   3.775
10340TIP3    H130961   1.259   5.552   3.775
10340TIP3    H230962   1.315   5.442   3.864
10341TIP3   OH230963   0.371   0.874   4.299
10341TIP3    H130964   0.304   0.907   4.359
10341TIP3    H230965   0.374   0.938   4.228
10342TIP3   OH230966   2.508   1.420   1.898
10342TIP3    H130967   2.586   1.370   1.923
10342TIP3    H230968   2.514   1.429   1.803
10343TIP3   OH230969   5.354   4.193   4.013
10343TIP3    H130970   5.322   4.104   4.031
10343TIP3    H230971   5.275   4.247   4.012
10344TIP3   OH230972   1.546   6.239   2.141
10344TIP3    H130973   1.456   6.251   2.170
10344TIP3    H230974   1.569   6.321   2.098
10345TIP3   OH230975   6.702   0.814   4.248
10345TIP3    H130976   6.693   0.723   4.218
10345TIP3    H230977   6.613   0.849   4.248
10346TIP3   OH230978   7.087   1.432   4.751
10346TIP3    H130979   7.081   1.505   4.812
10346TIP3    H230980   7.171   1.390   4.771
10347TIP3   OH230981   1.782   7.755   6.604
10347TIP3    H130982   1.799   7.801   6.686
10347TIP3    H230983   1.866   7.715   6.581
10348TIP3   OH230984   7.130   7.779   3.055
10348TIP3    H130985   7.109   7.688   3.034
10348TIP3    H230986   7.152   7.819   2.971
10349TIP3   OH230987   2.406   1.259   2.103
10349TIP3    H130988   2.414   1.288   2.012
10349TIP3    H230989   2.409   1.340   2.154
10350TIP3   OH230990   2.413   0.639   4.213
10350TIP3    H130991   2.466   0.559   4.207
10350TIP3    H230992   2.353   0.624   4.286
10351TIP3   OH230993   8.116   5.824   1.126
10351TIP3    H130994   8.123   5.738   1.167
10351TIP3    H230995   8.086   5.806   1.037
10352TIP3   OH230996   5.936   3.050   1.529
10352TIP3    H130997   5.997   2.977   1.519
10352TIP3    H230998   5.909   3.046   1.620
10353TIP3   OH230999   1.424   7.223   5.368
10353TIP3    H131000   1.394   7.299   5.317
10353TIP3    H231001   1.517   7.215   5.346
10354TIP3   OH231002   1.866   3.256   5.218
10354TIP3    H131003   1.916   3.301   5.150
10354TIP3    H231004   1.906   3.283   5.300
10355TIP3   OH231005   8.190   7.178   1.924
10355TIP3    H131006   8.114   7.120   1.921
10355TIP3    H231007   8.163   7.256   1.876
10356TIP3   OH231008   1.220   3.518   0.843
10356TIP3    H131009   1.187   3.581   0.908
10356TIP3    H231010   1.153   3.450   0.840
10357TIP3   OH231011   0.472   7.515   2.152
10357TIP3    H131012   0.409   7.472   2.094
10357TIP3    H231013   0.510   7.443   2.203
10358TIP3   OH231014   6.808   6.727   1.361
10358TIP3    H131015   6.898   6.698   1.376
10358TIP3    H231016   6.781   6.680   1.282
10359TIP3   OH231017   6.651   1.370   0.730
10359TIP3    H131018   6.605   1.412   0.802
10359TIP3    H231019   6.699   1.297   0.770
10360TIP3   OH231020   2.899   5.310   4.260
10360TIP3    H131021   2.892   5.394   4.215
10360TIP3    H231022   2.993   5.290   4.260
10361TIP3   OH231023   6.368   4.953   1.963
10361TIP3    H131024   6.454   4.994   1.972
10361TIP3    H231025   6.358   4.940   1.869
10362TIP3   OH231026   4.394   2.135   0.082
10362TIP3    H131027   4.430   2.191   0.151
10362TIP3    H231028   4.469   2.088   0.047
10363TIP3   OH231029   5.680   0.300   4.717
10363TIP3    H131030   5.607   0.260   4.670
10363TIP3    H231031   5.650   0.387   4.740
10364TIP3   OH231032   0.167   5.191   5.505
10364TIP3    H131033   0.163   5.277   5.463
10364TIP3    H231034   0.143   5.208   5.596
10365TIP3   OH231035   5.082   2.860   2.106
10365TIP3    H131036   5.160   2.809   2.087
10365TIP3    H231037   5.115   2.940   2.147
10366TIP3   OH231038   2.129   5.899   4.887
10366TIP3    H131039   2.223   5.881   4.895
10366TIP3    H231040   2.107   5.869   4.799
10367TIP3   OH231041   4.487   0.488   0.896
10367TIP3    H131042   4.415   0.506   0.835
10367TIP3    H231043   4.516   0.400   0.873
10368TIP3   OH231044   6.318   3.481   1.507
10368TIP3    H131045   6.322   3.577   1.499
10368TIP3    H231046   6.388   3.460   1.569
10369TIP3   OH231047   7.203   5.999   0.041
10369TIP3    H131048   7.140   5.948   0.091
10369TIP3    H231049   7.289   5.968   0.072
10370TIP3   OH231050   3.295   5.074   5.095
10370TIP3    H131051   3.216   5.051   5.047
10370TIP3    H231052   3.303   5.006   5.162
10371TIP3   OH231053   0.096   3.298   4.620
10371TIP3    H131054   0.102   3.295   4.524
10371TIP3    H231055   0.058   3.384   4.640
10372TIP3   OH231056   5.223   4.787   4.544
10372TIP3    H131057   5.177   4.702   4.541
10372TIP3    H231058   5.283   4.779   4.618
10373TIP3   OH231059   6.351   1.321   0.271
10373TIP3    H131060   6.400   1.336   0.353
10373TIP3    H231061   6.325   1.229   0.276
10374TIP3   OH231062   1.880   2.666   0.411
10374TIP3    H131063   1.850   2.599   0.473
10374TIP3    H231064   1.971   2.643   0.394
10375TIP3   OH231065   8.237   2.636   1.182
10375TIP3    H131066   8.266   2.676   1.263
10375TIP3    H231067   8.159   2.685   1.157
10376TIP3   OH231068   5.514   1.735   2.505
10376TIP3    H131069   5.579   1.797   2.539
10376TIP3    H231070   5.536   1.652   2.547
10377TIP3   OH231071   6.173   4.794   5.323
10377TIP3    H131072   6.171   4.731   5.394
10377TIP3    H231073   6.148   4.744   5.245
10378TIP3   OH231074   5.148   5.436   1.002
10378TIP3    H131075   5.070   5.404   0.956
10378TIP3    H231076   5.221   5.410   0.946
10379TIP3   OH231077   2.788   5.514   2.367
10379TIP3    H131078   2.735   5.449   2.320
10379TIP3    H231079   2.801   5.476   2.454
10380TIP3   OH231080   0.146   5.545   6.684
10380TIP3    H131081   0.086   5.504   6.622
10380TIP3    H231082   0.113   5.519   6.770
10381TIP3   OH231083   5.144   4.114   0.405
10381TIP3    H131084   5.195   4.044   0.363
10381TIP3    H231085   5.197   4.192   0.395
10382TIP3   OH231086   7.159   0.069   4.607
10382TIP3    H131087   7.175   0.024   4.524
10382TIP3    H231088   7.126   0.001   4.666
10383TIP3   OH231089   6.473   6.354   2.003
10383TIP3    H131090   6.433   6.410   1.937
10383TIP3    H231091   6.567   6.374   1.997
10384TIP3   OH231092   6.719   7.199   6.497
10384TIP3    H131093   6.795   7.199   6.439
10384TIP3    H231094   6.728   7.119   6.548
10385TIP3   OH231095   0.395   6.860   6.224
10385TIP3    H131096   0.449   6.831   6.297
10385TIP3    H231097   0.428   6.811   6.149
10386TIP3   OH231098   0.159   1.321   1.439
10386TIP3    H131099   0.120   1.238   1.464
10386TIP3    H231100   0.233   1.297   1.384
10387TIP3   OH231101   0.379   1.381   0.925
10387TIP3    H131102   0.315   1.315   0.951
10387TIP3    H231103   0.383   1.374   0.829
10388TIP3   OH231104   4.290   3.356   4.378
10388TIP3    H131105   4.308   3.448   4.357
10388TIP3    H231106   4.333   3.342   4.462
10389TIP3   OH231107   5.893   7.043   1.488
10389TIP3    H131108   5.810   7.032   1.534
10389TIP3    H231109   5.875   7.016   1.399
10390TIP3   OH231110   0.090   6.687   5.873
10390TIP3    H131111   0.044   6.771   5.871
10390TIP3    H231112   0.039   6.630   5.815
10391TIP3   OH231113   5.198   4.461   4.024
10391TIP3    H131114   5.277   4.503   3.990
10391TIP3    H231115   5.194   4.488   4.116
10392TIP3   OH231116   2.675   6.831   1.041
10392TIP3    H131117   2.638   6.792   1.120
10392TIP3    H231118   2.711   6.758   0.992
10393TIP3   OH231119   0.887   2.963   2.282
10393TIP3    H131120   0.797   2.996   2.279
10393TIP3    H231121   0.918   2.983   2.370
10394TIP3   OH231122   2.313   1.230   1.756
10394TIP3    H131123   2.271   1.259   1.837
10394TIP3    H231124   2.363   1.305   1.727
10395TIP3   OH231125   6.471   5.132   3.324
10395TIP3    H131126   6.421   5.071   3.269
10395TIP3    H231127   6.415   5.209   3.333
10396TIP3   OH231128   1.464   0.556   4.738
10396TIP3    H131129   1.520   0.632   4.755
10396TIP3    H231130   1.523   0.481   4.740
10397TIP3   OH231131   0.005   6.376   4.786
10397TIP3    H131132   0.060   6.374   4.865
10397TIP3    H231133   0.008   6.286   4.753
10398TIP3   OH231134   0.115   2.988   4.344
10398TIP3    H131135   0.062   2.920   4.384
10398TIP3    H231136   0.195   2.944   4.315
10399TIP3   OH231137   6.561   1.089   5.473
10399TIP3    H131138   6.605   1.043   5.401
10399TIP3    H231139   6.475   1.045   5.479
10400TIP3   OH231140   0.085   5.046   4.832
10400TIP3    H131141   0.135   5.099   4.770
10400TIP3    H231142   0.059   5.107   4.900
10401TIP3   OH231143   4.031   0.510   2.238
10401TIP3    H131144   3.955   0.477   2.190
10401TIP3    H231145   4.025   0.605   2.231
10402TIP3   OH231146   6.514   2.455   2.169
10402TIP3    H131147   6.514   2.519   2.240
10402TIP3    H231148   6.470   2.499   2.097
10403TIP3   OH231149   1.471   1.413   2.878
10403TIP3    H131150   1.542   1.465   2.916
10403TIP3    H231151   1.430   1.472   2.814
10404TIP3   OH231152   4.496   5.391   5.173
10404TIP3    H131153   4.470   5.361   5.086
10404TIP3    H231154   4.557   5.324   5.205
10405TIP3   OH231155   5.498   2.564   6.794
10405TIP3    H131156   5.548   2.589   6.716
10405TIP3    H231157   5.517   2.471   6.806
10406TIP3   OH231158   1.578   7.658   3.657
10406TIP3    H131159   1.594   7.696   3.744
10406TIP3    H231160   1.664   7.655   3.616
10407TIP3   OH231161   4.249   2.892   2.039
10407TIP3    H131162   4.337   2.915   2.007
10407TIP3    H231163   4.239   2.799   2.015
10408TIP3   OH231164   7.231   4.996   2.026
10408TIP3    H131165   7.279   4.926   1.981
10408TIP3    H231166   7.239   4.974   2.119
10409TIP3   OH231167   6.651   7.028   0.031
10409TIP3    H131168   6.599   7.041  -0.048
10409TIP3    H231169   6.661   6.933   0.038
10410TIP3   OH231170   5.824   6.555   1.053
10410TIP3    H131171   5.916   6.554   1.026
10410TIP3    H231172   5.786   6.478   1.010
10411TIP3   OH231173   1.715   0.473   6.720
10411TIP3    H131174   1.760   0.491   6.637
10411TIP3    H231175   1.728   0.552   6.772
10412TIP3   OH231176   5.906   5.883   4.960
10412TIP3    H131177   5.981   5.941   4.947
10412TIP3    H231178   5.923   5.840   5.044
10413TIP3   OH231179   7.708   0.225   1.651
10413TIP3    H131180   7.739   0.247   1.739
10413TIP3    H231181   7.660   0.303   1.623
10414TIP3   OH231182   4.665   2.239   0.088
10414TIP3    H131183   4.758   2.241   0.109
10414TIP3    H231184   4.621   2.224   0.172
10415TIP3   OH231185   6.312   3.065   5.713
10415TIP3    H131186   6.218   3.074   5.726
10415TIP3    H231187   6.345   3.035   5.797
10416TIP3   OH231188   2.096   5.080   2.359
10416TIP3    H131189   2.053   5.143   2.418
10416TIP3    H231190   2.108   5.129   2.277
10417TIP3   OH231191   0.572   6.278   3.365
10417TIP3    H131192   0.486   6.238   3.351
10417TIP3    H231193   0.560   6.370   3.343
10418TIP3   OH231194   1.827   1.990   0.227
10418TIP3    H131195   1.791   2.073   0.195
10418TIP3    H231196   1.885   1.961   0.156
10419TIP3   OH231197   6.889   7.221   2.772
10419TIP3    H131198   6.884   7.160   2.698
10419TIP3    H231199   6.849   7.174   2.845
10420TIP3   OH231200   8.251   6.060   6.378
10420TIP3    H131201   8.242   5.975   6.336
10420TIP3    H231202   8.318   6.047   6.445
10421TIP3   OH231203   1.420   4.931   0.920
10421TIP3    H131204   1.353   4.863   0.908
10421TIP3    H231205   1.478   4.896   0.988
10422TIP3   OH231206   1.561   7.093   6.612
10422TIP3    H131207   1.500   7.093   6.685
10422TIP3    H231208   1.587   7.185   6.603
10423TIP3   OH231209   7.938   1.711   4.080
10423TIP3    H131210   7.983   1.636   4.043
10423TIP3    H231211   7.990   1.787   4.055
10424TIP3   OH231212   4.329   6.780   4.003
10424TIP3    H131213   4.282   6.738   3.931
10424TIP3    H231214   4.290   6.742   4.082
10425TIP3   OH231215   2.405   2.482   2.039
10425TIP3    H131216   2.324   2.494   2.089
10425TIP3    H231217   2.465   2.439   2.100
10426TIP3   OH231218   3.526   5.566   3.066
10426TIP3    H131219   3.534   5.655   3.101
10426TIP3    H231220   3.456   5.572   3.001
10427TIP3   OH231221   7.729   7.294   0.927
10427TIP3    H131222   7.820   7.294   0.898
10427TIP3    H231223   7.680   7.323   0.850
10428TIP3   OH231224   3.969   7.252   2.226
10428TIP3    H131225   4.016   7.221   2.303
10428TIP3    H231226   3.879   7.267   2.257
10429TIP3   OH231227   2.414   6.647   0.596
10429TIP3    H131228   2.420   6.575   0.659
10429TIP3    H231229   2.399   6.603   0.512
10430TIP3   OH231230   0.753   2.955   5.476
10430TIP3    H131231   0.749   3.049   5.458
10430TIP3    H231232   0.672   2.920   5.440
10431TIP3   OH231233   1.842   7.674   4.436
10431TIP3    H131234   1.762   7.720   4.463
10431TIP3    H231235   1.851   7.603   4.499
10432TIP3   OH231236   7.244   1.972   0.305
10432TIP3    H131237   7.241   1.889   0.351
10432TIP3    H231238   7.165   1.972   0.250
10433TIP3   OH231239   2.862   4.009   4.423
10433TIP3    H131240   2.828   4.069   4.489
10433TIP3    H231241   2.885   4.066   4.349
10434TIP3   OH231242   3.355   1.836   4.869
10434TIP3    H131243   3.382   1.745   4.865
10434TIP3    H231244   3.427   1.881   4.914
10435TIP3   OH231245   1.799   0.287   4.325
10435TIP3    H131246   1.727   0.346   4.349
10435TIP3    H231247   1.821   0.311   4.236
10436TIP3   OH231248   8.197   1.189   5.891
10436TIP3    H131249   8.204   1.211   5.799
10436TIP3    H231250   8.255   1.251   5.935
10437TIP3   OH231251   5.633   6.342   2.332
10437TIP3    H131252   5.723   6.331   2.363
10437TIP3    H231253   5.580   6.298   2.399
10438TIP3   OH231254   3.249   3.068   3.598
10438TIP3    H131255   3.235   3.084   3.691
10438TIP3    H231256   3.302   2.988   3.595
10439TIP3   OH231257   3.575   7.237   5.621
10439TIP3    H131258   3.639   7.206   5.686
10439TIP3    H231259   3.626   7.292   5.562
10440TIP3   OH231260   5.346   2.030   3.733
10440TIP3    H131261   5.386   2.104   3.688
10440TIP3    H231262   5.310   2.067   3.814
10441TIP3   OH231263   4.393   6.767   3.378
10441TIP3    H131264   4.452   6.829   3.336
10441TIP3    H231265   4.312   6.815   3.391
10442TIP3   OH231266   4.195   2.795   0.405
10442TIP3    H131267   4.254   2.747   0.463
10442TIP3    H231268   4.251   2.828   0.335
10443TIP3   OH231269   7.371   1.124   2.207
10443TIP3    H131270   7.299   1.132   2.270
10443TIP3    H231271   7.363   1.035   2.173
10444TIP3   OH231272   0.952   1.944   6.400
10444TIP3    H131273   0.981   2.024   6.445
10444TIP3    H231274   0.864   1.928   6.436
10445TIP3   OH231275   1.713   6.139   0.913
10445TIP3    H131276   1.805   6.154   0.893
10445TIP3    H231277   1.677   6.226   0.930
10446TIP3   OH231278   8.108   7.666   5.269
10446TIP3    H131279   8.019   7.647   5.299
10446TIP3    H231280   8.124   7.603   5.199
10447TIP3   OH231281   1.019   3.564   5.456
10447TIP3    H131282   0.961   3.640   5.464
10447TIP3    H231283   1.019   3.525   5.544
10448TIP3   OH231284   0.337   4.199   4.234
10448TIP3    H131285   0.350   4.280   4.283
10448TIP3    H231286   0.319   4.228   4.144
10449TIP3   OH231287   1.768   3.756   3.700
10449TIP3    H131288   1.744   3.692   3.767
10449TIP3    H231289   1.729   3.721   3.619
10450TIP3   OH231290   3.867   4.046   1.877
10450TIP3    H131291   3.774   4.062   1.862
10450TIP3    H231292   3.912   4.097   1.810
10451TIP3   OH231293   1.688   1.882   2.257
10451TIP3    H131294   1.626   1.941   2.213
10451TIP3    H231295   1.767   1.887   2.203
10452TIP3   OH231296   0.866   7.729   4.239
10452TIP3    H131297   0.834   7.720   4.149
10452TIP3    H231298   0.912   7.646   4.256
10453TIP3   OH231299   7.698   6.582   3.996
10453TIP3    H131300   7.675   6.551   4.084
10453TIP3    H231301   7.702   6.503   3.943
10454TIP3   OH231302   0.811   2.341   3.302
10454TIP3    H131303   0.747   2.379   3.242
10454TIP3    H231304   0.828   2.254   3.267
10455TIP3   OH231305   6.145   7.459   6.705
10455TIP3    H131306   6.082   7.405   6.752
10455TIP3    H231307   6.092   7.510   6.643
10456TIP3   OH231308   0.327   6.140   5.120
10456TIP3    H131309   0.245   6.094   5.135
10456TIP3    H231310   0.349   6.177   5.206
10457TIP3   OH231311   0.110   5.111   1.898
10457TIP3    H131312   0.078   5.201   1.893
10457TIP3    H231313   0.206   5.120   1.901
10458TIP3   OH231314   1.017   0.318   4.832
10458TIP3    H131315   1.010   0.287   4.923
10458TIP3    H231316   1.087   0.384   4.835
10459TIP3   OH231317   3.930   3.057   2.992
10459TIP3    H131318   4.023   3.078   2.989
10459TIP3    H231319   3.888   3.125   2.940
10460TIP3   OH231320   5.979   0.770   6.446
10460TIP3    H131321   6.000   0.837   6.511
10460TIP3    H231322   5.972   0.689   6.497
10461TIP3   OH231323   6.223   4.597   3.142
10461TIP3    H131324   6.242   4.504   3.135
10461TIP3    H231325   6.144   4.602   3.195
10462TIP3   OH231326   2.362   7.378   4.680
10462TIP3    H131327   2.441   7.424   4.652
10462TIP3    H231328   2.344   7.316   4.609
10463TIP3   OH231329   6.618   0.909   5.181
10463TIP3    H131330   6.704   0.939   5.154
10463TIP3    H231331   6.577   0.877   5.100
10464TIP3   OH231332   0.962   5.226   2.556
10464TIP3    H131333   1.056   5.220   2.537
10464TIP3    H231334   0.950   5.172   2.634
10465TIP3   OH231335   5.153   3.240   3.107
10465TIP3    H131336   5.064   3.268   3.124
10465TIP3    H231337   5.177   3.185   3.182
10466TIP3   OH231338   7.584   0.427   1.905
10466TIP3    H131339   7.557   0.414   1.996
10466TIP3    H231340   7.659   0.369   1.893
10467TIP3   OH231341   1.739   6.971   5.036
10467TIP3    H131342   1.830   6.979   5.064
10467TIP3    H231343   1.723   7.049   4.982
10468TIP3   OH231344   1.890   2.280   6.406
10468TIP3    H131345   1.872   2.217   6.476
10468TIP3    H231346   1.887   2.228   6.326
10469TIP3   OH231347   6.700   4.293   0.862
10469TIP3    H131348   6.691   4.303   0.767
10469TIP3    H231349   6.767   4.356   0.887
10470TIP3   OH231350   4.344   7.526   4.537
10470TIP3    H131351   4.283   7.577   4.483
10470TIP3    H231352   4.393   7.473   4.473
10471TIP3   OH231353   8.190   2.580   5.680
10471TIP3    H131354   8.235   2.524   5.743
10471TIP3    H231355   8.248   2.582   5.604
10472TIP3   OH231356   2.311   3.635   2.352
10472TIP3    H131357   2.343   3.663   2.266
10472TIP3    H231358   2.245   3.700   2.375
10473TIP3   OH231359   3.543   1.931   5.924
10473TIP3    H131360   3.615   1.884   5.966
10473TIP3    H231361   3.483   1.861   5.895
10474TIP3   OH231362   3.552   3.474   5.120
10474TIP3    H131363   3.482   3.487   5.184
10474TIP3    H231364   3.561   3.379   5.113
10475TIP3   OH231365   6.921   0.051   1.150
10475TIP3    H131366   7.015   0.069   1.145
10475TIP3    H231367   6.913  -0.015   1.219
10476TIP3   OH231368   1.900   6.032   0.488
10476TIP3    H131369   1.812   6.057   0.516
10476TIP3    H231370   1.952   6.112   0.498
10477TIP3   OH231371   6.941   1.478   3.530
10477TIP3    H131372   7.014   1.541   3.530
10477TIP3    H231373   6.978   1.399   3.492
10478TIP3   OH231374   5.511   3.923   3.497
10478TIP3    H131375   5.494   3.852   3.559
10478TIP3    H231376   5.588   3.893   3.448
10479TIP3   OH231377   3.147   4.621   4.140
10479TIP3    H131378   3.196   4.690   4.186
10479TIP3    H231379   3.181   4.622   4.051
10480TIP3   OH231380   0.895   1.850   0.700
10480TIP3    H131381   0.897   1.768   0.652
10480TIP3    H231382   0.985   1.861   0.732
10481TIP3   OH231383   3.997   0.889   0.189
10481TIP3    H131384   3.945   0.881   0.269
10481TIP3    H231385   4.080   0.847   0.210
10482TIP3   OH231386   6.724   2.907   4.232
10482TIP3    H131387   6.719   2.836   4.296
10482TIP3    H231388   6.699   2.985   4.281
10483TIP3   OH231389   2.413   0.531   6.454
10483TIP3    H131390   2.411   0.562   6.544
10483TIP3    H231391   2.331   0.565   6.416
10484TIP3   OH231392   0.760   4.582   4.851
10484TIP3    H131393   0.790   4.510   4.905
10484TIP3    H231394   0.691   4.624   4.903
10485TIP3   OH231395   1.534   6.635   6.813
10485TIP3    H131396   1.527   6.688   6.734
10485TIP3    H231397   1.517   6.696   6.885
10486TIP3   OH231398   7.013   7.572   1.224
10486TIP3    H131399   7.063   7.651   1.202
10486TIP3    H231400   6.923   7.603   1.234
10487TIP3   OH231401   3.887   4.540   0.778
10487TIP3    H131402   3.798   4.506   0.788
10487TIP3    H231403   3.891   4.571   0.688
10488TIP3   OH231404   2.278   5.668   0.954
10488TIP3    H131405   2.296   5.602   1.022
10488TIP3    H231406   2.217   5.624   0.894
10489TIP3   OH231407   1.414   3.732   0.174
10489TIP3    H131408   1.378   3.745   0.086
10489TIP3    H231409   1.379   3.805   0.225
10490TIP3   OH231410   1.171   5.426   4.688
10490TIP3    H131411   1.144   5.338   4.716
10490TIP3    H231412   1.244   5.411   4.628
10491TIP3   OH231413   1.888   3.935   6.691
10491TIP3    H131414   1.906   3.920   6.598
10491TIP3    H231415   1.921   3.858   6.736
10492TIP3   OH231416   0.202   1.336   5.925
10492TIP3    H131417   0.265   1.272   5.891
10492TIP3    H231418   0.188   1.310   6.016
10493TIP3   OH231419   5.564   2.710   4.763
10493TIP3    H131420   5.480   2.728   4.719
10493TIP3    H231421   5.626   2.768   4.719
10494TIP3   OH231422   2.233   3.818   5.452
10494TIP3    H131423   2.248   3.734   5.409
10494TIP3    H231424   2.254   3.802   5.544
10495TIP3   OH231425   2.454   1.445   4.392
10495TIP3    H131426   2.478   1.353   4.403
10495TIP3    H231427   2.382   1.458   4.453
10496TIP3   OH231428   5.240   3.902   3.993
10496TIP3    H131429   5.325   3.859   4.003
10496TIP3    H231430   5.176   3.832   4.004
10497TIP3   OH231431   0.667   3.603   6.023
10497TIP3    H131432   0.632   3.617   6.111
10497TIP3    H231433   0.706   3.516   6.026
10498TIP3   OH231434   2.077   0.531   0.168
10498TIP3    H131435   2.072   0.450   0.219
10498TIP3    H231436   1.986   0.553   0.149
10499TIP3   OH231437   7.525   4.340   1.075
10499TIP3    H131438   7.521   4.425   1.119
10499TIP3    H231439   7.480   4.280   1.135
10500TIP3   OH231440   6.164   6.028   4.610
10500TIP3    H131441   6.219   6.099   4.579
10500TIP3    H231442   6.074   6.057   4.593
10501TIP3   OH231443   7.355   3.549   1.343
10501TIP3    H131444   7.301   3.612   1.296
10501TIP3    H231445   7.435   3.543   1.292
10502TIP3   OH231446   2.483   4.442   3.239
10502TIP3    H131447   2.557   4.429   3.299
10502TIP3    H231448   2.454   4.353   3.218
10503TIP3   OH231449   4.342   5.396   1.091
10503TIP3    H131450   4.274   5.422   1.153
10503TIP3    H231451   4.408   5.354   1.146
10504TIP3   OH231452   5.808   3.851   3.770
10504TIP3    H131453   5.891   3.815   3.741
10504TIP3    H231454   5.805   3.939   3.733
10505TIP3   OH231455   0.024   6.512   3.818
10505TIP3    H131456   0.097   6.558   3.859
10505TIP3    H231457  -0.049   6.523   3.879
10506TIP3   OH231458   2.855   2.663   5.862
10506TIP3    H131459   2.868   2.665   5.767
10506TIP3    H231460   2.816   2.577   5.879
10507TIP3   OH231461   3.130   2.387   2.006
10507TIP3    H131462   3.220   2.357   2.023
10507TIP3    H231463   3.076   2.337   2.067
10508TIP3   OH231464   2.576   3.603   5.449
10508TIP3    H131465   2.522   3.585   5.371
10508TIP3    H231466   2.603   3.694   5.438
10509TIP3   OH231467   0.323   6.924   5.214
10509TIP3    H131468   0.282   6.907   5.300
10509TIP3    H231469   0.267   6.877   5.152
10510TIP3   OH231470   0.209   3.288   6.817
10510TIP3    H131471   0.137   3.225   6.809
10510TIP3    H231472   0.258   3.279   6.736
10511TIP3   OH231473   3.291   5.600   6.016
10511TIP3    H131474   3.214   5.585   6.071
10511TIP3    H231475   3.323   5.687   6.043
10512TIP3   OH231476   8.089   3.902   4.923
10512TIP3    H131477   8.096   3.814   4.888
10512TIP3    H231478   8.100   3.960   4.847
10513TIP3   OH231479   0.697   2.637   0.065
10513TIP3    H131480   0.759   2.574   0.102
10513TIP3    H231481   0.613   2.616   0.107
10514TIP3   OH231482   0.003   6.872   6.165
10514TIP3    H131483   0.069   6.940   6.159
10514TIP3    H231484   0.043   6.805   6.221
10515TIP3   OH231485   8.064   6.227   5.213
10515TIP3    H131486   8.085   6.310   5.171
10515TIP3    H231487   8.076   6.243   5.307
10516TIP3   OH231488   4.708   1.172   0.413
10516TIP3    H131489   4.681   1.148   0.325
10516TIP3    H231490   4.650   1.245   0.437
10517TIP3   OH231491   3.812   3.448   3.045
10517TIP3    H131492   3.758   3.397   3.106
10517TIP3    H231493   3.897   3.404   3.047
10518TIP3   OH231494   3.272   1.505   5.206
10518TIP3    H131495   3.183   1.533   5.227
10518TIP3    H231496   3.328   1.568   5.251
10519TIP3   OH231497   3.934   5.337   4.542
10519TIP3    H131498   3.983   5.399   4.595
10519TIP3    H231499   3.999   5.299   4.482
10520TIP3   OH231500   6.844   6.080   0.190
10520TIP3    H131501   6.894   5.999   0.200
10520TIP3    H231502   6.910   6.149   0.194
10521TIP3   OH231503   2.825   5.502   3.759
10521TIP3    H131504   2.863   5.512   3.671
10521TIP3    H231505   2.774   5.421   3.753
10522TIP3   OH231506   1.776   6.808   0.804
10522TIP3    H131507   1.828   6.881   0.836
10522TIP3    H231508   1.708   6.848   0.749
10523TIP3   OH231509   4.290   0.438   0.157
10523TIP3    H131510   4.219   0.383   0.190
10523TIP3    H231511   4.268   0.455   0.066
10524TIP3   OH231512   7.036   6.457   4.926
10524TIP3    H131513   6.972   6.391   4.954
10524TIP3    H231514   7.089   6.474   5.004
10525TIP3   OH231515   2.693   6.878   0.686
10525TIP3    H131516   2.708   6.838   0.600
10525TIP3    H231517   2.605   6.914   0.680
10526TIP3   OH231518   7.608   1.553   1.713
10526TIP3    H131519   7.681   1.494   1.731
10526TIP3    H231520   7.532   1.496   1.709
10527TIP3   OH231521   3.210   2.117   3.512
10527TIP3    H131522   3.118   2.144   3.506
10527TIP3    H231523   3.249   2.144   3.429
10528TIP3   OH231524   3.424   2.092   5.304
10528TIP3    H131525   3.455   2.128   5.387
10528TIP3    H231526   3.428   2.166   5.243
10529TIP3   OH231527   4.069   2.182   4.698
10529TIP3    H131528   4.065   2.122   4.624
10529TIP3    H231529   4.048   2.268   4.662
10530TIP3   OH231530   2.243   0.076   4.940
10530TIP3    H131531   2.277  -0.012   4.957
10530TIP3    H231532   2.178   0.064   4.871
10531TIP3   OH231533   5.735   3.647   2.504
10531TIP3    H131534   5.811   3.675   2.555
10531TIP3    H231535   5.661   3.659   2.564
10532TIP3   OH231536   1.438   4.158   6.262
10532TIP3    H131537   1.423   4.208   6.182
10532TIP3    H231538   1.360   4.102   6.270
10533TIP3   OH231539   0.525   2.335   1.809
10533TIP3    H131540   0.518   2.276   1.734
10533TIP3    H231541   0.442   2.382   1.811
10534TIP3   OH231542   6.021   1.352   2.290
10534TIP3    H131543   6.066   1.436   2.281
10534TIP3    H231544   5.930   1.371   2.267
10535TIP3   OH231545   2.335   1.070   2.392
10535TIP3    H131546   2.388   0.990   2.396
10535TIP3    H231547   2.363   1.112   2.311
10536TIP3   OH231548   6.065   7.392   0.226
10536TIP3    H131549   6.006   7.334   0.275
10536TIP3    H231550   6.107   7.446   0.294
10537TIP3   OH231551   2.070   3.823   4.467
10537TIP3    H131552   2.075   3.858   4.555
10537TIP3    H231553   2.159   3.795   4.447
10538TIP3   OH231554   0.877   6.116   1.036
10538TIP3    H131555   0.937   6.078   0.971
10538TIP3    H231556   0.884   6.058   1.111
10539TIP3   OH231557   6.977   0.960   4.301
10539TIP3    H131558   6.970   0.878   4.350
10539TIP3    H231559   6.997   0.933   4.212
10540TIP3   OH231560   5.537   1.301   2.064
10540TIP3    H131561   5.489   1.384   2.060
10540TIP3    H231562   5.623   1.323   2.098
10541TIP3   OH231563   3.762   3.335   4.569
10541TIP3    H131564   3.782   3.427   4.555
10541TIP3    H231565   3.699   3.334   4.641
10542TIP3   OH231566   5.504   7.307   3.147
10542TIP3    H131567   5.430   7.246   3.143
10542TIP3    H231568   5.581   7.251   3.157
10543TIP3   OH231569   0.281   4.963   0.461
10543TIP3    H131570   0.207   4.903   0.451
10543TIP3    H231571   0.346   4.932   0.398
10544TIP3   OH231572   4.902   5.666   1.077
10544TIP3    H131573   4.843   5.706   1.014
10544TIP3    H231574   4.970   5.624   1.024
10545TIP3   OH231575   0.442   4.707   4.077
10545TIP3    H131576   0.358   4.743   4.103
10545TIP3    H231577   0.504   4.778   4.091
10546TIP3   OH231578   2.971   6.649   0.384
10546TIP3    H131579   3.067   6.653   0.390
10546TIP3    H231580   2.953   6.575   0.327
10547TIP3   OH231581   7.490   4.444   1.777
10547TIP3    H131582   7.470   4.411   1.864
10547TIP3    H231583   7.417   4.415   1.723
10548TIP3   OH231584   1.639   2.758   2.157
10548TIP3    H131585   1.690   2.832   2.123
10548TIP3    H231586   1.552   2.794   2.172
10549TIP3   OH231587   4.406   2.902   3.555
10549TIP3    H131588   4.448   2.987   3.570
10549TIP3    H231589   4.455   2.864   3.482
10550TIP3   OH231590   3.404   6.577  -0.015
10550TIP3    H131591   3.328   6.527   0.012
10550TIP3    H231592   3.475   6.545   0.041
10551TIP3   OH231593   4.665   7.872   0.993
10551TIP3    H131594   4.634   7.920   0.916
10551TIP3    H231595   4.745   7.918   1.018
10552TIP3   OH231596   7.398   3.353   3.347
10552TIP3    H131597   7.476   3.381   3.298
10552TIP3    H231598   7.330   3.345   3.281
10553TIP3   OH231599   0.092   7.678   0.085
10553TIP3    H131600   0.024   7.738   0.055
10553TIP3    H231601   0.124   7.718   0.166
10554TIP3   OH231602   3.544   7.640   6.441
10554TIP3    H131603   3.600   7.563   6.437
10554TIP3    H231604   3.484   7.629   6.367
10555TIP3   OH231605   3.897   4.612   0.166
10555TIP3    H131606   3.838   4.539   0.181
10555TIP3    H231607   3.843   4.690   0.179
10556TIP3   OH231608   6.155   4.133   2.892
10556TIP3    H131609   6.098   4.135   2.815
10556TIP3    H231610   6.122   4.061   2.945
10557TIP3   OH231611   3.548   2.275   0.754
10557TIP3    H131612   3.583   2.331   0.823
10557TIP3    H231613   3.546   2.331   0.676
10558TIP3   OH231614   1.302   4.973   3.112
10558TIP3    H131615   1.241   4.902   3.095
10558TIP3    H231616   1.369   4.934   3.168
10559TIP3   OH231617   4.422   1.935   1.292
10559TIP3    H131618   4.335   1.972   1.279
10559TIP3    H231619   4.477   1.978   1.227
10560TIP3   OH231620   3.557   2.775   2.689
10560TIP3    H131621   3.517   2.853   2.728
10560TIP3    H231622   3.651   2.787   2.704
10561TIP3   OH231623   5.434   6.565   4.578
10561TIP3    H131624   5.363   6.580   4.640
10561TIP3    H231625   5.403   6.604   4.496
10562TIP3   OH231626   8.383   1.452   6.458
10562TIP3    H131627   8.364   1.369   6.413
10562TIP3    H231628   8.303   1.471   6.507
10563TIP3   OH231629   0.869   3.075   5.186
10563TIP3    H131630   0.960   3.056   5.208
10563TIP3    H231631   0.873   3.151   5.128
10564TIP3   OH231632   7.823   1.953   4.625
10564TIP3    H131633   7.809   1.862   4.651
10564TIP3    H231634   7.879   1.948   4.547
10565TIP3   OH231635   5.965   1.630   4.797
10565TIP3    H131636   6.040   1.622   4.738
10565TIP3    H231637   5.976   1.559   4.860
10566TIP3   OH231638   2.606   3.008   2.435
10566TIP3    H131639   2.550   3.051   2.499
10566TIP3    H231640   2.572   2.919   2.429
10567TIP3   OH231641   4.729   0.826   0.785
10567TIP3    H131642   4.663   0.850   0.849
10567TIP3    H231643   4.812   0.856   0.822
10568TIP3   OH231644   4.283   2.516   0.154
10568TIP3    H131645   4.354   2.461   0.187
10568TIP3    H231646   4.214   2.507   0.220
10569TIP3   OH231647   5.217   7.246   2.296
10569TIP3    H131648   5.159   7.302   2.243
10569TIP3    H231649   5.291   7.227   2.238
10570TIP3   OH231650   2.845   3.200   1.105
10570TIP3    H131651   2.916   3.234   1.050
10570TIP3    H231652   2.888   3.139   1.165
10571TIP3   OH231653   6.526   5.345   5.507
10571TIP3    H131654   6.488   5.390   5.431
10571TIP3    H231655   6.451   5.313   5.556
10572TIP3   OH231656   7.796   4.162   4.098
10572TIP3    H131657   7.798   4.204   4.184
10572TIP3    H231658   7.887   4.164   4.068
10573TIP3   OH231659   3.150   2.486   2.873
10573TIP3    H131660   3.121   2.485   2.782
10573TIP3    H231661   3.199   2.568   2.881
10574TIP3   OH231662   4.248   1.072   6.515
10574TIP3    H131663   4.328   1.101   6.558
10574TIP3    H231664   4.222   0.993   6.564
10575TIP3   OH231665   4.493   0.878   4.384
10575TIP3    H131666   4.470   0.970   4.371
10575TIP3    H231667   4.422   0.843   4.437
10576TIP3   OH231668   1.167   7.477   6.403
10576TIP3    H131669   1.181   7.507   6.313
10576TIP3    H231670   1.226   7.402   6.413
10577TIP3   OH231671   7.661   4.841   3.236
10577TIP3    H131672   7.617   4.909   3.287
10577TIP3    H231673   7.649   4.869   3.145
10578TIP3   OH231674   2.150   2.179   1.376
10578TIP3    H131675   2.193   2.262   1.357
10578TIP3    H231676   2.070   2.180   1.324
10579TIP3   OH231677   2.038   6.373   4.545
10579TIP3    H131678   1.963   6.314   4.552
10579TIP3    H231679   2.000   6.457   4.519
10580TIP3   OH231680   5.932   4.293   4.580
10580TIP3    H131681   5.979   4.310   4.662
10580TIP3    H231682   5.843   4.324   4.596
10581TIP3   OH231683   8.411   3.290   1.604
10581TIP3    H131684   8.318   3.270   1.597
10581TIP3    H231685   8.431   3.340   1.524
10582TIP3   OH231686   3.637   2.811   5.853
10582TIP3    H131687   3.679   2.751   5.790
10582TIP3    H231688   3.702   2.879   5.868
10583TIP3   OH231689   4.917   3.096   5.807
10583TIP3    H131690   4.962   3.158   5.864
10583TIP3    H231691   4.907   3.143   5.724
10584TIP3   OH231692   8.113   5.167   2.289
10584TIP3    H131693   8.060   5.089   2.270
10584TIP3    H231694   8.049   5.234   2.314
10585TIP3   OH231695   6.811   4.030   4.165
10585TIP3    H131696   6.837   4.121   4.175
10585TIP3    H231697   6.890   3.980   4.182
10586TIP3   OH231698   6.964   0.896   5.384
10586TIP3    H131699   6.926   0.909   5.297
10586TIP3    H231700   6.893   0.859   5.436
10587TIP3   OH231701   1.690   1.394   0.476
10587TIP3    H131702   1.776   1.437   0.479
10587TIP3    H231703   1.629   1.464   0.453
10588TIP3   OH231704   4.222   7.520   3.323
10588TIP3    H131705   4.141   7.528   3.272
10588TIP3    H231706   4.284   7.577   3.279
10589TIP3   OH231707   2.044   7.533   2.268
10589TIP3    H131708   1.988   7.602   2.303
10589TIP3    H231709   2.002   7.507   2.186
10590TIP3   OH231710   6.807   0.733   0.630
10590TIP3    H131711   6.819   0.818   0.673
10590TIP3    H231712   6.836   0.747   0.540
10591TIP3   OH231713   8.111   0.488   5.367
10591TIP3    H131714   8.204   0.511   5.377
10591TIP3    H231715   8.066   0.542   5.433
10592TIP3   OH231716   0.191   1.033   6.724
10592TIP3    H131717   0.238   1.027   6.807
10592TIP3    H231718   0.158   0.944   6.709
10593TIP3   OH231719   5.109   7.040   1.829
10593TIP3    H131720   5.111   7.135   1.827
10593TIP3    H231721   5.066   7.014   1.748
10594TIP3   OH231722   6.873   2.588   2.374
10594TIP3    H131723   6.836   2.663   2.419
10594TIP3    H231724   6.956   2.619   2.339
10595TIP3   OH231725   6.820   1.370   4.366
10595TIP3    H131726   6.817   1.280   4.332
10595TIP3    H231727   6.907   1.402   4.341
10596TIP3   OH231728   2.361   7.845   3.506
10596TIP3    H131729   2.323   7.800   3.581
10596TIP3    H231730   2.455   7.836   3.518
10597TIP3   OH231731   3.346   2.082   6.547
10597TIP3    H131732   3.426   2.129   6.523
10597TIP3    H231733   3.358   2.061   6.639
10598TIP3   OH231734   6.147   2.042   5.266
10598TIP3    H131735   6.197   2.106   5.316
10598TIP3    H231736   6.166   1.958   5.308
10599TIP3   OH231737   2.695   4.048   0.591
10599TIP3    H131738   2.716   4.127   0.541
10599TIP3    H231739   2.694   4.077   0.682
10600TIP3   OH231740   3.704   2.657   6.086
10600TIP3    H131741   3.695   2.562   6.095
10600TIP3    H231742   3.664   2.678   6.002
10601TIP3   OH231743   3.048   2.982   1.548
10601TIP3    H131744   3.074   2.910   1.605
10601TIP3    H231745   3.111   2.980   1.477
10602TIP3   OH231746   0.606   7.054   4.176
10602TIP3    H131747   0.623   7.148   4.173
10602TIP3    H231748   0.689   7.014   4.151
10603TIP3   OH231749   7.406   7.168   5.088
10603TIP3    H131750   7.318   7.191   5.118
10603TIP3    H231751   7.404   7.073   5.080
10604TIP3   OH231752   6.632   3.764   5.842
10604TIP3    H131753   6.686   3.700   5.795
10604TIP3    H231754   6.545   3.724   5.844
10605TIP3   OH231755   6.574   0.798   4.925
10605TIP3    H131756   6.533   0.826   4.843
10605TIP3    H231757   6.551   0.705   4.933
10606TIP3   OH231758   7.406   2.197   0.175
10606TIP3    H131759   7.374   2.205   0.085
10606TIP3    H231760   7.333   2.158   0.223
10607TIP3   OH231761   5.691   2.732   0.075
10607TIP3    H131762   5.664   2.785   0.000
10607TIP3    H231763   5.634   2.655   0.072
10608TIP3   OH231764   7.216   2.786   5.644
10608TIP3    H131765   7.200   2.721   5.713
10608TIP3    H231766   7.312   2.788   5.636
10609TIP3   OH231767   7.111   1.452   3.256
10609TIP3    H131768   7.143   1.363   3.269
10609TIP3    H231769   7.190   1.506   3.259
10610TIP3   OH231770   0.963   6.124   3.365
10610TIP3    H131771   0.876   6.085   3.375
10610TIP3    H231772   0.951   6.216   3.387
10611TIP3   OH231773   7.323   3.561   4.158
10611TIP3    H131774   7.260   3.489   4.167
10611TIP3    H231775   7.322   3.582   4.064
10612TIP3   OH231776   3.600   7.651   2.157
10612TIP3    H131777   3.693   7.657   2.137
10612TIP3    H231778   3.567   7.740   2.145
10613TIP3   OH231779   5.634   5.156   1.781
10613TIP3    H131780   5.581   5.192   1.852
10613TIP3    H231781   5.705   5.110   1.825
10614TIP3   OH231782   5.878   7.570   1.657
10614TIP3    H131783   5.952   7.593   1.601
10614TIP3    H231784   5.896   7.481   1.686
10615TIP3   OH231785   5.516   4.126   5.886
10615TIP3    H131786   5.429   4.086   5.888
10615TIP3    H231787   5.499   4.219   5.902
10616TIP3   OH231788   7.556   1.109   1.761
10616TIP3    H131789   7.540   1.072   1.674
10616TIP3    H231790   7.576   1.033   1.816
10617TIP3   OH231791   8.158   2.986   1.041
10617TIP3    H131792   8.169   3.045   0.966
10617TIP3    H231793   8.093   2.921   1.012
10618TIP3   OH231794   2.876   1.187   4.467
10618TIP3    H131795   2.958   1.141   4.483
10618TIP3    H231796   2.880   1.214   4.376
10619TIP3   OH231797   6.066   6.765   5.734
10619TIP3    H131798   6.055   6.681   5.778
10619TIP3    H231799   6.122   6.746   5.659
10620TIP3   OH231800   5.098   2.737   3.519
10620TIP3    H131801   5.102   2.723   3.424
10620TIP3    H231802   5.160   2.809   3.535
10621TIP3   OH231803   5.534   0.422   0.380
10621TIP3    H131804   5.505   0.352   0.439
10621TIP3    H231805   5.608   0.462   0.425
10622TIP3   OH231806   3.917   1.280   4.072
10622TIP3    H131807   3.977   1.300   4.144
10622TIP3    H231808   3.974   1.274   3.995
10623TIP3   OH231809   7.931   5.957   0.621
10623TIP3    H131810   8.007   5.898   0.618
10623TIP3    H231811   7.936   5.999   0.707
10624TIP3   OH231812   4.902   0.205   4.248
10624TIP3    H131813   4.977   0.146   4.253
10624TIP3    H231814   4.838   0.158   4.194
10625TIP3   OH231815   2.090   4.646   2.281
10625TIP3    H131816   2.042   4.729   2.287
10625TIP3    H231817   2.026   4.580   2.309
10626TIP3   OH231818   8.361   4.838   5.563
10626TIP3    H131819   8.337   4.802   5.649
10626TIP3    H231820   8.279   4.838   5.514
10627TIP3   OH231821   0.442   3.502   1.010
10627TIP3    H131822   0.370   3.549   1.052
10627TIP3    H231823   0.481   3.567   0.951
10628TIP3   OH231824   4.095   4.142   6.245
10628TIP3    H131825   4.052   4.211   6.296
10628TIP3    H231826   4.186   4.168   6.241
10629TIP3   OH231827   6.623   1.708   2.572
10629TIP3    H131828   6.582   1.768   2.635
10629TIP3    H231829   6.593   1.621   2.599
10630TIP3   OH231830   0.750   3.836   6.253
10630TIP3    H131831   0.667   3.859   6.212
10630TIP3    H231832   0.725   3.787   6.332
10631TIP3   OH231833   8.058   4.674   2.301
10631TIP3    H131834   8.029   4.620   2.374
10631TIP3    H231835   8.142   4.711   2.330
10632TIP3   OH231836   0.686   6.304   0.970
10632TIP3    H131837   0.743   6.377   0.947
10632TIP3    H231838   0.746   6.232   0.992
10633TIP3   OH231839   0.311   0.817   4.013
10633TIP3    H131840   0.237   0.874   4.035
10633TIP3    H231841   0.332   0.772   4.095
10634TIP3   OH231842   4.631   2.184   2.600
10634TIP3    H131843   4.688   2.198   2.525
10634TIP3    H231844   4.545   2.215   2.571
10635TIP3   OH231845   8.043   7.150   0.198
10635TIP3    H131846   7.997   7.199   0.129
10635TIP3    H231847   8.117   7.206   0.222
10636TIP3   OH231848   7.229   7.576   0.743
10636TIP3    H131849   7.135   7.563   0.735
10636TIP3    H231850   7.265   7.550   0.658
10637TIP3   OH231851   4.569   6.355   6.066
10637TIP3    H131852   4.475   6.374   6.060
10637TIP3    H231853   4.610   6.417   6.005
10638TIP3   OH231854   2.269   4.742   5.870
10638TIP3    H131855   2.245   4.721   5.961
10638TIP3    H231856   2.305   4.830   5.874
10639TIP3   OH231857   5.708   0.133   0.894
10639TIP3    H131858   5.644   0.143   0.964
10639TIP3    H231859   5.784   0.093   0.937
10640TIP3   OH231860   3.124   3.770   5.033
10640TIP3    H131861   3.171   3.745   4.953
10640TIP3    H231862   3.098   3.861   5.018
10641TIP3   OH231863   5.988   6.132   5.997
10641TIP3    H131864   5.997   6.205   6.059
10641TIP3    H231865   5.894   6.120   5.988
10642TIP3   OH231866   2.813   2.623   3.353
10642TIP3    H131867   2.852   2.625   3.441
10642TIP3    H231868   2.880   2.663   3.297
10643TIP3   OH231869   5.567   2.182   4.082
10643TIP3    H131870   5.485   2.201   4.037
10643TIP3    H231871   5.572   2.087   4.086
10644TIP3   OH231872   2.518   1.793   6.702
10644TIP3    H131873   2.469   1.861   6.749
10644TIP3    H231874   2.548   1.734   6.772
10645TIP3   OH231875   2.023   0.526   4.344
10645TIP3    H131876   2.014   0.447   4.399
10645TIP3    H231877   1.983   0.595   4.396
10646TIP3   OH231878   1.805   5.579   3.719
10646TIP3    H131879   1.863   5.504   3.731
10646TIP3    H231880   1.738   5.568   3.787
10647TIP3   OH231881   1.050   5.967   3.146
10647TIP3    H131882   0.997   6.028   3.095
10647TIP3    H231883   1.055   6.007   3.233
10648TIP3   OH231884   6.447   6.234   3.990
10648TIP3    H131885   6.507   6.193   4.052
10648TIP3    H231886   6.440   6.325   4.019
10649TIP3   OH231887   1.444   0.411   0.403
10649TIP3    H131888   1.507   0.392   0.472
10649TIP3    H231889   1.443   0.507   0.398
10650TIP3   OH231890   0.665   7.321   4.165
10650TIP3    H131891   0.595   7.386   4.175
10650TIP3    H231892   0.745   7.373   4.160
10651TIP3   OH231893   4.651   7.772   1.751
10651TIP3    H131894   4.719   7.771   1.819
10651TIP3    H231895   4.629   7.865   1.741
10652TIP3   OH231896   4.021   4.326   6.433
10652TIP3    H131897   4.101   4.365   6.466
10652TIP3    H231898   3.983   4.281   6.509
10653TIP3   OH231899   2.989   5.170   2.975
10653TIP3    H131900   2.933   5.099   2.943
10653TIP3    H231901   2.929   5.229   3.021
10654TIP3   OH231902   6.639   4.656   4.639
10654TIP3    H131903   6.731   4.638   4.623
10654TIP3    H231904   6.614   4.598   4.710
10655TIP3   OH231905   2.094   0.134   6.017
10655TIP3    H131906   2.183   0.118   6.047
10655TIP3    H231907   2.045   0.056   6.043
10656TIP3   OH231908   2.115   0.158   5.500
10656TIP3    H131909   2.136   0.164   5.593
10656TIP3    H231910   2.119   0.064   5.480
10657TIP3   OH231911   7.467   0.209   3.676
10657TIP3    H131912   7.470   0.267   3.600
10657TIP3    H231913   7.379   0.171   3.673
10658TIP3   OH231914   4.849   2.189   5.488
10658TIP3    H131915   4.831   2.161   5.578
10658TIP3    H231916   4.866   2.108   5.440
10659TIP3   OH231917   3.218   4.916   3.917
10659TIP3    H131918   3.313   4.915   3.920
10659TIP3    H231919   3.191   4.955   4.000
10660TIP3   OH231920   1.344   7.562   3.543
10660TIP3    H131921   1.346   7.595   3.453
10660TIP3    H231922   1.426   7.594   3.582
10661TIP3   OH231923   5.274   6.569   2.601
10661TIP3    H131924   5.360   6.528   2.613
10661TIP3    H231925   5.271   6.592   2.508
10662TIP3   OH231926   2.006   7.642   1.469
10662TIP3    H131927   2.035   7.569   1.524
10662TIP3    H231928   2.018   7.611   1.379
10663TIP3   OH231929   1.256   0.120   3.555
10663TIP3    H131930   1.300   0.204   3.538
10663TIP3    H231931   1.327   0.061   3.579
10664TIP3   OH231932   2.109   3.361   4.996
10664TIP3    H131933   2.193   3.378   4.954
10664TIP3    H231934   2.091   3.269   4.979
10665TIP3   OH231935   1.800   5.916   6.129
10665TIP3    H131936   1.802   5.894   6.036
10665TIP3    H231937   1.839   6.003   6.134
10666TIP3   OH231938   6.297   1.941   3.951
10666TIP3    H131939   6.341   1.875   3.897
10666TIP3    H231940   6.318   1.916   4.041
10667TIP3   OH231941   4.759   3.005   0.975
10667TIP3    H131942   4.748   3.085   0.924
10667TIP3    H231943   4.774   3.035   1.065
10668TIP3   OH231944   3.305   6.897   6.002
10668TIP3    H131945   3.302   6.862   6.091
10668TIP3    H231946   3.274   6.825   5.947
10669TIP3   OH231947   1.311   6.395   6.537
10669TIP3    H131948   1.256   6.331   6.491
10669TIP3    H231949   1.314   6.471   6.478
10670TIP3   OH231950   7.864   5.866   5.075
10670TIP3    H131951   7.915   5.946   5.090
10670TIP3    H231952   7.875   5.848   4.981
10671TIP3   OH231953   4.951   5.187   1.471
10671TIP3    H131954   4.989   5.170   1.384
10671TIP3    H231955   4.986   5.117   1.526
10672TIP3   OH231956   7.813   2.570   0.741
10672TIP3    H131957   7.833   2.533   0.655
10672TIP3    H231958   7.745   2.635   0.724
10673TIP3   OH231959   6.233   7.125   2.005
10673TIP3    H131960   6.293   7.151   2.075
10673TIP3    H231961   6.156   7.091   2.051
10674TIP3   OH231962   3.148   3.162   0.245
10674TIP3    H131963   3.053   3.170   0.247
10674TIP3    H231964   3.177   3.202   0.327
10675TIP3   OH231965   2.057   5.029   2.710
10675TIP3    H131966   2.084   4.939   2.692
10675TIP3    H231967   1.963   5.029   2.693
10676TIP3   OH231968   6.293   1.416   1.723
10676TIP3    H131969   6.233   1.346   1.700
10676TIP3    H231970   6.247   1.467   1.790
10677TIP3   OH231971   6.825   3.673   0.964
10677TIP3    H131972   6.838   3.767   0.979
10677TIP3    H231973   6.770   3.644   1.036
10678TIP3   OH231974   1.132   2.484   5.666
10678TIP3    H131975   1.177   2.459   5.747
10678TIP3    H231976   1.045   2.444   5.673
10679TIP3   OH231977   4.719   3.130   0.145
10679TIP3    H131978   4.809   3.144   0.177
10679TIP3    H231979   4.716   3.037   0.123
10680TIP3   OH231980   8.049   7.314   4.110
10680TIP3    H131981   7.959   7.300   4.140
10680TIP3    H231982   8.041   7.319   4.015
10681TIP3   OH231983   2.629   3.420   0.074
10681TIP3    H131984   2.660   3.360   0.006
10681TIP3    H231985   2.541   3.446   0.044
10682TIP3   OH231986   0.382   1.324   4.023
10682TIP3    H131987   0.387   1.404   3.972
10682TIP3    H231988   0.294   1.290   4.007
10683TIP3   OH231989   6.930   1.864   0.449
10683TIP3    H131990   6.871   1.925   0.405
10683TIP3    H231991   6.876   1.786   0.464
10684TIP3   OH231992   1.822   7.809   0.179
10684TIP3    H131993   1.732   7.813   0.213
10684TIP3    H231994   1.839   7.715   0.170
10685TIP3   OH231995   4.499   4.217   0.446
10685TIP3    H131996   4.587   4.254   0.446
10685TIP3    H231997   4.478   4.208   0.353
10686TIP3   OH231998   6.510   3.900   3.489
10686TIP3    H131999   6.476   3.920   3.402
10686TIP3    H232000   6.486   3.808   3.504
10687TIP3   OH232001   8.025   3.286   6.869
10687TIP3    H132002   8.011   3.374   6.834
10687TIP3    H232003   8.049   3.234   6.793
10688TIP3   OH232004   6.393   7.305   0.864
10688TIP3    H132005   6.444   7.374   0.823
10688TIP3    H232006   6.315   7.349   0.897
10689TIP3   OH232007   5.050   0.340   2.583
10689TIP3    H132008   4.956   0.342   2.565
10689TIP3    H232009   5.058   0.367   2.675
10690TIP3   OH232010   6.556   5.746   0.142
10690TIP3    H132011   6.507   5.801   0.081
10690TIP3    H232012   6.490   5.708   0.199
10691TIP3   OH232013   7.663   3.086   1.987
10691TIP3    H132014   7.670   3.068   1.893
10691TIP3    H232015   7.741   3.045   2.025
10692TIP3   OH232016   6.286   6.769   1.167
10692TIP3    H132017   6.369   6.794   1.126
10692TIP3    H232018   6.288   6.810   1.253
10693TIP3   OH232019   0.603   5.765   3.253
10693TIP3    H132020   0.689   5.781   3.214
10693TIP3    H232021   0.617   5.691   3.312
10694TIP3   OH232022   7.479   1.406   1.173
10694TIP3    H132023   7.429   1.352   1.234
10694TIP3    H232024   7.488   1.490   1.217
10695TIP3   OH232025   7.111   3.569   1.941
10695TIP3    H132026   7.198   3.535   1.920
10695TIP3    H232027   7.127   3.628   2.015
10696TIP3   OH232028   0.511   6.086   4.264
10696TIP3    H132029   0.547   6.010   4.310
10696TIP3    H232030   0.419   6.088   4.291
10697TIP3   OH232031   6.652   6.345   5.450
10697TIP3    H132032   6.703   6.390   5.518
10697TIP3    H232033   6.694   6.370   5.368
10698TIP3   OH232034   1.533   7.340   0.941
10698TIP3    H132035   1.508   7.429   0.964
10698TIP3    H232036   1.475   7.317   0.868
10699TIP3   OH232037   0.509   4.300   5.930
10699TIP3    H132038   0.569   4.286   5.857
10699TIP3    H232039   0.423   4.311   5.889
10700TIP3   OH232040   8.284   2.392   1.842
10700TIP3    H132041   8.309   2.300   1.840
10700TIP3    H232042   8.223   2.400   1.914
10701TIP3   OH232043   2.697   2.451   2.729
10701TIP3    H132044   2.678   2.539   2.762
10701TIP3    H232045   2.646   2.392   2.786
10702TIP3   OH232046   2.815   0.139   3.867
10702TIP3    H132047   2.741   0.200   3.868
10702TIP3    H232048   2.879   0.180   3.809
10703TIP3   OH232049   2.516   5.897   6.487
10703TIP3    H132050   2.481   5.829   6.544
10703TIP3    H232051   2.611   5.896   6.504
10704TIP3   OH232052   7.805   3.491   5.700
10704TIP3    H132053   7.840   3.580   5.696
10704TIP3    H232054   7.836   3.456   5.783
10705TIP3   OH232055   5.566   6.051   6.109
10705TIP3    H132056   5.517   6.076   6.187
10705TIP3    H232057   5.574   6.132   6.059
10706TIP3   OH232058   2.306   7.393   6.023
10706TIP3    H132059   2.335   7.368   5.935
10706TIP3    H232060   2.387   7.394   6.074
10707TIP3   OH232061   4.420   0.995   5.294
10707TIP3    H132062   4.347   1.021   5.350
10707TIP3    H232063   4.483   1.068   5.301
10708TIP3   OH232064   0.907   6.655   2.012
10708TIP3    H132065   0.840   6.602   2.055
10708TIP3    H232066   0.965   6.591   1.970
10709TIP3   OH232067   7.734   3.819   2.293
10709TIP3    H132068   7.656   3.776   2.327
10709TIP3    H232069   7.786   3.840   2.370
10710TIP3   OH232070   7.780   2.120   5.854
10710TIP3    H132071   7.810   2.185   5.791
10710TIP3    H232072   7.811   2.037   5.818
10711TIP3   OH232073   2.659   3.265   5.792
10711TIP3    H132074   2.712   3.276   5.713
10711TIP3    H232075   2.612   3.348   5.801
10712TIP3   OH232076   8.005   2.777   0.091
10712TIP3    H132077   8.098   2.771   0.069
10712TIP3    H232078   7.979   2.687   0.109
10713TIP3   OH232079   7.570   5.510   4.555
10713TIP3    H132080   7.524   5.522   4.638
10713TIP3    H232081   7.531   5.431   4.517
10714TIP3   OH232082   3.624   0.978   2.512
10714TIP3    H132083   3.665   0.923   2.445
10714TIP3    H232084   3.634   0.929   2.593
10715TIP3   OH232085   6.995   4.886   2.387
10715TIP3    H132086   6.900   4.890   2.395
10715TIP3    H232087   7.021   4.973   2.357
10716TIP3   OH232088   5.473   4.058   5.096
10716TIP3    H132089   5.461   4.000   5.021
10716TIP3    H232090   5.566   4.051   5.118
10717TIP3   OH232091   8.266   6.140   6.114
10717TIP3    H132092   8.283   6.116   6.205
10717TIP3    H232093   8.191   6.086   6.089
10718TIP3   OH232094   3.191   3.774   4.248
10718TIP3    H132095   3.101   3.748   4.263
10718TIP3    H232096   3.186   3.867   4.225
10719TIP3   OH232097   3.578   0.787   2.273
10719TIP3    H132098   3.563   0.695   2.252
10719TIP3    H232099   3.668   0.790   2.306
10720TIP3   OH232100   1.134   0.813   3.018
10720TIP3    H132101   1.105   0.874   2.950
10720TIP3    H232102   1.069   0.822   3.088
10721TIP3   OH232103   8.030   6.398   1.387
10721TIP3    H132104   8.013   6.491   1.367
10721TIP3    H232105   8.053   6.360   1.302
10722TIP3   OH232106   3.473   4.498   5.522
10722TIP3    H132107   3.463   4.404   5.504
10722TIP3    H232108   3.406   4.516   5.588
10723TIP3   OH232109   6.041   6.379   2.023
10723TIP3    H132110   6.028   6.465   2.063
10723TIP3    H232111   6.083   6.327   2.091
10724TIP3   OH232112   4.253   7.206   1.053
10724TIP3    H132113   4.293   7.199   1.140
10724TIP3    H232114   4.169   7.248   1.069
10725TIP3   OH232115   3.594   7.536   3.974
10725TIP3    H132116   3.619   7.448   4.001
10725TIP3    H232117   3.577   7.529   3.880
10726TIP3   OH232118   5.866   4.499   5.579
10726TIP3    H132119   5.875   4.550   5.659
10726TIP3    H232120   5.773   4.506   5.556
10727TIP3   OH232121   1.183   3.814   4.057
10727TIP3    H132122   1.195   3.803   4.152
10727TIP3    H232123   1.171   3.909   4.046
10728TIP3   OH232124   4.471   3.653   1.025
10728TIP3    H132125   4.503   3.735   1.063
10728TIP3    H232126   4.413   3.680   0.955
10729TIP3   OH232127   7.835   3.408   2.949
10729TIP3    H132128   7.874   3.468   3.013
10729TIP3    H232129   7.886   3.328   2.956
10730TIP3   OH232130   4.367   1.618   2.003
10730TIP3    H132131   4.321   1.562   1.940
10730TIP3    H232132   4.399   1.692   1.951
10731TIP3   OH232133   7.046   6.247   0.167
10731TIP3    H132134   7.064   6.285   0.081
10731TIP3    H232135   7.132   6.231   0.204
10732TIP3   OH232136   1.592   0.394   5.867
10732TIP3    H132137   1.641   0.328   5.917
10732TIP3    H232138   1.656   0.430   5.806
10733TIP3   OH232139   7.304   0.299   6.161
10733TIP3    H132140   7.344   0.360   6.100
10733TIP3    H232141   7.217   0.283   6.125
10734TIP3   OH232142   3.282   7.622   3.478
10734TIP3    H132143   3.264   7.630   3.384
10734TIP3    H232144   3.261   7.709   3.514
10735TIP3   OH232145   6.756   4.457   6.151
10735TIP3    H132146   6.690   4.390   6.132
10735TIP3    H232147   6.829   4.408   6.189
10736TIP3   OH232148   3.942   1.346   0.387
10736TIP3    H132149   4.014   1.309   0.336
10736TIP3    H232150   3.882   1.381   0.322
10737TIP3   OH232151   4.217   1.719   2.532
10737TIP3    H132152   4.267   1.798   2.554
10737TIP3    H232153   4.271   1.647   2.568
10738TIP3   OH232154   8.179   0.331   4.806
10738TIP3    H132155   8.108   0.283   4.848
10738TIP3    H232156   8.135   0.400   4.756
10739TIP3   OH232157   7.994   6.839   6.203
10739TIP3    H132158   8.047   6.903   6.250
10739TIP3    H232159   8.059   6.783   6.159
10740TIP3   OH232160   6.892   5.492   4.534
10740TIP3    H132161   6.925   5.555   4.471
10740TIP3    H232162   6.900   5.536   4.619
10741TIP3   OH232163   2.744   1.126   3.848
10741TIP3    H132164   2.772   1.162   3.932
10741TIP3    H232165   2.811   1.063   3.825
10742TIP3   OH232166   4.254   0.759   4.658
10742TIP3    H132167   4.207   0.810   4.724
10742TIP3    H232168   4.332   0.811   4.640
10743TIP3   OH232169   3.076   3.798   0.915
10743TIP3    H132170   3.132   3.770   0.843
10743TIP3    H232171   3.068   3.893   0.904
10744TIP3   OH232172   2.715   3.237   1.845
10744TIP3    H132173   2.624   3.267   1.838
10744TIP3    H232174   2.728   3.182   1.768
10745TIP3   OH232175   2.538   2.208   3.730
10745TIP3    H132176   2.527   2.159   3.811
10745TIP3    H232177   2.532   2.142   3.661
10746TIP3   OH232178   4.262   1.435   4.680
10746TIP3    H132179   4.260   1.408   4.588
10746TIP3    H232180   4.339   1.491   4.687
10747TIP3   OH232181   0.235   2.802   6.395
10747TIP3    H132182   0.153   2.791   6.347
10747TIP3    H232183   0.209   2.829   6.483
10748TIP3   OH232184   3.561   6.158   3.678
10748TIP3    H132185   3.497   6.216   3.718
10748TIP3    H232186   3.614   6.215   3.622
10749TIP3   OH232187   4.011   6.241   5.327
10749TIP3    H132188   3.951   6.189   5.274
10749TIP3    H232189   4.067   6.285   5.264
10750TIP3   OH232190   6.541   2.955   6.567
10750TIP3    H132191   6.545   2.863   6.539
10750TIP3    H232192   6.607   2.963   6.635
10751TIP3   OH232193   4.721   7.179   3.480
10751TIP3    H132194   4.742   7.093   3.517
10751TIP3    H232195   4.792   7.196   3.418
10752TIP3   OH232196   7.753   7.542   4.819
10752TIP3    H132197   7.681   7.595   4.854
10752TIP3    H232198   7.712   7.461   4.790
10753TIP3   OH232199   4.350   2.649   1.096
10753TIP3    H132200   4.390   2.733   1.075
10753TIP3    H232201   4.363   2.640   1.191
10754TIP3   OH232202   8.094   5.455   3.186
10754TIP3    H132203   8.172   5.493   3.226
10754TIP3    H232204   8.111   5.361   3.187
10755TIP3   OH232205   8.061   4.195   4.034
10755TIP3    H132206   8.082   4.257   3.964
10755TIP3    H232207   8.126   4.213   4.102
10756TIP3   OH232208   8.393   6.597   2.710
10756TIP3    H132209   8.352   6.613   2.795
10756TIP3    H232210   8.328   6.545   2.662
10757TIP3   OH232211   5.370   1.383   6.013
10757TIP3    H132212   5.291   1.432   6.035
10757TIP3    H232213   5.442   1.438   6.044
10758TIP3   OH232214   3.226   4.693   3.218
10758TIP3    H132215   3.280   4.764   3.253
10758TIP3    H232216   3.169   4.736   3.154
10759TIP3   OH232217   6.333   3.722   2.686
10759TIP3    H132218   6.365   3.741   2.598
10759TIP3    H232219   6.340   3.805   2.733
10760TIP3   OH232220   7.141   4.564   0.923
10760TIP3    H132221   7.062   4.513   0.938
10760TIP3    H232222   7.136   4.636   0.985
10761TIP3   OH232223   1.648   2.097   3.931
10761TIP3    H132224   1.731   2.050   3.921
10761TIP3    H232225   1.616   2.072   4.018
10762TIP3   OH232226   3.708   2.571   2.489
10762TIP3    H132227   3.651   2.617   2.551
10762TIP3    H232228   3.705   2.623   2.409
10763TIP3   OH232229   0.328   0.524   5.780
10763TIP3    H132230   0.281   0.553   5.858
10763TIP3    H232231   0.313   0.429   5.777
10764TIP3   OH232232   7.575   3.786   4.116
10764TIP3    H132233   7.492   3.782   4.070
10764TIP3    H232234   7.590   3.696   4.147
10765TIP3   OH232235   3.917   4.601   4.546
10765TIP3    H132236   3.916   4.585   4.452
10765TIP3    H232237   3.994   4.655   4.561
10766TIP3   OH232238   3.375   4.053   3.643
10766TIP3    H132239   3.436   3.980   3.649
10766TIP3    H232240   3.432   4.130   3.636
10767TIP3   OH232241   3.685   3.830   5.554
10767TIP3    H132242   3.683   3.747   5.507
10767TIP3    H232243   3.775   3.838   5.584
10768TIP3   OH232244   6.511   2.931   0.143
10768TIP3    H132245   6.446   2.884   0.196
10768TIP3    H232246   6.551   2.864   0.088
10769TIP3   OH232247   4.322   5.068   2.802
10769TIP3    H132248   4.346   5.011   2.729
10769TIP3    H232249   4.286   5.009   2.868
10770TIP3   OH232250   4.241   5.704   5.320
10770TIP3    H132251   4.295   5.712   5.399
10770TIP3    H232252   4.265   5.619   5.283
10771TIP3   OH232253   4.442   6.358   2.967
10771TIP3    H132254   4.474   6.280   3.014
10771TIP3    H232255   4.490   6.356   2.884
10772TIP3   OH232256   1.318   6.727   5.321
10772TIP3    H132257   1.362   6.765   5.397
10772TIP3    H232258   1.235   6.775   5.315
10773TIP3   OH232259   6.323   2.148   2.108
10773TIP3    H132260   6.374   2.080   2.152
10773TIP3    H232261   6.370   2.165   2.027
10774TIP3   OH232262   1.971   0.321   5.309
10774TIP3    H132263   2.023   0.292   5.383
10774TIP3    H232264   2.015   0.283   5.233
10775TIP3   OH232265   4.598   1.436   5.069
10775TIP3    H132266   4.647   1.425   5.151
10775TIP3    H232267   4.507   1.420   5.093
10776TIP3   OH232268   7.163   5.461   3.351
10776TIP3    H132269   7.082   5.508   3.330
10776TIP3    H232270   7.133   5.376   3.384
10777TIP3   OH232271   3.604   1.132   3.081
10777TIP3    H132272   3.624   1.051   3.034
10777TIP3    H232273   3.644   1.120   3.167
10778TIP3   OH232274   6.494   7.628   1.881
10778TIP3    H132275   6.580   7.624   1.923
10778TIP3    H232276   6.456   7.541   1.897
10779TIP3   OH232277   1.071   2.118   3.296
10779TIP3    H132278   1.101   2.170   3.221
10779TIP3    H232279   0.980   2.095   3.275
10780TIP3   OH232280   6.684   3.033   3.600
10780TIP3    H132281   6.636   2.986   3.532
10780TIP3    H232282   6.618   3.088   3.642
10781TIP3   OH232283   3.116   1.340   6.767
10781TIP3    H132284   3.136   1.316   6.857
10781TIP3    H232285   3.021   1.336   6.761
10782TIP3   OH232286   2.226   7.056   2.503
10782TIP3    H132287   2.158   7.032   2.439
10782TIP3    H232288   2.177   7.070   2.584
10783TIP3   OH232289   5.331   4.610   6.041
10783TIP3    H132290   5.321   4.654   6.125
10783TIP3    H232291   5.424   4.588   6.037
10784TIP3   OH232292   7.012   7.822   3.706
10784TIP3    H132293   6.970   7.785   3.784
10784TIP3    H232294   7.083   7.876   3.740
10785TIP3   OH232295   5.539   0.198   0.676
10785TIP3    H132296   5.565   0.137   0.607
10785TIP3    H232297   5.609   0.190   0.741
10786TIP3   OH232298   4.251   2.929   5.970
10786TIP3    H132299   4.179   2.869   5.949
10786TIP3    H232300   4.330   2.880   5.948
10787TIP3   OH232301   3.593   1.489   1.115
10787TIP3    H132302   3.513   1.485   1.062
10787TIP3    H232303   3.650   1.421   1.079
10788TIP3   OH232304   3.034   4.333   3.932
10788TIP3    H132305   3.031   4.368   3.843
10788TIP3    H232306   2.948   4.355   3.969
10789TIP3   OH232307   2.337   5.002   5.856
10789TIP3    H132308   2.419   4.997   5.904
10789TIP3    H232309   2.280   5.054   5.913
10790TIP3   OH232310   4.577   5.994   0.125
10790TIP3    H132311   4.549   5.908   0.093
10790TIP3    H232312   4.495   6.040   0.145
10791TIP3   OH232313   5.314   1.402   0.424
10791TIP3    H132314   5.284   1.489   0.400
10791TIP3    H232315   5.397   1.416   0.470
10792TIP3   OH232316   6.070   1.777   1.158
10792TIP3    H132317   6.076   1.872   1.164
10792TIP3    H232318   6.011   1.753   1.230
10793TIP3   OH232319   1.494   0.154   4.840
10793TIP3    H132320   1.496   0.068   4.799
10793TIP3    H232321   1.418   0.151   4.898
10794TIP3   OH232322   3.895   6.084   5.655
10794TIP3    H132323   3.832   6.099   5.584
10794TIP3    H232324   3.968   6.040   5.613
10795TIP3   OH232325   6.759   2.392   0.991
10795TIP3    H132326   6.698   2.320   1.007
10795TIP3    H232327   6.840   2.364   1.035
10796TIP3   OH232328   4.822   3.697   3.394
10796TIP3    H132329   4.737   3.654   3.407
10796TIP3    H232330   4.808   3.756   3.320
10797TIP3   OH232331   6.768   3.465   0.436
10797TIP3    H132332   6.842   3.405   0.438
10797TIP3    H232333   6.781   3.523   0.511
10798TIP3   OH232334   1.579   2.746   4.025
10798TIP3    H132335   1.669   2.716   4.016
10798TIP3    H232336   1.533   2.673   4.066
10799TIP3   OH232337   2.508   1.036   0.993
10799TIP3    H132338   2.559   0.986   1.057
10799TIP3    H232339   2.417   1.016   1.015
10800TIP3   OH232340   6.047   7.509   1.962
10800TIP3    H132341   6.112   7.567   2.002
10800TIP3    H232342   6.092   7.471   1.887
10801TIP3   OH232343   2.431   6.868   3.076
10801TIP3    H132344   2.418   6.808   3.003
10801TIP3    H232345   2.389   6.824   3.150
10802TIP3   OH232346   4.255   0.309   1.379
10802TIP3    H132347   4.297   0.295   1.464
10802TIP3    H232348   4.317   0.362   1.329
10803TIP3   OH232349   5.849   4.055   3.398
10803TIP3    H132350   5.931   4.021   3.435
10803TIP3    H232351   5.848   4.024   3.308
10804TIP3   OH232352   7.371   4.806   5.961
10804TIP3    H132353   7.298   4.806   6.023
10804TIP3    H232354   7.355   4.880   5.903
10805TIP3   OH232355   0.426   1.972   1.110
10805TIP3    H132356   0.377   1.908   1.057
10805TIP3    H232357   0.397   2.057   1.077
10806TIP3   OH232358   7.291   7.692   5.836
10806TIP3    H132359   7.245   7.765   5.795
10806TIP3    H232360   7.365   7.674   5.778
10807TIP3   OH232361   6.416   7.438   3.103
10807TIP3    H132362   6.387   7.347   3.107
10807TIP3    H232363   6.387   7.477   3.185
10808TIP3   OH232364   8.048   1.307   4.174
10808TIP3    H132365   8.024   1.373   4.109
10808TIP3    H232366   8.012   1.225   4.140
10809TIP3   OH232367   1.125   4.341   0.362
10809TIP3    H132368   1.190   4.307   0.423
10809TIP3    H232369   1.051   4.367   0.417
10810TIP3   OH232370   0.026   4.388   4.399
10810TIP3    H132371   0.107   4.439   4.406
10810TIP3    H232372   0.024   4.336   4.479
10811TIP3   OH232373   2.151   7.848   6.104
10811TIP3    H132374   2.069   7.825   6.147
10811TIP3    H232375   2.176   7.932   6.142
10812TIP3   OH232376   5.807   1.397   1.382
10812TIP3    H132377   5.787   1.429   1.470
10812TIP3    H232378   5.723   1.371   1.346
10813TIP3   OH232379   8.357   2.119   3.526
10813TIP3    H132380   8.308   2.064   3.587
10813TIP3    H232381   8.446   2.085   3.528
10814TIP3   OH232382   3.471   6.274   4.033
10814TIP3    H132383   3.431   6.251   4.117
10814TIP3    H232384   3.400   6.312   3.982
10815TIP3   OH232385   4.428   2.211   3.787
10815TIP3    H132386   4.356   2.234   3.728
10815TIP3    H232387   4.391   2.220   3.875
10816TIP3   OH232388   6.373   0.260   6.405
10816TIP3    H132389   6.357   0.182   6.351
10816TIP3    H232390   6.297   0.266   6.462
10817TIP3   OH232391   3.280   5.817   2.093
10817TIP3    H132392   3.257   5.764   2.170
10817TIP3    H232393   3.274   5.756   2.019
10818TIP3   OH232394   1.596   5.185   5.300
10818TIP3    H132395   1.623   5.102   5.261
10818TIP3    H232396   1.509   5.201   5.264
10819TIP3   OH232397   0.558   2.207   3.844
10819TIP3    H132398   0.567   2.300   3.826
10819TIP3    H232399   0.591   2.197   3.933
10820TIP3   OH232400   8.059   0.123   0.442
10820TIP3    H132401   8.082   0.193   0.381
10820TIP3    H232402   8.059   0.165   0.528
10821TIP3   OH232403   3.745   1.836   4.989
10821TIP3    H132404   3.807   1.869   4.925
10821TIP3    H232405   3.674   1.900   4.990
10822TIP3   OH232406   1.627   6.015   4.026
10822TIP3    H132407   1.665   6.040   3.941
10822TIP3    H232408   1.701   5.981   4.076
10823TIP3   OH232409   3.674   2.175   4.507
10823TIP3    H132410   3.609   2.117   4.469
10823TIP3    H232411   3.736   2.192   4.436
10824TIP3   OH232412   0.721   3.227   0.679
10824TIP3    H132413   0.702   3.213   0.586
10824TIP3    H232414   0.658   3.173   0.725
10825TIP3   OH232415   5.264   0.473   2.788
10825TIP3    H132416   5.263   0.518   2.703
10825TIP3    H232417   5.308   0.534   2.847
10826TIP3   OH232418   2.558   0.698   3.968
10826TIP3    H132419   2.603   0.686   4.051
10826TIP3    H232420   2.474   0.653   3.978
10827TIP3   OH232421   0.623   2.574   4.059
10827TIP3    H132422   0.547   2.552   4.113
10827TIP3    H232423   0.598   2.547   3.970
10828TIP3   OH232424   7.730   5.755   4.235
10828TIP3    H132425   7.798   5.808   4.277
10828TIP3    H232426   7.650   5.774   4.286
10829TIP3   OH232427   1.637   1.630   2.340
10829TIP3    H132428   1.547   1.614   2.369
10829TIP3    H232429   1.634   1.717   2.300
10830TIP3   OH232430   5.967   7.756   3.046
10830TIP3    H132431   5.909   7.692   3.087
10830TIP3    H232432   5.997   7.812   3.118
10831TIP3   OH232433   3.453   0.086   1.395
10831TIP3    H132434   3.368   0.042   1.396
10831TIP3    H232435   3.483   0.080   1.486
10832TIP3   OH232436   2.598   4.247   6.697
10832TIP3    H132437   2.620   4.276   6.608
10832TIP3    H232438   2.512   4.206   6.688
10833TIP3   OH232439   7.925   1.390   2.522
10833TIP3    H132440   7.838   1.352   2.538
10833TIP3    H232441   7.913   1.484   2.535
10834TIP3   OH232442   8.217   0.938   3.983
10834TIP3    H132443   8.285   0.913   4.046
10834TIP3    H232444   8.142   0.963   4.037
10835TIP3   OH232445   3.247   7.601   5.704
10835TIP3    H132446   3.256   7.510   5.678
10835TIP3    H232447   3.295   7.650   5.637
10836TIP3   OH232448   3.233   4.640   3.882
10836TIP3    H132449   3.210   4.605   3.796
10836TIP3    H232450   3.228   4.735   3.871
10837TIP3   OH232451   5.790   3.238   2.060
10837TIP3    H132452   5.808   3.164   2.118
10837TIP3    H232453   5.841   3.310   2.097
10838TIP3   OH232454   0.817   2.494   2.036
10838TIP3    H132455   0.912   2.484   2.045
10838TIP3    H232456   0.803   2.509   1.943
10839TIP3   OH232457   6.509   3.154   5.563
10839TIP3    H132458   6.484   3.189   5.477
10839TIP3    H232459   6.426   3.133   5.605
10840TIP3   OH232460   2.043   3.344   2.918
10840TIP3    H132461   2.029   3.258   2.877
10840TIP3    H232462   2.135   3.363   2.903
10841TIP3   OH232463   1.160   1.794   3.923
10841TIP3    H132464   1.165   1.884   3.956
10841TIP3    H232465   1.171   1.804   3.828
10842TIP3   OH232466   4.427   0.546   3.520
10842TIP3    H132467   4.499   0.609   3.525
10842TIP3    H232468   4.349   0.597   3.541
10843TIP3   OH232469   7.101   4.515   5.382
10843TIP3    H132470   7.065   4.429   5.403
10843TIP3    H232471   7.196   4.504   5.392
10844TIP3   OH232472   3.885   0.058   4.861
10844TIP3    H132473   3.823   0.117   4.905
10844TIP3    H232474   3.919   0.109   4.788
10845TIP3   OH232475   6.730   1.302   0.227
10845TIP3    H132476   6.825   1.293   0.239
10845TIP3    H232477   6.692   1.245   0.294
10846TIP3   OH232478   2.220   7.111   0.463
10846TIP3    H132479   2.272   7.096   0.384
10846TIP3    H232480   2.156   7.177   0.437
10847TIP3   OH232481   0.502   3.788   0.490
10847TIP3    H132482   0.451   3.736   0.553
10847TIP3    H232483   0.587   3.798   0.531
10848TIP3   OH232484   1.424   6.211   1.482
10848TIP3    H132485   1.400   6.157   1.557
10848TIP3    H232486   1.468   6.151   1.422
10849TIP3   OH232487   8.221   0.038   5.205
10849TIP3    H132488   8.286   0.091   5.158
10849TIP3    H232489   8.185  -0.021   5.139
10850TIP3   OH232490   6.222   7.637   2.606
10850TIP3    H132491   6.239   7.730   2.617
10850TIP3    H232492   6.303   7.594   2.633
10851TIP3   OH232493   5.986   3.278   3.247
10851TIP3    H132494   6.044   3.339   3.200
10851TIP3    H232495   5.980   3.314   3.336
10852TIP3   OH232496   3.414   6.233   0.641
10852TIP3    H132497   3.478   6.283   0.692
10852TIP3    H232498   3.462   6.155   0.612
10853TIP3   OH232499   5.401   0.175   1.910
10853TIP3    H132500   5.384   0.174   2.004
10853TIP3    H232501   5.325   0.218   1.872
10854TIP3   OH232502   7.219   4.785   3.830
10854TIP3    H132503   7.213   4.842   3.906
10854TIP3    H232504   7.128   4.770   3.804
10855TIP3   OH232505   3.082   5.500   5.235
10855TIP3    H132506   3.017   5.445   5.278
10855TIP3    H232507   3.043   5.588   5.236
10856TIP3   OH232508   2.231   6.425   4.350
10856TIP3    H132509   2.222   6.519   4.336
10856TIP3    H232510   2.191   6.409   4.435
10857TIP3   OH232511   5.189   4.948   5.529
10857TIP3    H132512   5.271   4.988   5.558
10857TIP3    H232513   5.214   4.861   5.499
10858TIP3   OH232514   4.708   6.812   2.444
10858TIP3    H132515   4.728   6.775   2.359
10858TIP3    H232516   4.715   6.907   2.432
10859TIP3   OH232517   4.316   5.808   4.989
10859TIP3    H132518   4.322   5.903   4.985
10859TIP3    H232519   4.403   5.779   5.018
10860TIP3   OH232520   6.303   0.937   6.184
10860TIP3    H132521   6.388   0.933   6.229
10860TIP3    H232522   6.285   1.030   6.175
10861TIP3   OH232523   3.171   5.465   6.633
10861TIP3    H132524   3.166   5.516   6.714
10861TIP3    H232525   3.240   5.508   6.582
10862TIP3   OH232526   5.351   6.149   5.493
10862TIP3    H132527   5.280   6.097   5.455
10862TIP3    H232528   5.347   6.233   5.448
10863TIP3   OH232529   3.129   2.201   2.902
10863TIP3    H132530   3.206   2.190   2.958
10863TIP3    H232531   3.162   2.245   2.824
10864TIP3   OH232532   1.922   2.174   0.643
10864TIP3    H132533   1.926   2.164   0.548
10864TIP3    H232534   1.992   2.118   0.676
10865TIP3   OH232535   8.102   4.090   6.096
10865TIP3    H132536   8.180   4.141   6.118
10865TIP3    H232537   8.032   4.129   6.148
10866TIP3   OH232538   1.971   4.135   6.251
10866TIP3    H132539   1.995   4.045   6.231
10866TIP3    H232540   2.034   4.189   6.204
10867TIP3   OH232541   7.756   7.060   1.091
10867TIP3    H132542   7.834   7.048   1.036
10867TIP3    H232543   7.716   7.141   1.058
10868TIP3   OH232544   5.075   7.890   4.743
10868TIP3    H132545   4.994   7.849   4.714
10868TIP3    H232546   5.065   7.982   4.720
10869TIP3   OH232547   3.072   2.051   6.256
10869TIP3    H132548   3.059   2.065   6.350
10869TIP3    H232549   3.103   1.961   6.249
10870TIP3   OH232550   4.035   4.576   5.790
10870TIP3    H132551   4.065   4.543   5.705
10870TIP3    H232552   4.066   4.511   5.853
10871TIP3   OH232553   7.750   0.306   2.482
10871TIP3    H132554   7.808   0.324   2.556
10871TIP3    H232555   7.662   0.306   2.520
10872TIP3   OH232556   2.567   4.891   5.680
10872TIP3    H132557   2.643   4.894   5.622
10872TIP3    H232558   2.557   4.981   5.711
10873TIP3   OH232559   4.635   6.251   5.664
10873TIP3    H132560   4.612   6.340   5.639
10873TIP3    H232561   4.554   6.202   5.655
10874TIP3   OH232562   5.237   5.419   6.699
10874TIP3    H132563   5.321   5.374   6.690
10874TIP3    H232564   5.171   5.350   6.692
10875TIP3   OH232565   3.746   2.295   5.473
10875TIP3    H132566   3.830   2.267   5.438
10875TIP3    H232567   3.757   2.291   5.568
10876TIP3   OH232568   3.325   0.382   1.500
10876TIP3    H132569   3.420   0.371   1.499
10876TIP3    H232570   3.297   0.336   1.580
10877TIP3   OH232571   2.141   0.292   3.369
10877TIP3    H132572   2.201   0.246   3.310
10877TIP3    H232573   2.162   0.384   3.358
10878TIP3   OH232574   7.255   3.632   0.942
10878TIP3    H132575   7.214   3.590   0.867
10878TIP3    H232576   7.261   3.725   0.917
10879TIP3   OH232577   1.147   4.109   4.025
10879TIP3    H132578   1.075   4.154   4.068
10879TIP3    H232579   1.174   4.167   3.954
10880TIP3   OH232580   0.834   4.614   6.738
10880TIP3    H132581   0.881   4.571   6.810
10880TIP3    H232582   0.862   4.706   6.743
10881TIP3   OH232583   2.996   0.380   0.004
10881TIP3    H132584   2.922   0.436   0.028
10881TIP3    H232585   2.977   0.296   0.046
10882TIP3   OH232586   2.194   0.694   6.347
10882TIP3    H132587   2.258   0.764   6.362
10882TIP3    H232588   2.110   0.739   6.342
10883TIP3   OH232589   7.846   4.803   5.124
10883TIP3    H132590   7.767   4.816   5.177
10883TIP3    H232591   7.914   4.852   5.170
10884TIP3   OH232592   6.652   6.765   5.649
10884TIP3    H132593   6.583   6.822   5.686
10884TIP3    H232594   6.687   6.719   5.725
10885TIP3   OH232595   2.089   0.194   0.738
10885TIP3    H132596   2.064   0.179   0.647
10885TIP3    H232597   2.046   0.276   0.762
10886TIP3   OH232598   3.511   7.741   0.670
10886TIP3    H132599   3.510   7.681   0.595
10886TIP3    H232600   3.596   7.728   0.711
10887TIP3   OH232601   7.480   3.184   4.808
10887TIP3    H132602   7.387   3.209   4.812
10887TIP3    H232603   7.501   3.184   4.715
10888TIP3   OH232604   5.011   2.777   4.566
10888TIP3    H132605   5.043   2.707   4.624
10888TIP3    H232606   4.988   2.732   4.485
10889TIP3   OH232607   4.477   5.630   4.224
10889TIP3    H132608   4.417   5.698   4.254
10889TIP3    H232609   4.459   5.621   4.131
10890TIP3   OH232610   6.473   3.194   1.743
10890TIP3    H132611   6.484   3.106   1.779
10890TIP3    H232612   6.410   3.236   1.801
10891TIP3   OH232613   0.924   6.963   3.976
10891TIP3    H132614   0.914   7.022   4.051
10891TIP3    H232615   0.990   7.006   3.921
10892TIP3   OH232616   6.410   6.182   6.293
10892TIP3    H132617   6.351   6.251   6.263
10892TIP3    H232618   6.352   6.114   6.329
10893TIP3   OH232619   5.524   3.001   6.565
10893TIP3    H132620   5.515   2.927   6.506
10893TIP3    H232621   5.446   3.054   6.548
10894TIP3   OH232622   2.270   2.343   3.809
10894TIP3    H132623   2.296   2.410   3.872
10894TIP3    H232624   2.352   2.314   3.770
10895TIP3   OH232625   7.811   7.145   2.884
10895TIP3    H132626   7.771   7.059   2.896
10895TIP3    H232627   7.761   7.203   2.942
10896TIP3   OH232628   2.551   2.192   1.460
10896TIP3    H132629   2.643   2.215   1.454
10896TIP3    H232630   2.505   2.276   1.457
10897TIP3   OH232631   5.875   4.126   2.244
10897TIP3    H132632   5.917   4.060   2.299
10897TIP3    H232633   5.881   4.207   2.295
10898TIP3   OH232634   6.389   1.937   3.339
10898TIP3    H132635   6.428   1.955   3.253
10898TIP3    H232636   6.460   1.895   3.388
10899TIP3   OH232637   0.444   4.800   4.774
10899TIP3    H132638   0.434   4.816   4.680
10899TIP3    H232639   0.437   4.887   4.814
10900TIP3   OH232640   4.268   5.217   1.346
10900TIP3    H132641   4.204   5.146   1.345
10900TIP3    H232642   4.222   5.292   1.310
10901TIP3   OH232643   4.766   3.050   0.500
10901TIP3    H132644   4.825   3.012   0.565
10901TIP3    H232645   4.816   3.050   0.419
10902TIP3   OH232646   6.541   2.353   5.517
10902TIP3    H132647   6.605   2.366   5.587
10902TIP3    H232648   6.522   2.441   5.486
10903TIP3   OH232649   3.793   1.800   2.035
10903TIP3    H132650   3.878   1.775   1.998
10903TIP3    H232651   3.772   1.729   2.097
10904TIP3   OH232652   8.101   5.744   5.645
10904TIP3    H132653   8.070   5.792   5.568
10904TIP3    H232654   8.028   5.686   5.667
10905TIP3   OH232655   3.761   5.762   1.441
10905TIP3    H132656   3.691   5.722   1.388
10905TIP3    H232657   3.757   5.715   1.524
10906TIP3   OH232658   0.530   1.582   6.349
10906TIP3    H132659   0.466   1.548   6.412
10906TIP3    H232660   0.502   1.545   6.265
10907TIP3   OH232661   7.891   5.297   5.819
10907TIP3    H132662   7.903   5.282   5.913
10907TIP3    H232663   7.907   5.211   5.780
10908TIP3   OH232664   3.982   5.372   0.645
10908TIP3    H132665   4.057   5.408   0.598
10908TIP3    H232666   3.986   5.278   0.629
10909TIP3   OH232667   2.632   7.688   6.694
10909TIP3    H132668   2.658   7.775   6.726
10909TIP3    H232669   2.676   7.680   6.609
10910TIP3   OH232670   7.208   3.411   0.049
10910TIP3    H132671   7.178   3.319   0.047
10910TIP3    H232672   7.130   3.461   0.027
10911TIP3   OH232673   2.038   3.900   3.655
10911TIP3    H132674   1.993   3.882   3.738
10911TIP3    H232675   2.108   3.961   3.679
10912TIP3   OH232676   7.200   6.983   5.688
10912TIP3    H132677   7.202   7.049   5.619
10912TIP3    H232678   7.259   7.016   5.756
10913TIP3   OH232679   0.887   7.143   4.155
10913TIP3    H132680   0.860   7.129   4.245
10913TIP3    H232681   0.871   7.236   4.139
10914TIP3   OH232682   0.943   7.869   3.800
10914TIP3    H132683   1.031   7.832   3.790
10914TIP3    H232684   0.959   7.962   3.817
10915TIP3   OH232685   0.304   6.897   2.188
10915TIP3    H132686   0.215   6.863   2.179
10915TIP3    H232687   0.335   6.861   2.270
10916TIP3   OH232688   3.026   3.499   5.407
10916TIP3    H132689   3.067   3.563   5.465
10916TIP3    H232690   3.083   3.422   5.412
10917TIP3   OH232691   5.501   2.540   0.087
10917TIP3    H132692   5.513   2.531   0.181
10917TIP3    H232693   5.408   2.520   0.073
10918TIP3   OH232694   8.057   7.669   4.448
10918TIP3    H132695   8.047   7.747   4.503
10918TIP3    H232696   8.140   7.681   4.403
10919TIP3   OH232697   4.051   5.254   5.957
10919TIP3    H132698   4.069   5.290   6.044
10919TIP3    H232699   4.023   5.164   5.974
10920TIP3   OH232700   0.714   2.904   2.758
10920TIP3    H132701   0.655   2.840   2.718
10920TIP3    H232702   0.757   2.947   2.685
10921TIP3   OH232703   6.018   5.943   6.211
10921TIP3    H132704   6.011   6.008   6.141
10921TIP3    H232705   5.927   5.923   6.234
10922TIP3   OH232706   3.936   4.390   6.194
10922TIP3    H132707   3.939   4.393   6.290
10922TIP3    H232708   3.853   4.432   6.171
10923TIP3   OH232709   4.478   1.973   5.745
10923TIP3    H132710   4.431   2.023   5.678
10923TIP3    H232711   4.454   2.015   5.828
10924TIP3   OH232712   4.445   6.062   4.244
10924TIP3    H132713   4.426   5.992   4.305
10924TIP3    H232714   4.398   6.038   4.164
10925TIP3   OH232715   4.156   6.490   5.562
10925TIP3    H132716   4.219   6.424   5.532
10925TIP3    H232717   4.079   6.439   5.588
10926TIP3   OH232718   5.487   0.088   3.798
10926TIP3    H132719   5.393   0.102   3.802
10926TIP3    H232720   5.520   0.115   3.883
10927TIP3   OH232721   0.693   3.820   6.748
10927TIP3    H132722   0.641   3.792   6.824
10927TIP3    H232723   0.770   3.863   6.786
10928TIP3   OH232724   4.892   1.952   5.344
10928TIP3    H132725   4.974   1.954   5.393
10928TIP3    H232726   4.919   1.955   5.253
10929TIP3   OH232727   7.507   1.523   5.342
10929TIP3    H132728   7.419   1.487   5.350
10929TIP3    H232729   7.495   1.618   5.344
10930TIP3   OH232730   2.824   5.887   0.314
10930TIP3    H132731   2.890   5.837   0.266
10930TIP3    H232732   2.868   5.970   0.335
10931TIP3   OH232733   3.842   0.659   1.993
10931TIP3    H132734   3.765   0.712   1.975
10931TIP3    H232735   3.916   0.720   1.983
10932TIP3   OH232736   6.662   7.339   2.594
10932TIP3    H132737   6.670   7.348   2.689
10932TIP3    H232738   6.646   7.245   2.581
10933TIP3   OH232739   7.030   6.231   1.723
10933TIP3    H132740   7.108   6.185   1.694
10933TIP3    H232741   7.063   6.300   1.780
10934TIP3   OH232742   2.811   2.434   6.450
10934TIP3    H132743   2.862   2.485   6.512
10934TIP3    H232744   2.820   2.481   6.367
10935TIP3   OH232745   0.159   6.389   0.133
10935TIP3    H132746   0.230   6.390   0.068
10935TIP3    H232747   0.156   6.299   0.164
10936TIP3   OH232748   6.009   3.157   2.979
10936TIP3    H132749   5.986   3.171   3.071
10936TIP3    H232750   6.084   3.215   2.964
10937TIP3   OH232751   8.109   4.974   3.901
10937TIP3    H132752   8.152   4.898   3.940
10937TIP3    H232753   8.062   4.940   3.826
10938TIP3   OH232754   7.365   1.768   2.590
10938TIP3    H132755   7.459   1.776   2.573
10938TIP3    H232756   7.335   1.858   2.601
10939TIP3   OH232757   5.977   6.445   0.748
10939TIP3    H132758   6.027   6.366   0.727
10939TIP3    H232759   5.897   6.412   0.789
10940TIP3   OH232760   4.048   5.109   0.613
10940TIP3    H132761   4.001   5.071   0.687
10940TIP3    H232762   4.135   5.068   0.617
10941TIP3   OH232763   6.154   7.544   4.283
10941TIP3    H132764   6.204   7.625   4.297
10941TIP3    H232765   6.199   7.501   4.210
10942TIP3   OH232766   7.092   5.453   0.680
10942TIP3    H132767   7.064   5.545   0.675
10942TIP3    H232768   7.107   5.427   0.589
10943TIP3   OH232769   2.318   2.534   4.006
10943TIP3    H132770   2.405   2.524   3.967
10943TIP3    H232771   2.292   2.623   3.982
10944TIP3   OH232772   8.057   6.534   0.708
10944TIP3    H132773   8.073   6.488   0.626
10944TIP3    H232774   7.985   6.594   0.688
10945TIP3   OH232775   0.570   2.880   3.035
10945TIP3    H132776   0.508   2.836   3.093
10945TIP3    H232777   0.603   2.953   3.087
10946TIP3   OH232778   5.309   2.166   3.983
10946TIP3    H132779   5.254   2.210   3.919
10946TIP3    H232780   5.247   2.120   4.040
10947TIP3   OH232781   8.039   6.108   3.607
10947TIP3    H132782   7.954   6.135   3.570
10947TIP3    H232783   8.058   6.175   3.672
10948TIP3   OH232784   3.327   0.178   3.037
10948TIP3    H132785   3.346   0.238   3.109
10948TIP3    H232786   3.253   0.125   3.068
10949TIP3   OH232787   6.357   7.372   5.442
10949TIP3    H132788   6.350   7.411   5.528
10949TIP3    H232789   6.365   7.447   5.382
10950TIP3   OH232790   7.397   6.511   3.889
10950TIP3    H132791   7.316   6.471   3.918
10950TIP3    H232792   7.466   6.462   3.935
10951TIP3   OH232793   5.969   0.153   3.166
10951TIP3    H132794   6.042   0.185   3.113
10951TIP3    H232795   5.910   0.228   3.173
10952TIP3   OH232796   6.564   3.332   3.635
10952TIP3    H132797   6.611   3.363   3.558
10952TIP3    H232798   6.605   3.377   3.709
10953TIP3   OH232799   2.461   1.425   1.210
10953TIP3    H132800   2.435   1.510   1.177
10953TIP3    H232801   2.379   1.375   1.216
10954TIP3   OH232802   0.134   5.554   2.366
10954TIP3    H132803   0.147   5.649   2.365
10954TIP3    H232804   0.039   5.543   2.375
10955TIP3   OH232805   5.837   3.595   3.245
10955TIP3    H132806   5.811   3.511   3.208
10955TIP3    H232807   5.932   3.599   3.233
10956TIP3   OH232808   3.201   3.989   0.318
10956TIP3    H132809   3.213   4.018   0.228
10956TIP3    H232810   3.130   3.924   0.313
10957TIP3   OH232811   4.572   1.229   5.303
10957TIP3    H132812   4.643   1.173   5.272
10957TIP3    H232813   4.600   1.256   5.390
10958TIP3   OH232814   5.912   0.478   6.408
10958TIP3    H132815   5.825   0.488   6.448
10958TIP3    H232816   5.897   0.487   6.314
10959TIP3   OH232817   6.750   6.091   0.809
10959TIP3    H132818   6.679   6.141   0.851
10959TIP3    H232819   6.757   6.012   0.863
10960TIP3   OH232820   7.980   0.089   6.627
10960TIP3    H132821   7.890   0.109   6.602
10960TIP3    H232822   7.976   0.003   6.669
10961TIP3   OH232823   2.893   3.680   0.635
10961TIP3    H132824   2.918   3.589   0.652
10961TIP3    H232825   2.972   3.731   0.654
10962TIP3   OH232826   0.743   7.552   0.699
10962TIP3    H132827   0.727   7.474   0.645
10962TIP3    H232828   0.740   7.625   0.637
10963TIP3   OH232829   7.313   3.089   0.158
10963TIP3    H132830   7.379   3.080   0.226
10963TIP3    H232831   7.261   3.009   0.165
10964TIP3   OH232832   7.732   3.144   3.442
10964TIP3    H132833   7.681   3.105   3.371
10964TIP3    H232834   7.675   3.212   3.478
10965TIP3   OH232835   0.755   2.580   3.452
10965TIP3    H132836   0.800   2.551   3.372
10965TIP3    H232837   0.823   2.624   3.503
10966TIP3   OH232838   3.593   4.246   3.170
10966TIP3    H132839   3.610   4.170   3.225
10966TIP3    H232840   3.670   4.252   3.113
10967TIP3   OH232841   7.466   6.719   3.093
10967TIP3    H132842   7.461   6.789   3.158
10967TIP3    H232843   7.560   6.703   3.083
10968TIP3   OH232844   6.708   6.213   5.875
10968TIP3    H132845   6.767   6.177   5.942
10968TIP3    H232846   6.733   6.306   5.869
10969TIP3   OH232847   5.075   4.645   1.465
10969TIP3    H132848   5.060   4.582   1.535
10969TIP3    H232849   5.153   4.612   1.419
10970TIP3   OH232850   3.979   2.428   0.103
10970TIP3    H132851   3.978   2.428   0.008
10970TIP3    H232852   4.042   2.360   0.126
10971TIP3   OH232853   3.607   1.630   1.849
10971TIP3    H132854   3.697   1.603   1.836
10971TIP3    H232855   3.579   1.662   1.763
10972TIP3   OH232856   7.132   6.628   3.993
10972TIP3    H132857   7.097   6.666   3.912
10972TIP3    H232858   7.189   6.696   4.029
10973TIP3   OH232859   4.608   6.079   2.995
10973TIP3    H132860   4.631   6.131   2.918
10973TIP3    H232861   4.637   5.990   2.974
10974TIP3   OH232862   6.813   6.891   5.454
10974TIP3    H132863   6.796   6.981   5.482
10974TIP3    H232864   6.789   6.837   5.530
10975TIP3   OH232865   5.742   7.194   4.130
10975TIP3    H132866   5.667   7.161   4.179
10975TIP3    H232867   5.818   7.164   4.180
10976TIP3   OH232868   6.426   3.710   2.441
10976TIP3    H132869   6.409   3.616   2.445
10976TIP3    H232870   6.509   3.718   2.394
10977TIP3   OH232871   4.068   1.811   2.862
10977TIP3    H132872   4.114   1.884   2.904
10977TIP3    H232873   4.109   1.733   2.899
10978TIP3   OH232874   7.115   3.154   2.402
10978TIP3    H132875   7.130   3.200   2.319
10978TIP3    H232876   7.174   3.078   2.398
10979TIP3   OH232877   0.921   7.754   2.824
10979TIP3    H132878   0.890   7.844   2.815
10979TIP3    H232879   0.994   7.747   2.763
10980TIP3   OH232880   7.942   0.653   4.114
10980TIP3    H132881   7.940   0.570   4.067
10980TIP3    H232882   7.939   0.629   4.206
10981TIP3   OH232883   1.728   4.670   3.402
10981TIP3    H132884   1.786   4.605   3.361
10981TIP3    H232885   1.641   4.629   3.401
10982TIP3   OH232886   5.013   7.830   2.781
10982TIP3    H132887   5.076   7.902   2.778
10982TIP3    H232888   5.064   7.753   2.754
10983TIP3   OH232889   7.328   7.759   3.440
10983TIP3    H132890   7.330   7.675   3.395
10983TIP3    H232891   7.240   7.792   3.423
10984TIP3   OH232892   3.756   6.442   2.247
10984TIP3    H132893   3.724   6.516   2.196
10984TIP3    H232894   3.807   6.482   2.318
10985TIP3   OH232895   7.066  -0.023   4.224
10985TIP3    H132896   7.021  -0.029   4.140
10985TIP3    H232897   7.045   0.065   4.256
10986TIP3   OH232898   1.789   4.622   2.794
10986TIP3    H132899   1.782   4.714   2.767
10986TIP3    H232900   1.827   4.578   2.718
10987TIP3   OH232901   3.462   6.138   1.555
10987TIP3    H132902   3.546   6.092   1.554
10987TIP3    H232903   3.413   6.099   1.627
10988TIP3   OH232904   3.871   6.477   4.911
10988TIP3    H132905   3.914   6.556   4.880
10988TIP3    H232906   3.943   6.416   4.929
10989TIP3   OH232907   3.901   6.461   4.169
10989TIP3    H132908   3.961   6.414   4.226
10989TIP3    H232909   3.832   6.398   4.148
10990TIP3   OH232910   1.119   3.200   5.563
10990TIP3    H132911   1.158   3.267   5.507
10990TIP3    H232912   1.039   3.241   5.597
10991TIP3   OH232913   1.679   5.567   4.408
10991TIP3    H132914   1.617   5.551   4.479
10991TIP3    H232915   1.700   5.660   4.415
10992TIP3   OH232916   7.730   2.187   5.495
10992TIP3    H132917   7.726   2.199   5.401
10992TIP3    H232918   7.811   2.232   5.521
10993TIP3   OH232919   3.009   7.728   4.013
10993TIP3    H132920   3.039   7.687   3.932
10993TIP3    H232921   2.918   7.752   3.996
10994TIP3   OH232922   2.028   1.221   5.981
10994TIP3    H132923   2.053   1.195   5.892
10994TIP3    H232924   1.955   1.282   5.968
10995TIP3   OH232925   7.732   4.885   4.136
10995TIP3    H132926   7.741   4.840   4.052
10995TIP3    H232927   7.818   4.877   4.177
10996TIP3   OH232928   2.240   5.459   6.080
10996TIP3    H132929   2.278   5.505   6.154
10996TIP3    H232930   2.199   5.381   6.119
10997TIP3   OH232931   6.636   3.131   2.474
10997TIP3    H132932   6.613   3.045   2.438
10997TIP3    H232933   6.701   3.166   2.413
10998TIP3   OH232934   4.647   4.711   1.130
10998TIP3    H132935   4.570   4.660   1.154
10998TIP3    H232936   4.629   4.742   1.041
10999TIP3   OH232937   4.613   3.807   2.192
10999TIP3    H132938   4.546   3.743   2.214
10999TIP3    H232939   4.655   3.828   2.276
11000TIP3   OH232940   2.804   4.663   3.902
11000TIP3    H132941   2.735   4.614   3.859
11000TIP3    H232942   2.852   4.704   3.830
11001TIP3   OH232943   0.874   2.585   2.687
11001TIP3    H132944   0.847   2.632   2.608
11001TIP3    H232945   0.936   2.644   2.730
11002TIP3   OH232946   1.683   0.337   0.023
11002TIP3    H132947   1.675   0.268   0.090
11002TIP3    H232948   1.751   0.305  -0.036
11003TIP3   OH232949   1.601   7.322   1.992
11003TIP3    H132950   1.665   7.349   2.057
11003TIP3    H232951   1.520   7.308   2.041
11004TIP3   OH232952   7.569   6.444   1.875
11004TIP3    H132953   7.636   6.381   1.846
11004TIP3    H232954   7.613   6.529   1.871
11005TIP3   OH232955   5.573   0.718   3.728
11005TIP3    H132956   5.498   0.747   3.779
11005TIP3    H232957   5.536   0.686   3.646
11006TIP3   OH232958   3.448   0.851   6.046
11006TIP3    H132959   3.380   0.916   6.027
11006TIP3    H232960   3.520   0.902   6.082
11007TIP3   OH232961   7.459   7.221   1.208
11007TIP3    H132962   7.477   7.162   1.134
11007TIP3    H232963   7.505   7.302   1.185
11008TIP3   OH232964   1.457   1.475   1.881
11008TIP3    H132965   1.435   1.540   1.815
11008TIP3    H232966   1.375   1.428   1.897
11009TIP3   OH232967   0.663   0.011   2.155
11009TIP3    H132968   0.736   0.038   2.211
11009TIP3    H232969   0.604   0.086   2.156
11010TIP3   OH232970   0.128   0.565   0.994
11010TIP3    H132971   0.052   0.538   0.943
11010TIP3    H232972   0.125   0.509   1.071
11011TIP3   OH232973   3.773   2.391   6.549
11011TIP3    H132974   3.775   2.408   6.643
11011TIP3    H232975   3.794   2.475   6.509
11012TIP3   OH232976   1.218   0.852   4.239
11012TIP3    H132977   1.187   0.933   4.198
11012TIP3    H232978   1.143   0.793   4.234
11013TIP3   OH232979   3.174   0.758   3.442
11013TIP3    H132980   3.184   0.848   3.410
11013TIP3    H232981   3.223   0.705   3.379
11014TIP3   OH232982   4.983   3.552   2.721
11014TIP3    H132983   5.026   3.502   2.790
11014TIP3    H232984   5.000   3.644   2.743
11015TIP3   OH232985   1.210   3.816   4.345
11015TIP3    H132986   1.143   3.807   4.413
11015TIP3    H232987   1.282   3.760   4.374
11016TIP3   OH232988   3.696   2.199   1.028
11016TIP3    H132989   3.670   2.291   1.028
11016TIP3    H232990   3.721   2.181   0.938
11017TIP3   OH232991   6.883   5.490   6.457
11017TIP3    H132992   6.874   5.570   6.508
11017TIP3    H232993   6.797   5.477   6.418
11018TIP3   OH232994   5.485   2.250   5.049
11018TIP3    H132995   5.565   2.261   5.100
11018TIP3    H232996   5.456   2.161   5.070
11019TIP3   OH232997   2.093   1.363   1.502
11019TIP3    H132998   2.024   1.304   1.532
11019TIP3    H232999   2.082   1.367   1.407
11020TIP3   OH233000   2.337   4.462   3.764
11020TIP3    H133001   2.352   4.556   3.755
11020TIP3    H233002   2.269   4.442   3.700
11021TIP3   OH233003   0.238   3.864   3.804
11021TIP3    H133004   0.146   3.887   3.792
11021TIP3    H233005   0.287   3.936   3.764
11022TIP3   OH233006   1.891   4.156   6.522
11022TIP3    H133007   1.936   4.153   6.437
11022TIP3    H233008   1.919   4.076   6.567
11023TIP3   OH233009   4.201   5.315   2.779
11023TIP3    H133010   4.259   5.376   2.734
11023TIP3    H233011   4.248   5.231   2.778
11024TIP3   OH233012   6.420   4.005   4.569
11024TIP3    H133013   6.512   3.980   4.582
11024TIP3    H233014   6.396   3.968   4.484
11025TIP3   OH233015   5.810   0.711   3.554
11025TIP3    H133016   5.813   0.717   3.650
11025TIP3    H233017   5.898   0.736   3.526
11026TIP3   OH233018   2.584   3.275   3.766
11026TIP3    H133019   2.586   3.274   3.670
11026TIP3    H233020   2.579   3.368   3.788
11027TIP3   OH233021   2.335   6.704   2.896
11027TIP3    H133022   2.410   6.692   2.838
11027TIP3    H233023   2.267   6.648   2.860
11028TIP3   OH233024   2.360   5.942   4.454
11028TIP3    H133025   2.346   6.034   4.433
11028TIP3    H233026   2.384   5.901   4.371
11029TIP3   OH233027   4.068   1.735   5.390
11029TIP3    H133028   4.042   1.703   5.303
11029TIP3    H233029   3.986   1.768   5.428
11030TIP3   OH233030   1.149   5.153   4.734
11030TIP3    H133031   1.182   5.150   4.644
11030TIP3    H233032   1.055   5.139   4.726
11031TIP3   OH233033   0.198   1.549   5.228
11031TIP3    H133034   0.236   1.461   5.236
11031TIP3    H233035   0.233   1.597   5.303
11032TIP3   OH233036   7.856   1.857   6.135
11032TIP3    H133037   7.892   1.911   6.206
11032TIP3    H233038   7.933   1.832   6.084
11033TIP3   OH233039   6.074   1.992   0.336
11033TIP3    H133040   6.030   2.029   0.413
11033TIP3    H233041   6.044   1.901   0.333
11034TIP3   OH233042   2.680   4.161   0.239
11034TIP3    H133043   2.602   4.178   0.291
11034TIP3    H233044   2.647   4.140   0.151
11035TIP3   OH233045   7.492   7.751   5.309
11035TIP3    H133046   7.462   7.685   5.245
11035TIP3    H233047   7.451   7.832   5.280
11036TIP3   OH233048   5.440   1.968   6.580
11036TIP3    H133049   5.391   1.898   6.537
11036TIP3    H233050   5.468   1.930   6.664
11037TIP3   OH233051   5.645   4.033   5.331
11037TIP3    H133052   5.576   4.089   5.367
11037TIP3    H233053   5.721   4.090   5.325
11038TIP3   OH233054   6.456   5.256   0.234
11038TIP3    H133055   6.544   5.291   0.219
11038TIP3    H233056   6.433   5.214   0.151
11039TIP3   OH233057   2.594   6.281   5.691
11039TIP3    H133058   2.565   6.269   5.781
11039TIP3    H233059   2.521   6.247   5.638
11040TIP3   OH233060   2.146   1.538   4.169
11040TIP3    H133061   2.157   1.623   4.126
11040TIP3    H233062   2.215   1.536   4.236
11041TIP3   OH233063   6.154   5.405   1.294
11041TIP3    H133064   6.170   5.393   1.387
11041TIP3    H233065   6.065   5.440   1.289
11042TIP3   OH233066   1.828   5.630   2.298
11042TIP3    H133067   1.757   5.654   2.358
11042TIP3    H233068   1.881   5.709   2.291
11043TIP3   OH233069   0.282   3.571   2.365
11043TIP3    H133070   0.233   3.624   2.302
11043TIP3    H233071   0.363   3.620   2.378
11044TIP3   OH233072   1.761   3.453   6.178
11044TIP3    H133073   1.740   3.545   6.163
11044TIP3    H233074   1.855   3.453   6.198
11045TIP3   OH233075   0.175   5.510   5.606
11045TIP3    H133076   0.088   5.540   5.632
11045TIP3    H233077   0.169   5.498   5.511
11046TIP3   OH233078   0.539   5.551   6.127
11046TIP3    H133079   0.514   5.642   6.114
11046TIP3    H233080   0.578   5.525   6.044
11047TIP3   OH233081   6.119   0.226   3.841
11047TIP3    H133082   6.161   0.311   3.857
11047TIP3    H233083   6.037   0.248   3.797
11048TIP3   OH233084   5.041   1.637   3.763
11048TIP3    H133085   5.055   1.723   3.724
11048TIP3    H233086   5.070   1.575   3.697
11049TIP3   OH233087   2.681   1.687   5.116
11049TIP3    H133088   2.730   1.765   5.092
11049TIP3    H233089   2.688   1.629   5.040
11050TIP3   OH233090   0.707   4.274   2.823
11050TIP3    H133091   0.721   4.258   2.916
11050TIP3    H233092   0.671   4.363   2.819
11051TIP3   OH233093   5.309   0.899   1.483
11051TIP3    H133094   5.346   0.844   1.414
11051TIP3    H233095   5.371   0.890   1.556
11052TIP3   OH233096   2.104   2.171   0.122
11052TIP3    H133097   2.072   2.216   0.200
11052TIP3    H233098   2.026   2.158   0.068
11053TIP3   OH233099   1.674   2.952   0.563
11053TIP3    H133100   1.724   2.990   0.635
11053TIP3    H233101   1.620   2.885   0.605
11054TIP3   OH233102   1.797   0.609   0.208
11054TIP3    H133103   1.792   0.682   0.270
11054TIP3    H233104   1.714   0.613   0.160
11055TIP3   OH233105   1.495   7.102   4.675
11055TIP3    H133106   1.456   7.188   4.662
11055TIP3    H233107   1.423   7.040   4.664
11056TIP3   OH233108   5.355   6.127   6.284
11056TIP3    H133109   5.290   6.190   6.314
11056TIP3    H233110   5.402   6.101   6.363
11057TIP3   OH233111   1.437   3.466   0.300
11057TIP3    H133112   1.354   3.431   0.332
11057TIP3    H233113   1.414   3.549   0.258
11058TIP3   OH233114   2.950   3.523   5.965
11058TIP3    H133115   2.965   3.470   5.886
11058TIP3    H233116   2.873   3.576   5.944
11059TIP3   OH233117   4.494   0.904   5.615
11059TIP3    H133118   4.532   0.830   5.664
11059TIP3    H233119   4.424   0.865   5.563
11060TIP3   OH233120   4.149   7.247   5.551
11060TIP3    H133121   4.196   7.164   5.545
11060TIP3    H233122   4.057   7.222   5.560
11061TIP3   OH233123   5.020   3.366   4.473
11061TIP3    H133124   5.082   3.413   4.529
11061TIP3    H233125   4.960   3.323   4.535
11062TIP3   OH233126   5.624   1.939   3.943
11062TIP3    H133127   5.533   1.927   3.919
11062TIP3    H233128   5.673   1.885   3.880
11063TIP3   OH233129   5.845   4.724   6.371
11063TIP3    H133130   5.928   4.697   6.410
11063TIP3    H233131   5.833   4.666   6.296
11064TIP3   OH233132   7.258   4.904   0.389
11064TIP3    H133133   7.193   4.939   0.328
11064TIP3    H233134   7.339   4.948   0.366
11065TIP3   OH233135   4.510   6.369   1.533
11065TIP3    H133136   4.448   6.440   1.550
11065TIP3    H233137   4.590   6.413   1.504
11066TIP3   OH233138   4.076   3.515   2.624
11066TIP3    H133139   4.154   3.497   2.571
11066TIP3    H233140   4.060   3.608   2.612
11067TIP3   OH233141   3.231   5.300   6.367
11067TIP3    H133142   3.309   5.246   6.357
11067TIP3    H233143   3.265   5.385   6.397
11068TIP3   OH233144   1.173   6.390   0.805
11068TIP3    H133145   1.243   6.379   0.741
11068TIP3    H233146   1.100   6.339   0.770
11069TIP3   OH233147   7.960   2.532   1.075
11069TIP3    H133148   8.005   2.449   1.057
11069TIP3    H233149   7.931   2.524   1.166
11070TIP3   OH233150   4.894   7.431   1.192
11070TIP3    H133151   4.810   7.413   1.234
11070TIP3    H233152   4.908   7.525   1.207
11071TIP3   OH233153   3.331   5.629   4.260
11071TIP3    H133154   3.242   5.627   4.295
11071TIP3    H233155   3.351   5.722   4.252
11072TIP3   OH233156   2.979   5.840   5.563
11072TIP3    H133157   2.895   5.798   5.582
11072TIP3    H233158   3.025   5.779   5.505
11073TIP3   OH233159   3.117   6.204   2.460
11073TIP3    H133160   3.180   6.131   2.456
11073TIP3    H233161   3.149   6.266   2.395
11074TIP3   OH233162   7.180   3.462   0.751
11074TIP3    H133163   7.253   3.401   0.759
11074TIP3    H233164   7.110   3.422   0.803
11075TIP3   OH233165   7.105   3.927   0.513
11075TIP3    H133166   7.194   3.909   0.482
11075TIP3    H233167   7.075   3.843   0.548
11076TIP3   OH233168   2.344   0.190   0.869
11076TIP3    H133169   2.284   0.211   0.798
11076TIP3    H233170   2.428   0.175   0.825
11077TIP3   OH233171   2.108   1.334   4.001
11077TIP3    H133172   2.111   1.398   4.072
11077TIP3    H233173   2.157   1.259   4.033
11078TIP3   OH233174   4.714   3.098   4.367
11078TIP3    H133175   4.732   3.184   4.328
11078TIP3    H233176   4.780   3.040   4.329
11079TIP3   OH233177   4.027   1.409   6.801
11079TIP3    H133178   3.935   1.417   6.824
11079TIP3    H233179   4.030   1.340   6.735
11080TIP3   OH233180   0.421   5.794   4.672
11080TIP3    H133181   0.475   5.726   4.631
11080TIP3    H233182   0.369   5.748   4.737
11081TIP3   OH233183   5.520   1.885   1.678
11081TIP3    H133184   5.522   1.798   1.718
11081TIP3    H233185   5.600   1.888   1.625
11082TIP3   OH233186   7.480   5.298   0.265
11082TIP3    H133187   7.529   5.359   0.210
11082TIP3    H233188   7.388   5.315   0.244
11083TIP3   OH233189   2.978   6.741   0.059
11083TIP3    H133190   2.998   6.805   0.127
11083TIP3    H233191   2.912   6.684   0.099
11084TIP3   OH233192   0.849   4.321   6.423
11084TIP3    H133193   0.906   4.305   6.498
11084TIP3    H233194   0.796   4.396   6.448
11085TIP3   OH233195   5.395   6.537   4.078
11085TIP3    H133196   5.449   6.616   4.083
11085TIP3    H233197   5.306   6.567   4.096
11086TIP3   OH233198   0.874   2.917   2.979
11086TIP3    H133199   0.794   2.922   2.926
11086TIP3    H233200   0.874   2.998   3.030
11087TIP3   OH233201   4.241   7.528   3.644
11087TIP3    H133202   4.333   7.554   3.641
11087TIP3    H233203   4.205   7.559   3.561
11088TIP3   OH233204   5.087   4.163   3.651
11088TIP3    H133205   5.055   4.203   3.731
11088TIP3    H233206   5.135   4.234   3.606
11089TIP3   OH233207   6.460   6.480   3.473
11089TIP3    H133208   6.523   6.429   3.421
11089TIP3    H233209   6.468   6.445   3.561
11090TIP3   OH233210   0.487   0.633   4.202
11090TIP3    H133211   0.474   0.642   4.296
11090TIP3    H233212   0.502   0.540   4.188
11091TIP3   OH233213   3.154   0.445   3.798
11091TIP3    H133214   3.231   0.493   3.766
11091TIP3    H233215   3.094   0.444   3.723
11092TIP3   OH233216   1.695   7.159   4.063
11092TIP3    H133217   1.616   7.166   4.118
11092TIP3    H233218   1.767   7.154   4.126
11093TIP3   OH233219   6.321   1.193   0.534
11093TIP3    H133220   6.370   1.273   0.556
11093TIP3    H233221   6.232   1.211   0.563
11094TIP3   OH233222   0.779   0.188   6.100
11094TIP3    H133223   0.764   0.220   6.189
11094TIP3    H233224   0.868   0.217   6.079
11095TIP3   OH233225   5.056   6.333   2.268
11095TIP3    H133226   4.982   6.392   2.285
11095TIP3    H233227   5.030   6.251   2.308
11096TIP3   OH233228   6.559   6.058   5.301
11096TIP3    H133229   6.599   5.971   5.300
11096TIP3    H233230   6.579   6.092   5.388
11097TIP3   OH233231   3.543   0.083   4.600
11097TIP3    H133232   3.572   0.072   4.510
11097TIP3    H233233   3.606   0.144   4.638
11098TIP3   OH233234   3.256   4.318   4.932
11098TIP3    H133235   3.229   4.315   4.840
11098TIP3    H233236   3.181   4.356   4.978
11099TIP3   OH233237   2.099   6.639   5.094
11099TIP3    H133238   2.038   6.697   5.140
11099TIP3    H233239   2.106   6.562   5.151
11100TIP3   OH233240   0.084   5.715   5.202
11100TIP3    H133241   0.130   5.645   5.154
11100TIP3    H233242   0.093   5.792   5.146
11101TIP3   OH233243   7.183   7.799   1.355
11101TIP3    H133244   7.171   7.801   1.260
11101TIP3    H233245   7.277   7.812   1.367
11102TIP3   OH233246   8.114   7.445   1.509
11102TIP3    H133247   8.193   7.461   1.459
11102TIP3    H233248   8.109   7.350   1.518
11103TIP3   OH233249   8.403   1.848   1.610
11103TIP3    H133250   8.444   1.849   1.523
11103TIP3    H233251   8.314   1.880   1.596
11104TIP3   OH233252   2.970   7.779   1.079
11104TIP3    H133253   2.949   7.768   1.171
11104TIP3    H233254   2.890   7.757   1.032
11105TIP3   OH233255   8.315   4.249   6.135
11105TIP3    H133256   8.278   4.284   6.216
11105TIP3    H233257   8.410   4.261   6.144
11106TIP3   OH233258   8.160   5.402   6.674
11106TIP3    H133259   8.225   5.397   6.604
11106TIP3    H233260   8.109   5.321   6.665
11107TIP3   OH233261   4.075   4.845   0.282
11107TIP3    H133262   4.151   4.788   0.291
11107TIP3    H233263   4.101   4.908   0.215
11108TIP3   OH233264   2.699   4.691   5.179
11108TIP3    H133265   2.755   4.761   5.145
11108TIP3    H233266   2.612   4.730   5.182
11109TIP3   OH233267   1.040   2.676   4.702
11109TIP3    H133268   1.021   2.649   4.612
11109TIP3    H233269   1.042   2.593   4.752
11110TIP3   OH233270   3.471   6.676   2.325
11110TIP3    H133271   3.435   6.686   2.413
11110TIP3    H233272   3.398   6.699   2.267
11111TIP3   OH233273   2.571   3.741   6.599
11111TIP3    H133274   2.544   3.706   6.683
11111TIP3    H233275   2.576   3.664   6.541
11112TIP3   OH233276   3.687   3.670   1.881
11112TIP3    H133277   3.655   3.592   1.927
11112TIP3    H233278   3.642   3.669   1.797
11113TIP3   OH233279   0.231   6.310   0.820
11113TIP3    H133280   0.194   6.250   0.885
11113TIP3    H233281   0.195   6.396   0.845
11114TIP3   OH233282   3.845   7.787   2.620
11114TIP3    H133283   3.773   7.765   2.560
11114TIP3    H233284   3.801   7.818   2.699
11115TIP3   OH233285   5.661   3.041   1.184
11115TIP3    H133286   5.627   3.012   1.099
11115TIP3    H233287   5.756   3.044   1.171
11116TIP3   OH233288   5.892   1.012   3.928
11116TIP3    H133289   5.869   1.072   3.999
11116TIP3    H233290   5.918   1.069   3.856
11117TIP3   OH233291   3.817   5.345   6.279
11117TIP3    H133292   3.847   5.255   6.291
11117TIP3    H233293   3.781   5.346   6.190
11118TIP3   OH233294   5.084   0.225   1.942
11118TIP3    H133295   5.136   0.212   2.021
11118TIP3    H233296   4.997   0.249   1.975
11119TIP3   OH233297   5.894   6.945   5.562
11119TIP3    H133298   5.908   6.893   5.641
11119TIP3    H233299   5.974   6.935   5.512
11120TIP3   OH233300   4.144   6.557   2.560
11120TIP3    H133301   4.190   6.474   2.572
11120TIP3    H233302   4.184   6.616   2.623
11121TIP3   OH233303   3.075   7.909   0.378
11121TIP3    H133304   3.162   7.896   0.341
11121TIP3    H233305   3.073   7.853   0.455
11122TIP3   OH233306   5.259   0.539   3.998
11122TIP3    H133307   5.264   0.445   4.018
11122TIP3    H233308   5.227   0.579   4.078
11123TIP3   OH233309   4.781   1.579   3.290
11123TIP3    H133310   4.717   1.509   3.292
11123TIP3    H233311   4.759   1.635   3.365
11124TIP3   OH233312   6.313   0.381   1.966
11124TIP3    H133313   6.290   0.305   1.913
11124TIP3    H233314   6.327   0.346   2.054
11125TIP3   OH233315   7.925   5.551   4.017
11125TIP3    H133316   8.002   5.551   4.074
11125TIP3    H233317   7.902   5.458   4.009
11126TIP3   OH233318   3.670   0.498   3.392
11126TIP3    H133319   3.722   0.575   3.414
11126TIP3    H233320   3.690   0.481   3.300
11127TIP3   OH233321   5.361   3.003   1.598
11127TIP3    H133322   5.338   3.028   1.509
11127TIP3    H233323   5.281   3.016   1.648
11128TIP3   OH233324   0.229   0.827   2.071
11128TIP3    H133325   0.282   0.759   2.030
11128TIP3    H233326   0.232   0.900   2.009
11129TIP3   OH233327   7.626   6.196   1.105
11129TIP3    H133328   7.547   6.142   1.114
11129TIP3    H233329   7.592   6.283   1.081
11130TIP3   OH233330   7.974   7.063   0.908
11130TIP3    H133331   8.029   7.137   0.880
11130TIP3    H233332   8.036   6.993   0.926
11131TIP3   OH233333   6.075   5.631   1.708
11131TIP3    H133334   6.080   5.548   1.660
11131TIP3    H233335   5.986   5.663   1.689
11132TIP3   OH233336   1.520   2.187   2.353
11132TIP3    H133337   1.498   2.104   2.311
11132TIP3    H233338   1.548   2.243   2.281
11133TIP3   OH233339   3.911   4.285   1.171
11133TIP3    H133340   3.966   4.222   1.125
11133TIP3    H233341   3.969   4.359   1.188
11134TIP3   OH233342   5.644   1.803   1.981
11134TIP3    H133343   5.711   1.795   2.049
11134TIP3    H233344   5.590   1.877   2.009
11135TIP3   OH233345   5.179   5.342   4.126
11135TIP3    H133346   5.103   5.333   4.183
11135TIP3    H233347   5.143   5.352   4.039
11136TIP3   OH233348   1.766   1.093   0.455
11136TIP3    H133349   1.776   1.083   0.549
11136TIP3    H233350   1.744   1.186   0.443
11137TIP3   OH233351   0.501   0.903   3.833
11137TIP3    H133352   0.582   0.855   3.815
11137TIP3    H233353   0.471   0.867   3.917
11138TIP3   OH233354   8.168   6.176   3.119
11138TIP3    H133355   8.205   6.109   3.176
11138TIP3    H233356   8.105   6.128   3.065
11139TIP3   OH233357   4.189   3.144   5.812
11139TIP3    H133358   4.254   3.204   5.846
11139TIP3    H233359   4.197   3.066   5.867
11140TIP3   OH233360   5.693   6.042   5.113
11140TIP3    H133361   5.606   6.048   5.073
11140TIP3    H233362   5.745   5.992   5.050
11141TIP3   OH233363   5.440   0.224   2.430
11141TIP3    H133364   5.354   0.181   2.438
11141TIP3    H233365   5.498   0.172   2.486
11142TIP3   OH233366   1.131   5.699   0.457
11142TIP3    H133367   1.188   5.714   0.381
11142TIP3    H233368   1.127   5.604   0.466
11143TIP3   OH233369   5.142   4.378   3.015
11143TIP3    H133370   5.170   4.346   3.101
11143TIP3    H233371   5.049   4.357   3.011
11144TIP3   OH233372   6.016   2.028   6.859
11144TIP3    H133373   6.061   2.071   6.786
11144TIP3    H233374   5.935   1.995   6.821
11145TIP3   OH233375   2.397   3.989   4.701
11145TIP3    H133376   2.397   4.001   4.606
11145TIP3    H233377   2.465   3.925   4.718
11146TIP3   OH233378   0.642   5.699   4.943
11146TIP3    H133379   0.568   5.708   5.004
11146TIP3    H233380   0.615   5.747   4.865
11147TIP3   OH233381   4.032   2.795   3.092
11147TIP3    H133382   3.996   2.878   3.060
11147TIP3    H233383   3.966   2.762   3.154
11148TIP3   OH233384   6.950   4.719   5.333
11148TIP3    H133385   6.890   4.669   5.277
11148TIP3    H233386   7.022   4.659   5.351
11149TIP3   OH233387   3.596   2.123   2.738
11149TIP3    H133388   3.674   2.069   2.729
11149TIP3    H233389   3.598   2.181   2.662
11150TIP3   OH233390   4.840   4.409   0.635
11150TIP3    H133391   4.788   4.487   0.654
11150TIP3    H233392   4.787   4.337   0.667
11151TIP3   OH233393   3.985   3.478   5.468
11151TIP3    H133394   3.902   3.525   5.462
11151TIP3    H233395   4.000   3.444   5.380
11152TIP3   OH233396   2.962   4.178   5.373
11152TIP3    H133397   2.932   4.262   5.338
11152TIP3    H233398   3.038   4.155   5.320
11153TIP3   OH233399   7.542   6.766   1.607
11153TIP3    H133400   7.492   6.688   1.633
11153TIP3    H233401   7.488   6.839   1.637
11154TIP3   OH233402   1.244   5.147   4.484
11154TIP3    H133403   1.276   5.074   4.430
11154TIP3    H233404   1.182   5.193   4.428
11155TIP3   OH233405   1.950   6.604   2.059
11155TIP3    H133406   2.041   6.631   2.045
11155TIP3    H233407   1.900   6.686   2.052
11156TIP3   OH233408   0.540   2.166   1.582
11156TIP3    H133409   0.538   2.130   1.494
11156TIP3    H233410   0.487   2.105   1.634
11157TIP3   OH233411   4.016   1.705   1.028
11157TIP3    H133412   3.997   1.636   1.091
11157TIP3    H233413   4.099   1.680   0.989
11158TIP3   OH233414   6.583   6.408   4.467
11158TIP3    H133415   6.606   6.501   4.466
11158TIP3    H233416   6.550   6.393   4.556
11159TIP3   OH233417   0.694   7.032   2.435
11159TIP3    H133418   0.745   6.999   2.509
11159TIP3    H233419   0.621   7.079   2.474
11160TIP3   OH233420   3.591   6.121   2.472
11160TIP3    H133421   3.670   6.126   2.419
11160TIP3    H233422   3.623   6.098   2.560
11161TIP3   OH233423   5.300   0.130   6.437
11161TIP3    H133424   5.285   0.037   6.454
11161TIP3    H233425   5.395   0.141   6.446
11162TIP3   OH233426   2.737   5.330   2.725
11162TIP3    H133427   2.788   5.288   2.656
11162TIP3    H233428   2.665   5.372   2.679
11163TIP3   OH233429   7.918   5.760   2.440
11163TIP3    H133430   7.881   5.732   2.524
11163TIP3    H233431   7.970   5.686   2.411
11164TIP3   OH233432   0.154   3.873   6.315
11164TIP3    H133433   0.173   3.858   6.408
11164TIP3    H233434   0.179   3.791   6.272
11165TIP3   OH233435   1.860   5.185   2.141
11165TIP3    H133436   1.920   5.253   2.173
11165TIP3    H233437   1.779   5.201   2.188
11166TIP3   OH233438   7.783   4.201   1.445
11166TIP3    H133439   7.847   4.231   1.381
11166TIP3    H233440   7.756   4.115   1.413
11167TIP3   OH233441   2.661   6.200   6.045
11167TIP3    H133442   2.623   6.287   6.034
11167TIP3    H233443   2.750   6.209   6.011
11168TIP3   OH233444   2.895   4.653   3.615
11168TIP3    H133445   2.831   4.682   3.550
11168TIP3    H233446   2.980   4.664   3.571
11169TIP3   OH233447   7.287   6.473   5.998
11169TIP3    H133448   7.239   6.473   6.081
11169TIP3    H233449   7.274   6.561   5.963
11170TIP3   OH233450   2.620   2.557   1.292
11170TIP3    H133451   2.647   2.605   1.214
11170TIP3    H233452   2.616   2.465   1.263
11171TIP3   OH233453   3.998   6.103   0.690
11171TIP3    H133454   3.929   6.065   0.744
11171TIP3    H233455   4.005   6.044   0.614
11172TIP3   OH233456   1.916   6.712   0.377
11172TIP3    H133457   1.888   6.669   0.458
11172TIP3    H233458   1.881   6.657   0.307
11173TIP3   OH233459   4.024   1.217   6.604
11173TIP3    H133460   3.942   1.171   6.584
11173TIP3    H233461   4.092   1.161   6.567
11174TIP3   OH233462   7.572   7.354   4.992
11174TIP3    H133463   7.518   7.281   5.022
11174TIP3    H233464   7.655   7.314   4.966
11175TIP3   OH233465   6.680   4.282   0.477
11175TIP3    H133466   6.742   4.339   0.432
11175TIP3    H233467   6.624   4.343   0.526
11176TIP3   OH233468   1.491   2.263   0.875
11176TIP3    H133469   1.541   2.220   0.806
11176TIP3    H233470   1.447   2.192   0.921
11177TIP3   OH233471   5.283   2.396   4.662
11177TIP3    H133472   5.262   2.327   4.725
11177TIP3    H233473   5.372   2.376   4.633
11178TIP3   OH233474   6.424   3.069   1.288
11178TIP3    H133475   6.511   3.105   1.270
11178TIP3    H233476   6.405   3.095   1.378
11179TIP3   OH233477   5.575   2.396   1.151
11179TIP3    H133478   5.670   2.408   1.156
11179TIP3    H233479   5.539   2.476   1.190
11180TIP3   OH233480   1.546   4.706   3.971
11180TIP3    H133481   1.490   4.765   4.021
11180TIP3    H233482   1.494   4.682   3.894
11181TIP3   OH233483   7.345   3.166   4.255
11181TIP3    H133484   7.309   3.125   4.333
11181TIP3    H233485   7.272   3.171   4.194
11182TIP3   OH233486   3.681   7.609   4.619
11182TIP3    H133487   3.626   7.619   4.541
11182TIP3    H233488   3.744   7.541   4.595
11183TIP3   OH233489   2.214   2.108   4.062
11183TIP3    H133490   2.265   2.159   4.000
11183TIP3    H233491   2.230   2.148   4.147
11184TIP3   OH233492   8.149   2.072   4.240
11184TIP3    H133493   8.192   2.155   4.220
11184TIP3    H233494   8.164   2.018   4.162
11185TIP3   OH233495   0.841   6.792   0.449
11185TIP3    H133496   0.787   6.824   0.521
11185TIP3    H233497   0.836   6.697   0.457
11186TIP3   OH233498   3.376   7.161   4.673
11186TIP3    H133499   3.313   7.090   4.678
11186TIP3    H233500   3.334   7.225   4.615
11187TIP3   OH233501   5.316   4.908   6.161
11187TIP3    H133502   5.305   4.973   6.091
11187TIP3    H233503   5.338   4.960   6.238
11188TIP3   OH233504   4.849   3.054   6.578
11188TIP3    H133505   4.839   3.149   6.588
11188TIP3    H233506   4.760   3.020   6.584
11189TIP3   OH233507   6.462   6.479   4.172
11189TIP3    H133508   6.412   6.506   4.249
11189TIP3    H233509   6.550   6.513   4.187
11190TIP3   OH233510   5.251   1.662   2.766
11190TIP3    H133511   5.155   1.654   2.764
11190TIP3    H233512   5.281   1.583   2.811
11191TIP3   OH233513   3.672   7.036   2.609
11191TIP3    H133514   3.594   7.013   2.559
11191TIP3    H233515   3.737   7.060   2.544
11192TIP3   OH233516   0.495   1.470   2.086
11192TIP3    H133517   0.542   1.482   2.168
11192TIP3    H233518   0.476   1.376   2.083
11193TIP3   OH233519   4.073   0.139   1.969
11193TIP3    H133520   4.086   0.046   1.985
11193TIP3    H233521   4.013   0.167   2.039
11194TIP3   OH233522   7.730   2.338   4.281
11194TIP3    H133523   7.646   2.328   4.324
11194TIP3    H233524   7.715   2.404   4.214
11195TIP3   OH233525   6.434   3.888   4.943
11195TIP3    H133526   6.414   3.845   4.860
11195TIP3    H233527   6.354   3.934   4.967
11196TIP3   OH233528   6.869   3.933   1.121
11196TIP3    H133529   6.806   3.978   1.065
11196TIP3    H233530   6.815   3.870   1.170
11197TIP3   OH233531   6.614   1.013   6.621
11197TIP3    H133532   6.670   1.024   6.544
11197TIP3    H233533   6.537   0.967   6.588
11198TIP3   OH233534   0.726   2.244   4.601
11198TIP3    H133535   0.769   2.302   4.664
11198TIP3    H233536   0.731   2.291   4.518
11199TIP3   OH233537   7.621   3.416   3.828
11199TIP3    H133538   7.619   3.381   3.739
11199TIP3    H233539   7.608   3.338   3.884
11200TIP3   OH233540   4.689   6.596   3.389
11200TIP3    H133541   4.624   6.631   3.327
11200TIP3    H233542   4.642   6.526   3.434
11201TIP3   OH233543   6.870   7.042   2.254
11201TIP3    H133544   6.905   6.967   2.302
11201TIP3    H233545   6.777   7.042   2.275
11202TIP3   OH233546   2.649   7.340   5.876
11202TIP3    H133547   2.714   7.363   5.810
11202TIP3    H233548   2.677   7.254   5.908
11203TIP3   OH233549   4.172   0.919   3.253
11203TIP3    H133550   4.194   1.002   3.294
11203TIP3    H233551   4.152   0.860   3.326
11204TIP3   OH233552   2.221   5.499   2.874
11204TIP3    H133553   2.134   5.537   2.873
11204TIP3    H233554   2.206   5.404   2.880
11205TIP3   OH233555   1.722   7.244   5.353
11205TIP3    H133556   1.758   7.229   5.266
11205TIP3    H233557   1.789   7.297   5.398
11206TIP3   OH233558   3.643   6.037   1.210
11206TIP3    H133559   3.729   6.057   1.173
11206TIP3    H233560   3.659   6.030   1.305
11207TIP3   OH233561   3.024   1.849   4.440
11207TIP3    H133562   2.934   1.822   4.459
11207TIP3    H233563   3.019   1.892   4.354
11208TIP3   OH233564   5.841   4.518   1.644
11208TIP3    H133565   5.755   4.507   1.685
11208TIP3    H233566   5.828   4.490   1.553
11209TIP3   OH233567   1.018   1.398   0.825
11209TIP3    H133568   0.940   1.437   0.864
11209TIP3    H233569   1.003   1.303   0.832
11210TIP3   OH233570   6.814   6.587   0.129
11210TIP3    H133571   6.833   6.537   0.050
11210TIP3    H233572   6.721   6.608   0.122
11211TIP3   OH233573   2.761   4.195   4.607
11211TIP3    H133574   2.838   4.182   4.662
11211TIP3    H233575   2.689   4.206   4.670
11212TIP3   OH233576   1.294   0.591   6.822
11212TIP3    H133577   1.272   0.634   6.904
11212TIP3    H233578   1.241   0.512   6.820
11213TIP3   OH233579   8.332   3.893   5.442
11213TIP3    H133580   8.417   3.893   5.484
11213TIP3    H233581   8.339   3.959   5.373
11214TIP3   OH233582   3.714   5.508   2.873
11214TIP3    H133583   3.705   5.413   2.882
11214TIP3    H233584   3.659   5.544   2.942
11215TIP3   OH233585   4.228   7.152   4.801
11215TIP3    H133586   4.174   7.148   4.879
11215TIP3    H233587   4.225   7.064   4.765
11216TIP3   OH233588   8.382   0.825   4.170
11216TIP3    H133589   8.373   0.836   4.264
11216TIP3    H233590   8.364   0.732   4.156
11217TIP3   OH233591   1.577   1.661   0.514
11217TIP3    H133592   1.667   1.677   0.487
11217TIP3    H233593   1.547   1.745   0.549
11218TIP3   OH233594   1.934   5.426   0.917
11218TIP3    H133595   1.876   5.490   0.957
11218TIP3    H233596   1.994   5.479   0.863
11219TIP3   OH233597   3.294   1.908   3.655
11219TIP3    H133598   3.234   1.905   3.730
11219TIP3    H233599   3.274   1.991   3.612
11220TIP3   OH233600   7.828   3.294   4.153
11220TIP3    H133601   7.775   3.219   4.179
11220TIP3    H233602   7.820   3.298   4.058
11221TIP3   OH233603   3.902   0.292   6.668
11221TIP3    H133604   3.968   0.301   6.737
11221TIP3    H233605   3.818   0.300   6.714
11222TIP3   OH233606   1.611   6.296   4.837
11222TIP3    H133607   1.606   6.389   4.860
11222TIP3    H233608   1.525   6.277   4.799
11223TIP3   OH233609   0.183   7.742   0.359
11223TIP3    H133610   0.269   7.753   0.319
11223TIP3    H233611   0.199   7.691   0.438
11224TIP3   OH233612   6.273   2.002   5.027
11224TIP3    H133613   6.227   1.978   5.108
11224TIP3    H233614   6.320   1.923   5.002
11225TIP3   OH233615   5.784   3.465   6.110
11225TIP3    H133616   5.723   3.509   6.051
11225TIP3    H233617   5.795   3.378   6.073
11226TIP3   OH233618   2.238   0.080   2.297
11226TIP3    H133619   2.152   0.116   2.279
11226TIP3    H233620   2.290   0.100   2.219
11227TIP3   OH233621   7.931   1.559   1.567
11227TIP3    H133622   7.930   1.639   1.620
11227TIP3    H233623   7.993   1.577   1.497
11228TIP3   OH233624   6.775   4.370   3.240
11228TIP3    H133625   6.762   4.284   3.200
11228TIP3    H233626   6.859   4.399   3.205
11229TIP3   OH233627   3.723   6.802   4.974
11229TIP3    H133628   3.696   6.734   5.036
11229TIP3    H233629   3.731   6.881   5.027
11230TIP3   OH233630   7.419   5.850   3.555
11230TIP3    H133631   7.389   5.792   3.625
11230TIP3    H233632   7.423   5.793   3.478
11231TIP3   OH233633   2.214   4.362   4.018
11231TIP3    H133634   2.131   4.408   4.009
11231TIP3    H233635   2.272   4.404   3.955
11232TIP3   OH233636   8.257   4.310   0.154
11232TIP3    H133637   8.298   4.339   0.235
11232TIP3    H233638   8.317   4.245   0.118
11233TIP3   OH233639   4.530   7.288   0.973
11233TIP3    H133640   4.527   7.194   0.987
11233TIP3    H233641   4.584   7.300   0.895
11234TIP3   OH233642   0.504   2.667   6.587
11234TIP3    H133643   0.417   2.642   6.617
11234TIP3    H233644   0.560   2.658   6.664
11235TIP3   OH233645   1.851   6.259   3.138
11235TIP3    H133646   1.856   6.350   3.167
11235TIP3    H233647   1.939   6.225   3.151
11236TIP3   OH233648   3.834   1.571   0.618
11236TIP3    H133649   3.829   1.610   0.531
11236TIP3    H233650   3.851   1.646   0.676
11237TIP3   OH233651   7.659   5.341   2.503
11237TIP3    H133652   7.629   5.427   2.532
11237TIP3    H233653   7.593   5.313   2.439
11238TIP3   OH233654   1.659   0.043   4.067
11238TIP3    H133655   1.637   0.130   4.098
11238TIP3    H233656   1.641   0.045   3.973
11239TIP3   OH233657   4.554   6.286   4.136
11239TIP3    H133658   4.529   6.225   4.205
11239TIP3    H233659   4.471   6.326   4.108
11240TIP3   OH233660   0.800   3.362   3.585
11240TIP3    H133661   0.808   3.324   3.673
11240TIP3    H233662   0.709   3.391   3.580
11241TIP3   OH233663   4.880   6.323   4.074
11241TIP3    H133664   4.793   6.284   4.077
11241TIP3    H233665   4.914   6.313   4.163
11242TIP3   OH233666   6.806   3.943   0.392
11242TIP3    H133667   6.849   3.878   0.337
11242TIP3    H233668   6.866   3.955   0.466
11243TIP3   OH233669   2.903   5.303   4.930
11243TIP3    H133670   2.869   5.380   4.975
11243TIP3    H233671   2.845   5.232   4.957
11244TIP3   OH233672   0.681   6.016   3.416
11244TIP3    H133673   0.636   6.092   3.378
11244TIP3    H233674   0.625   5.942   3.394
11245TIP3   OH233675   2.702   6.373   1.577
11245TIP3    H133676   2.790   6.376   1.540
11245TIP3    H233677   2.686   6.280   1.593
11246TIP3   OH233678   3.498   0.021   5.269
11246TIP3    H133679   3.419   0.024   5.214
11246TIP3    H233680   3.569   0.047   5.210
11247TIP3   OH233681   5.242   0.170   6.183
11247TIP3    H133682   5.257   0.160   6.277
11247TIP3    H233683   5.147   0.178   6.174
11248TIP3   OH233684   6.666   2.507   1.717
11248TIP3    H133685   6.580   2.522   1.756
11248TIP3    H233686   6.655   2.527   1.625
11249TIP3   OH233687   2.260   4.742   6.134
11249TIP3    H133688   2.175   4.776   6.161
11249TIP3    H233689   2.316   4.820   6.130
11250TIP3   OH233690   6.990   4.334   1.528
11250TIP3    H133691   6.964   4.424   1.549
11250TIP3    H233692   6.936   4.280   1.586
11251TIP3   OH233693   5.664   2.076   6.481
11251TIP3    H133694   5.637   2.168   6.489
11251TIP3    H233695   5.595   2.027   6.526
11252TIP3   OH233696   2.327   2.779   6.589
11252TIP3    H133697   2.338   2.778   6.494
11252TIP3    H233698   2.248   2.727   6.605
11253TIP3   OH233699   4.222   6.759   2.333
11253TIP3    H133700   4.210   6.797   2.420
11253TIP3    H233701   4.247   6.668   2.349
11254TIP3   OH233702   7.890   5.641   0.911
11254TIP3    H133703   7.920   5.639   0.821
11254TIP3    H233704   7.883   5.549   0.937
11255TIP3   OH233705   7.115   5.260   4.633
11255TIP3    H133706   7.067   5.213   4.701
11255TIP3    H233707   7.052   5.274   4.563
11256TIP3   OH233708   2.657   5.402   1.986
11256TIP3    H133709   2.646   5.423   1.893
11256TIP3    H233710   2.568   5.397   2.020
11257TIP3   OH233711   4.214   1.937   3.058
11257TIP3    H133712   4.272   1.861   3.065
11257TIP3    H233713   4.268   2.006   3.020
11258TIP3   OH233714   5.764   4.610   0.736
11258TIP3    H133715   5.826   4.611   0.663
11258TIP3    H233716   5.781   4.693   0.781
11259TIP3   OH233717   5.046   0.876   3.559
11259TIP3    H133718   5.104   0.818   3.511
11259TIP3    H233719   5.076   0.964   3.537
11260TIP3   OH233720   5.816   6.508   3.628
11260TIP3    H133721   5.885   6.443   3.642
11260TIP3    H233722   5.773   6.515   3.714
11261TIP3   OH233723   1.012   4.642   3.840
11261TIP3    H133724   1.005   4.547   3.839
11261TIP3    H233725   0.921   4.673   3.845
11262TIP3   OH233726   7.786   6.855   5.483
11262TIP3    H133727   7.823   6.932   5.526
11262TIP3    H233728   7.721   6.890   5.422
11263TIP3   OH233729   7.212   7.811   0.505
11263TIP3    H133730   7.253   7.734   0.466
11263TIP3    H233731   7.216   7.877   0.436
11264TIP3   OH233732   6.168   4.176   3.297
11264TIP3    H133733   6.210   4.252   3.338
11264TIP3    H233734   6.215   4.163   3.215
11265TIP3   OH233735   3.430   6.959   2.935
11265TIP3    H133736   3.360   6.941   2.872
11265TIP3    H233737   3.465   7.044   2.908
11266TIP3   OH233738   1.350   5.559   1.977
11266TIP3    H133739   1.358   5.574   1.883
11266TIP3    H233740   1.332   5.645   2.013
11267TIP3   OH233741   4.854   5.554   2.997
11267TIP3    H133742   4.768   5.512   3.001
11267TIP3    H233743   4.916   5.483   3.012
11268TIP3   OH233744   3.434   2.875   3.121
11268TIP3    H133745   3.520   2.849   3.088
11268TIP3    H233746   3.441   2.969   3.135
11269TIP3   OH233747   0.767   3.575   2.665
11269TIP3    H133748   0.719   3.654   2.641
11269TIP3    H233749   0.855   3.589   2.630
11270TIP3   OH233750   4.560   0.703   2.443
11270TIP3    H133751   4.633   0.756   2.475
11270TIP3    H233752   4.595   0.614   2.442
11271TIP3   OH233753   3.616   7.746   1.848
11271TIP3    H133754   3.659   7.821   1.807
11271TIP3    H233755   3.688   7.693   1.881
11272TIP3   OH233756   2.666   4.914   1.645
11272TIP3    H133757   2.696   4.960   1.724
11272TIP3    H233758   2.743   4.866   1.614
11273TIP3   OH233759   3.172   3.209   0.734
11273TIP3    H133760   3.183   3.130   0.787
11273TIP3    H233761   3.084   3.202   0.697
11274TIP3   OH233762   1.890   7.723   5.992
11274TIP3    H133763   1.964   7.675   5.955
11274TIP3    H233764   1.837   7.748   5.916
11275TIP3   OH233765   4.595   6.207   3.597
11275TIP3    H133766   4.601   6.261   3.518
11275TIP3    H233767   4.666   6.144   3.589
11276TIP3   OH233768   6.006   3.463   5.252
11276TIP3    H133769   5.978   3.380   5.213
11276TIP3    H233770   5.949   3.475   5.328
11277TIP3   OH233771   2.468   5.306   5.510
11277TIP3    H133772   2.516   5.318   5.592
11277TIP3    H233773   2.389   5.257   5.536
11278TIP3   OH233774   4.808   0.893   5.416
11278TIP3    H133775   4.802   0.984   5.387
11278TIP3    H233776   4.719   0.859   5.406
11279TIP3   OH233777   3.527   6.471   4.906
11279TIP3    H133778   3.487   6.546   4.861
11279TIP3    H233779   3.609   6.506   4.941
11280TIP3   OH233780   2.040   6.360   5.183
11280TIP3    H133781   2.096   6.319   5.117
11280TIP3    H233782   1.952   6.358   5.143
11281TIP3   OH233783   7.622   2.150   0.876
11281TIP3    H133784   7.538   2.193   0.863
11281TIP3    H233785   7.680   2.220   0.907
11282TIP3   OH233786   6.392   5.794   0.614
11282TIP3    H133787   6.300   5.767   0.617
11282TIP3    H233788   6.390   5.883   0.579
11283TIP3   OH233789   5.749   5.679   5.472
11283TIP3    H133790   5.772   5.587   5.481
11283TIP3    H233791   5.670   5.679   5.417
11284TIP3   OH233792   7.204   6.176   6.521
11284TIP3    H133793   7.276   6.113   6.530
11284TIP3    H233794   7.128   6.122   6.500
11285TIP3   OH233795   6.241   6.972   3.472
11285TIP3    H133796   6.275   6.882   3.472
11285TIP3    H233797   6.165   6.969   3.530
11286TIP3   OH233798   3.021   4.000   2.517
11286TIP3    H133799   2.992   3.961   2.435
11286TIP3    H233800   3.038   4.092   2.495
11287TIP3   OH233801   2.672   6.552   3.508
11287TIP3    H133802   2.595   6.518   3.552
11287TIP3    H233803   2.649   6.553   3.415
11288TIP3   OH233804   2.031   1.816   6.666
11288TIP3    H133805   1.968   1.804   6.595
11288TIP3    H233806   2.081   1.893   6.640
11289TIP3   OH233807   6.080   7.328   0.550
11289TIP3    H133808   6.111   7.243   0.518
11289TIP3    H233809   6.023   7.307   0.624
11290TIP3   OH233810   0.274   3.572   4.089
11290TIP3    H133811   0.313   3.541   4.008
11290TIP3    H233812   0.203   3.630   4.061
11291TIP3   OH233813   1.860   5.874   5.143
11291TIP3    H133814   1.836   5.886   5.051
11291TIP3    H233815   1.838   5.783   5.162
11292TIP3   OH233816   7.233   7.249   2.826
11292TIP3    H133817   7.167   7.261   2.758
11292TIP3    H233818   7.305   7.205   2.782
11293TIP3   OH233819   6.972   5.713   3.849
11293TIP3    H133820   7.049   5.770   3.839
11293TIP3    H233821   6.947   5.721   3.941
11294TIP3   OH233822   0.264   1.031   3.473
11294TIP3    H133823   0.207   0.960   3.503
11294TIP3    H233824   0.290   1.077   3.553
11295TIP3   OH233825   2.823   1.087   3.555
11295TIP3    H133826   2.734   1.118   3.570
11295TIP3    H233827   2.844   1.034   3.632
11296TIP3   OH233828   7.222   5.588   5.592
11296TIP3    H133829   7.182   5.541   5.665
11296TIP3    H233830   7.313   5.558   5.592
11297TIP3   OH233831   0.035   5.922   1.467
11297TIP3    H133832  -0.019   5.888   1.396
11297TIP3    H233833   0.121   5.883   1.453
11298TIP3   OH233834   3.425   7.543   4.855
11298TIP3    H133835   3.464   7.491   4.925
11298TIP3    H233836   3.353   7.489   4.821
11299TIP3   OH233837   1.792   3.048   3.560
11299TIP3    H133838   1.769   2.956   3.551
11299TIP3    H233839   1.745   3.092   3.489
11300TIP3   OH233840   4.027   6.844   6.081
11300TIP3    H133841   4.024   6.895   6.162
11300TIP3    H233842   4.120   6.840   6.059
11301TIP3   OH233843   2.515   4.231   6.106
11301TIP3    H133844   2.457   4.265   6.038
11301TIP3    H233845   2.502   4.289   6.181
11302TIP3   OH233846   4.167   7.469   1.881
11302TIP3    H133847   4.114   7.481   1.960
11302TIP3    H233848   4.247   7.520   1.898
11303TIP3   OH233849   0.172   4.113   6.651
11303TIP3    H133850   0.249   4.101   6.595
11303TIP3    H233851   0.198   4.079   6.736
11304TIP3   OH233852   7.749   2.378   0.928
11304TIP3    H133853   7.780   2.437   0.860
11304TIP3    H233854   7.785   2.414   1.010
11305TIP3   OH233855   8.188   1.221   0.599
11305TIP3    H133856   8.179   1.126   0.609
11305TIP3    H233857   8.224   1.251   0.683
11306TIP3   OH233858   1.910   2.124   6.132
11306TIP3    H133859   1.915   2.052   6.194
11306TIP3    H233860   1.942   2.087   6.050
11307TIP3   OH233861   5.010   2.361   3.409
11307TIP3    H133862   4.947   2.294   3.435
11307TIP3    H233863   4.995   2.374   3.316
11308TIP3   OH233864   0.511   2.488   1.496
11308TIP3    H133865   0.455   2.413   1.475
11308TIP3    H233866   0.450   2.554   1.530
11309TIP3   OH233867   4.398   7.552   0.223
11309TIP3    H133868   4.430   7.524   0.309
11309TIP3    H233869   4.380   7.645   0.233
11310TIP3   OH233870   1.484   3.117   2.899
11310TIP3    H133871   1.437   3.174   2.961
11310TIP3    H233872   1.574   3.115   2.932
11311TIP3   OH233873   2.254   7.405   2.319
11311TIP3    H133874   2.183   7.467   2.300
11311TIP3    H233875   2.239   7.380   2.410
11312TIP3   OH233876   0.154   0.348   1.534
11312TIP3    H133877   0.130   0.333   1.625
11312TIP3    H233878   0.215   0.421   1.537
11313TIP3   OH233879   0.648   4.841   2.059
11313TIP3    H133880   0.617   4.920   2.104
11313TIP3    H233881   0.591   4.771   2.091
11314TIP3   OH233882   4.990   2.030   3.039
11314TIP3    H133883   4.939   1.950   3.047
11314TIP3    H233884   5.069   2.013   3.091
11315TIP3   OH233885   0.355   0.387   2.591
11315TIP3    H133886   0.267   0.351   2.603
11315TIP3    H233887   0.370   0.441   2.668
11316TIP3   OH233888   8.128   6.030   5.596
11316TIP3    H133889   8.212   6.011   5.637
11316TIP3    H233890   8.131   6.124   5.576
11317TIP3   OH233891   7.333   2.654   6.233
11317TIP3    H133892   7.411   2.598   6.245
11317TIP3    H233893   7.259   2.593   6.238
11318TIP3   OH233894   6.924   5.147   2.464
11318TIP3    H133895   6.922   5.113   2.553
11318TIP3    H233896   6.880   5.232   2.470
11319TIP3   OH233897   0.319   6.057   2.095
11319TIP3    H133898   0.368   6.137   2.110
11319TIP3    H233899   0.237   6.070   2.143
11320TIP3   OH233900   6.699   1.640   5.943
11320TIP3    H133901   6.683   1.732   5.965
11320TIP3    H233902   6.685   1.636   5.849
11321TIP3   OH233903   6.278   0.316   1.601
11321TIP3    H133904   6.369   0.289   1.589
11321TIP3    H233905   6.279   0.411   1.590
11322TIP3   OH233906   6.822   5.873   4.939
11322TIP3    H133907   6.878   5.950   4.951
11322TIP3    H233908   6.737   5.909   4.914
11323TIP3   OH233909   4.210   6.753   2.866
11323TIP3    H133910   4.216   6.823   2.930
11323TIP3    H233911   4.287   6.699   2.882
11324TIP3   OH233912   0.156   1.657   6.398
11324TIP3    H133913   0.223   1.627   6.460
11324TIP3    H233914   0.082   1.598   6.414
11325TIP3   OH233915   1.434   6.043   2.743
11325TIP3    H133916   1.507   6.034   2.804
11325TIP3    H233917   1.356   6.033   2.797
11326TIP3   OH233918   3.635   2.469   5.080
11326TIP3    H133919   3.589   2.519   5.012
11326TIP3    H233920   3.592   2.495   5.162
11327TIP3   OH233921   4.431   1.698   6.696
11327TIP3    H133922   4.467   1.616   6.729
11327TIP3    H233923   4.460   1.701   6.604
11328TIP3   OH233924   4.052   6.291   6.404
11328TIP3    H133925   3.962   6.268   6.377
11328TIP3    H233926   4.063   6.248   6.489
11329TIP3   OH233927   4.617   6.743   3.142
11329TIP3    H133928   4.670   6.671   3.108
11329TIP3    H233929   4.658   6.822   3.107
11330TIP3   OH233930   2.619   7.287   1.690
11330TIP3    H133931   2.611   7.324   1.602
11330TIP3    H233932   2.529   7.282   1.722
11331TIP3   OH233933   1.292   4.094   1.627
11331TIP3    H133934   1.200   4.089   1.653
11331TIP3    H233935   1.297   4.040   1.548
11332TIP3   OH233936   1.550   1.215   0.100
11332TIP3    H133937   1.601   1.287   0.062
11332TIP3    H233938   1.615   1.159   0.143
11333TIP3   OH233939   0.239   7.428   0.978
11333TIP3    H133940   0.266   7.503   1.030
11333TIP3    H233941   0.293   7.432   0.899
11334TIP3   OH233942   2.283   4.472   0.325
11334TIP3    H133943   2.269   4.538   0.393
11334TIP3    H233944   2.327   4.521   0.255
11335TIP3   OH233945   0.328   2.710   3.558
11335TIP3    H133946   0.301   2.801   3.573
11335TIP3    H233947   0.250   2.668   3.521
11336TIP3   OH233948   0.263   5.784   1.422
11336TIP3    H133949   0.272   5.689   1.417
11336TIP3    H233950   0.323   5.811   1.491
11337TIP3   OH233951   0.767   3.054   3.569
11337TIP3    H133952   0.781   2.983   3.506
11337TIP3    H233953   0.682   3.090   3.545
11338TIP3   OH233954   5.489   4.936   2.022
11338TIP3    H133955   5.492   5.028   2.048
11338TIP3    H233956   5.399   4.922   1.992
11339TIP3   OH233957   4.359   4.422   5.992
11339TIP3    H133958   4.366   4.375   5.909
11339TIP3    H233959   4.393   4.509   5.973
11340TIP3   OH233960   3.807   6.068   6.401
11340TIP3    H133961   3.808   6.088   6.307
11340TIP3    H233962   3.726   6.017   6.413
11341TIP3   OH233963   0.242   5.543   0.684
11341TIP3    H133964   0.189   5.468   0.709
11341TIP3    H233965   0.315   5.542   0.745
11342TIP3   OH233966   5.043   7.633   4.497
11342TIP3    H133967   5.123   7.644   4.548
11342TIP3    H233968   5.021   7.722   4.467
11343TIP3   OH233969   1.991   7.131   1.470
11343TIP3    H133970   1.918   7.129   1.532
11343TIP3    H233971   1.953   7.164   1.389
11344TIP3   OH233972   6.671   4.859   6.080
11344TIP3    H133973   6.749   4.810   6.056
11344TIP3    H233974   6.671   4.935   6.022
11345TIP3   OH233975   5.838   5.088   6.002
11345TIP3    H133976   5.868   5.112   6.090
11345TIP3    H233977   5.768   5.150   5.982
11346TIP3   OH233978   1.773   0.205   6.253
11346TIP3    H133979   1.697   0.172   6.299
11346TIP3    H233980   1.780   0.297   6.280
11347TIP3   OH233981   0.292   2.889   0.448
11347TIP3    H133982   0.306   2.921   0.536
11347TIP3    H233983   0.202   2.915   0.426
11348TIP3   OH233984   8.126   3.599   2.927
11348TIP3    H133985   8.160   3.688   2.921
11348TIP3    H233986   8.045   3.600   2.876
11349TIP3   OH233987   0.479   4.948   3.425
11349TIP3    H133988   0.474   4.855   3.445
11349TIP3    H233989   0.510   4.951   3.334
11350TIP3   OH233990   2.541   5.934   0.585
11350TIP3    H133991   2.520   5.870   0.653
11350TIP3    H233992   2.601   5.887   0.527
11351TIP3   OH233993   6.948   3.240   5.771
11351TIP3    H133994   6.964   3.273   5.860
11351TIP3    H233995   6.859   3.206   5.774
11352TIP3   OH233996   1.350   5.385   6.230
11352TIP3    H133997   1.276   5.411   6.176
11352TIP3    H233998   1.425   5.387   6.172
11353TIP3   OH233999   2.069   1.864   0.869
11353TIP3    H134000   1.984   1.905   0.881
11353TIP3    H234001   2.112   1.875   0.954
11354TIP3   OH234002   5.455   6.439   0.981
11354TIP3    H134003   5.469   6.446   1.075
11354TIP3    H234004   5.531   6.389   0.949
11355TIP3   OH234005   6.498   6.430   0.516
11355TIP3    H134006   6.455   6.514   0.499
11355TIP3    H234007   6.530   6.438   0.606
11356TIP3   OH234008   7.550   1.820   3.332
11356TIP3    H134009   7.638   1.857   3.346
11356TIP3    H234010   7.510   1.876   3.266
11357TIP3   OH234011   8.048   2.831   5.969
11357TIP3    H134012   8.018   2.921   5.983
11357TIP3    H234013   8.107   2.836   5.894
11358TIP3   OH234014   1.100   6.472   1.874
11358TIP3    H134015   1.056   6.394   1.841
11358TIP3    H234016   1.183   6.475   1.826
11359TIP3   OH234017   4.825   5.627   3.318
11359TIP3    H134018   4.779   5.552   3.356
11359TIP3    H234019   4.912   5.593   3.297
11360TIP3   OH234020   0.941   1.054   0.568
11360TIP3    H134021   1.019   1.028   0.617
11360TIP3    H234022   0.960   1.143   0.538
11361TIP3   OH234023   2.182   5.340   0.677
11361TIP3    H134024   2.103   5.352   0.624
11361TIP3    H234025   2.202   5.247   0.668
11362TIP3   OH234026   5.390   5.286   5.595
11362TIP3    H134027   5.440   5.205   5.603
11362TIP3    H234028   5.307   5.267   5.640
11363TIP3   OH234029   8.443   6.143   4.194
11363TIP3    H134030   8.399   6.086   4.131
11363TIP3    H234031   8.378   6.209   4.217
11364TIP3   OH234032   4.147   6.439   3.598
11364TIP3    H134033   4.231   6.482   3.588
11364TIP3    H234034   4.169   6.350   3.626
11365TIP3   OH234035   3.082   2.629   1.125
11365TIP3    H134036   3.036   2.608   1.207
11365TIP3    H234037   3.030   2.699   1.086
11366TIP3   OH234038   3.419   4.571   1.422
11366TIP3    H134039   3.377   4.557   1.338
11366TIP3    H234040   3.385   4.502   1.478
11367TIP3   OH234041   6.235   5.387   2.123
11367TIP3    H134042   6.251   5.468   2.075
11367TIP3    H234043   6.141   5.389   2.142
11368TIP3   OH234044   1.111   1.262   0.401
11368TIP3    H134045   1.166   1.206   0.455
11368TIP3    H234046   1.168   1.291   0.330
11369TIP3   OH234047   1.638   0.547   3.964
11369TIP3    H134048   1.607   0.617   3.906
11369TIP3    H234049   1.717   0.583   4.004
11370TIP3   OH234050   3.245   1.197   5.006
11370TIP3    H134051   3.201   1.140   5.069
11370TIP3    H234052   3.213   1.285   5.026
11371TIP3   OH234053   6.522   5.117   6.143
11371TIP3    H134054   6.491   5.039   6.098
11371TIP3    H234055   6.447   5.176   6.142
11372TIP3   OH234056   6.081   3.265   2.694
11372TIP3    H134057   6.149   3.278   2.759
11372TIP3    H234058   6.116   3.198   2.635
11373TIP3   OH234059   6.734   5.230   3.437
11373TIP3    H134060   6.653   5.227   3.386
11373TIP3    H234061   6.772   5.315   3.416
11374TIP3   OH234062   3.274   7.694   1.485
11374TIP3    H134063   3.184   7.669   1.503
11374TIP3    H234064   3.268   7.761   1.417
11375TIP3   OH234065   3.334   5.503   2.579
11375TIP3    H134066   3.262   5.492   2.641
11375TIP3    H234067   3.392   5.567   2.620
11376TIP3   OH234068   1.170   4.592   4.988
11376TIP3    H134069   1.239   4.564   5.048
11376TIP3    H234070   1.100   4.528   5.001
11377TIP3   OH234071   2.557   4.983   5.991
11377TIP3    H134072   2.528   4.955   6.078
11377TIP3    H234073   2.651   4.997   6.001
11378TIP3   OH234074   3.432   5.426   1.055
11378TIP3    H134075   3.452   5.373   0.978
11378TIP3    H234076   3.402   5.510   1.020
11379TIP3   OH234077   7.436   6.768   3.812
11379TIP3    H134078   7.393   6.704   3.869
11379TIP3    H234079   7.366   6.823   3.780
11380TIP3   OH234080   2.560   1.401   5.131
11380TIP3    H134081   2.572   1.327   5.072
11380TIP3    H234082   2.648   1.418   5.166
11381TIP3   OH234083   4.356   2.789   5.283
11381TIP3    H134084   4.382   2.804   5.374
11381TIP3    H234085   4.316   2.701   5.284
11382TIP3   OH234086   7.292   7.550   1.109
11382TIP3    H134087   7.382   7.520   1.123
11382TIP3    H234088   7.298   7.645   1.107
11383TIP3   OH234089   1.936   2.012   3.806
11383TIP3    H134090   2.029   2.027   3.789
11383TIP3    H234091   1.922   1.920   3.783
11384TIP3   OH234092   6.956   5.634   3.304
11384TIP3    H134093   6.870   5.648   3.263
11384TIP3    H234094   6.946   5.671   3.392
11385TIP3   OH234095   3.062   5.329   4.017
11385TIP3    H134096   3.116   5.266   4.065
11385TIP3    H234097   3.086   5.315   3.925
11386TIP3   OH234098   8.291   1.499   1.668
11386TIP3    H134099   8.346   1.545   1.731
11386TIP3    H234100   8.303   1.406   1.688
11387TIP3   OH234101   2.726   5.644   0.626
11387TIP3    H134102   2.691   5.607   0.545
11387TIP3    H234103   2.692   5.588   0.695
11388TIP3   OH234104   2.089   0.385   2.776
11388TIP3    H134105   2.056   0.311   2.726
11388TIP3    H234106   2.184   0.377   2.772
11389TIP3   OH234107   1.110   7.237   1.411
11389TIP3    H134108   1.077   7.166   1.466
11389TIP3    H234109   1.061   7.230   1.330
11390TIP3   OH234110   0.061   2.442   3.125
11390TIP3    H134111   0.143   2.463   3.169
11390TIP3    H234112  -0.005   2.494   3.172
11391TIP3   OH234113   5.806   3.811   6.188
11391TIP3    H134114   5.771   3.748   6.125
11391TIP3    H234115   5.730   3.840   6.239
11392TIP3   OH234116   1.607   3.630   0.594
11392TIP3    H134117   1.633   3.660   0.681
11392TIP3    H234118   1.536   3.567   0.610
11393TIP3   OH234119   4.521   1.030   0.550
11393TIP3    H134120   4.603   1.050   0.504
11393TIP3    H234121   4.547   1.025   0.643
11394TIP3   OH234122   4.185   6.943   3.694
11394TIP3    H134123   4.164   6.994   3.773
11394TIP3    H234124   4.246   6.999   3.646
11395TIP3   OH234125   1.309   7.678   3.955
11395TIP3    H134126   1.260   7.700   3.876
11395TIP3    H234127   1.374   7.614   3.926
11396TIP3   OH234128   1.797   0.440   0.433
11396TIP3    H134129   1.802   0.471   0.342
11396TIP3    H234130   1.806   0.519   0.486
11397TIP3   OH234131   6.588   7.444   0.133
11397TIP3    H134132   6.522   7.461   0.066
11397TIP3    H234133   6.538   7.428   0.213
11398TIP3   OH234134   6.777   4.149   2.341
11398TIP3    H134135   6.840   4.078   2.331
11398TIP3    H234136   6.737   4.158   2.254
11399TIP3   OH234137   4.815   3.033   4.898
11399TIP3    H134138   4.823   3.032   4.802
11399TIP3    H234139   4.864   2.955   4.926
11400TIP3   OH234140   0.686   3.842   4.608
11400TIP3    H134141   0.774   3.864   4.638
11400TIP3    H234142   0.629   3.903   4.655
11401TIP3   OH234143   4.136   4.888   3.289
11401TIP3    H134144   4.219   4.864   3.249
11401TIP3    H234145   4.151   4.976   3.324
11402TIP3   OH234146   8.366   7.899   5.160
11402TIP3    H134147   8.289   7.878   5.108
11402TIP3    H234148   8.434   7.839   5.129
11403TIP3   OH234149   6.503   2.690   2.310
11403TIP3    H134150   6.470   2.682   2.399
11403TIP3    H234151   6.597   2.704   2.319
11404TIP3   OH234152   4.231   0.154   5.323
11404TIP3    H134153   4.238   0.210   5.246
11404TIP3    H234154   4.304   0.092   5.315
11405TIP3   OH234155   0.687   0.218   1.294
11405TIP3    H134156   0.782   0.203   1.295
11405TIP3    H234157   0.678   0.313   1.300
11406TIP3   OH234158   7.262   0.836   4.404
11406TIP3    H134159   7.171   0.864   4.406
11406TIP3    H234160   7.259   0.742   4.423
11407TIP3   OH234161   7.745   6.360   0.239
11407TIP3    H134162   7.719   6.405   0.319
11407TIP3    H234163   7.841   6.360   0.241
11408TIP3   OH234164   6.073   1.138   1.726
11408TIP3    H134165   6.094   1.062   1.781
11408TIP3    H234166   6.025   1.197   1.785
11409TIP3   OH234167   1.106   4.623   4.631
11409TIP3    H134168   1.170   4.665   4.689
11409TIP3    H234169   1.152   4.614   4.547
11410TIP3   OH234170   3.094   4.071   3.777
11410TIP3    H134171   3.185   4.071   3.745
11410TIP3    H234172   3.082   4.158   3.814
11411TIP3   OH234173   3.814   0.003   2.439
11411TIP3    H134174   3.720  -0.006   2.458
11411TIP3    H234175   3.846   0.067   2.502
11412TIP3   OH234176   7.229   6.630   5.628
11412TIP3    H134177   7.271   6.613   5.544
11412TIP3    H234178   7.301   6.655   5.686
11413TIP3   OH234179   4.298   6.099   0.892
11413TIP3    H134180   4.326   6.190   0.881
11413TIP3    H234181   4.280   6.068   0.804
11414TIP3   OH234182   3.832   4.680   2.010
11414TIP3    H134183   3.893   4.714   1.945
11414TIP3    H234184   3.832   4.585   1.996
11415TIP3   OH234185   3.141   5.472   4.417
11415TIP3    H134186   3.142   5.507   4.506
11415TIP3    H234187   3.080   5.528   4.370
11416TIP3   OH234188   3.821   1.824   0.767
11416TIP3    H134189   3.754   1.887   0.740
11416TIP3    H234190   3.791   1.791   0.851
11417TIP3   OH234191   5.009   1.635   6.294
11417TIP3    H134192   4.996   1.730   6.299
11417TIP3    H234193   4.939   1.599   6.348
11418TIP3   OH234194   2.718   7.732   4.094
11418TIP3    H134195   2.649   7.761   4.035
11418TIP3    H234196   2.743   7.811   4.142
11419TIP3   OH234197   7.248   0.179   5.415
11419TIP3    H134198   7.199   0.119   5.358
11419TIP3    H234199   7.335   0.185   5.375
11420TIP3   OH234200   8.045   6.634   5.660
11420TIP3    H134201   7.988   6.562   5.685
11420TIP3    H234202   8.069   6.677   5.742
11421TIP3   OH234203   2.372   0.300   4.837
11421TIP3    H134204   2.337   0.218   4.872
11421TIP3    H234205   2.451   0.316   4.888
11422TIP3   OH234206   0.785   4.260   6.077
11422TIP3    H134207   0.824   4.245   6.163
11422TIP3    H234208   0.712   4.319   6.093
11423TIP3   OH234209   0.216   2.022   0.119
11423TIP3    H134210   0.144   1.987   0.173
11423TIP3    H234211   0.282   1.953   0.121
11424TIP3   OH234212   5.634   0.903   1.164
11424TIP3    H134213   5.624   0.883   1.071
11424TIP3    H234214   5.567   0.850   1.208
11425TIP3   OH234215   5.316   0.182   2.831
11425TIP3    H134216   5.291   0.272   2.810
11425TIP3    H234217   5.236   0.131   2.816
11426TIP3   OH234218   1.621   1.992   3.646
11426TIP3    H134219   1.684   2.000   3.718
11426TIP3    H234220   1.644   1.910   3.603
11427TIP3   OH234221   0.067   7.427   1.215
11427TIP3    H134222   0.131   7.415   1.145
11427TIP3    H234223   0.112   7.480   1.280
11428TIP3   OH234224   6.660   2.233   0.154
11428TIP3    H134225   6.684   2.163   0.215
11428TIP3    H234226   6.740   2.249   0.104
11429TIP3   OH234227   7.997   0.709   2.118
11429TIP3    H134228   8.072   0.759   2.086
11429TIP3    H234229   7.923   0.769   2.110
11430TIP3   OH234230   4.754   4.189   3.414
11430TIP3    H134231   4.794   4.272   3.387
11430TIP3    H234232   4.828   4.128   3.422
11431TIP3   OH234233   8.358   5.249   6.554
11431TIP3    H134234   8.349   5.174   6.612
11431TIP3    H234235   8.416   5.218   6.484
11432TIP3   OH234236   3.375   2.570   2.248
11432TIP3    H134237   3.467   2.586   2.231
11432TIP3    H234238   3.366   2.575   2.343
11433TIP3   OH234239   7.405   6.264   6.193
11433TIP3    H134240   7.418   6.355   6.220
11433TIP3    H234241   7.493   6.226   6.197
11434TIP3   OH234242   6.618   6.949   1.346
11434TIP3    H134243   6.648   7.016   1.407
11434TIP3    H234244   6.657   6.867   1.379
11435TIP3   OH234245   7.565   5.614   1.828
11435TIP3    H134246   7.517   5.621   1.910
11435TIP3    H234247   7.603   5.701   1.814
11436TIP3   OH234248   4.153   7.225   1.732
11436TIP3    H134249   4.116   7.299   1.781
11436TIP3    H234250   4.189   7.167   1.799
11437TIP3   OH234251   2.099   2.648   4.932
11437TIP3    H134252   2.188   2.640   4.897
11437TIP3    H234253   2.109   2.705   5.009
11438TIP3   OH234254   3.546   3.805   3.010
11438TIP3    H134255   3.491   3.729   3.032
11438TIP3    H234256   3.548   3.857   3.090
11439TIP3   OH234257   2.552   3.779   2.807
11439TIP3    H134258   2.518   3.726   2.879
11439TIP3    H234259   2.612   3.840   2.848
11440TIP3   OH234260   0.251   4.303   2.657
11440TIP3    H134261   0.324   4.279   2.714
11440TIP3    H234262   0.270   4.392   2.629
11441TIP3   OH234263   5.206   4.481   4.550
11441TIP3    H134264   5.137   4.488   4.484
11441TIP3    H234265   5.168   4.426   4.619
11442TIP3   OH234266   6.685   3.847   3.732
11442TIP3    H134267   6.628   3.866   3.658
11442TIP3    H234268   6.773   3.870   3.702
11443TIP3   OH234269   4.019   2.380   1.683
11443TIP3    H134270   4.064   2.331   1.752
11443TIP3    H234271   3.993   2.314   1.619
11444TIP3   OH234272   6.867   3.732   4.430
11444TIP3    H134273   6.774   3.734   4.405
11444TIP3    H234274   6.865   3.718   4.525
11445TIP3   OH234275   7.269   5.168   2.610
11445TIP3    H134276   7.272   5.201   2.520
11445TIP3    H234277   7.243   5.244   2.662
11446TIP3   OH234278   7.643   4.063   0.952
11446TIP3    H134279   7.611   4.145   0.990
11446TIP3    H234280   7.729   4.049   0.992
11447TIP3   OH234281   1.828   4.688   0.923
11447TIP3    H134282   1.763   4.635   0.877
11447TIP3    H234283   1.870   4.740   0.855
11448TIP3   OH234284   6.100   7.684   4.694
11448TIP3    H134285   6.142   7.701   4.779
11448TIP3    H234286   6.019   7.638   4.716
11449TIP3   OH234287  -0.007   0.622   5.155
11449TIP3    H134288  -0.019   0.589   5.244
11449TIP3    H234289   0.088   0.621   5.141
11450TIP3   OH234290   3.912   5.626   2.443
11450TIP3    H134291   3.899   5.682   2.520
11450TIP3    H234292   3.829   5.579   2.434
11451TIP3   OH234293   7.853   2.545   1.326
11451TIP3    H134294   7.760   2.567   1.324
11451TIP3    H234295   7.893   2.615   1.378
11452TIP3   OH234296   5.942   5.824   0.717
11452TIP3    H134297   5.995   5.745   0.722
11452TIP3    H234298   5.964   5.873   0.797
11453TIP3   OH234299   7.878   5.408   3.346
11453TIP3    H134300   7.932   5.379   3.273
11453TIP3    H234301   7.915   5.363   3.422
11454TIP3   OH234302   2.883   0.486   5.939
11454TIP3    H134303   2.936   0.565   5.946
11454TIP3    H234304   2.939   0.423   5.895
11455TIP3   OH234305   5.074   5.638   6.661
11455TIP3    H134306   5.059   5.698   6.734
11455TIP3    H234307   5.165   5.610   6.672
11456TIP3   OH234308   4.542   2.742   3.869
11456TIP3    H134309   4.540   2.678   3.940
11456TIP3    H234310   4.470   2.802   3.888
11457TIP3   OH234311   1.974   3.714   4.221
11457TIP3    H134312   1.997   3.752   4.305
11457TIP3    H234313   2.049   3.658   4.199
11458TIP3   OH234314   0.192   5.422   5.358
11458TIP3    H134315   0.171   5.453   5.270
11458TIP3    H234316   0.283   5.394   5.352
11459TIP3   OH234317   2.137   3.749   3.431
11459TIP3    H134318   2.075   3.800   3.483
11459TIP3    H234319   2.140   3.664   3.474
11460TIP3   OH234320   5.597   6.345   5.441
11460TIP3    H134321   5.504   6.369   5.444
11460TIP3    H234322   5.635   6.389   5.518
11461TIP3   OH234323   4.837   0.004   4.520
11461TIP3    H134324   4.784   0.070   4.565
11461TIP3    H234325   4.798  -0.001   4.433
11462TIP3   OH234326   0.059   3.636   0.836
11462TIP3    H134327   0.006   3.557   0.848
11462TIP3    H234328   0.134   3.622   0.895
11463TIP3   OH234329   7.921   3.359   2.108
11463TIP3    H134330   7.920   3.445   2.151
11463TIP3    H234331   7.874   3.373   2.026
11464TIP3   OH234332   0.670   5.169   3.533
11464TIP3    H134333   0.577   5.169   3.557
11464TIP3    H234334   0.674   5.118   3.453
11465TIP3   OH234335   5.103   3.698   4.855
11465TIP3    H134336   5.062   3.759   4.916
11465TIP3    H234337   5.118   3.751   4.776
11466TIP3   OH234338   7.017   0.257   2.110
11466TIP3    H134339   6.942   0.305   2.074
11466TIP3    H234340   7.084   0.324   2.123
11467TIP3   OH234341   3.304   2.173   0.698
11467TIP3    H134342   3.373   2.239   0.693
11467TIP3    H234343   3.338   2.099   0.646
11468TIP3   OH234344   7.229   3.953   6.765
11468TIP3    H134345   7.149   3.998   6.737
11468TIP3    H234346   7.240   3.881   6.704
11469TIP3   OH234347   1.144   0.316   2.724
11469TIP3    H134348   1.183   0.275   2.801
11469TIP3    H234349   1.199   0.286   2.651
11470TIP3   OH234350   4.777   6.897   6.232
11470TIP3    H134351   4.691   6.857   6.223
11470TIP3    H234352   4.835   6.824   6.254
11471TIP3   OH234353   1.310   5.344   4.036
11471TIP3    H134354   1.294   5.320   4.127
11471TIP3    H234355   1.385   5.291   4.010
11472TIP3   OH234356   5.160   3.556   0.883
11472TIP3    H134357   5.191   3.466   0.897
11472TIP3    H234358   5.083   3.547   0.828
11473TIP3   OH234359   5.131   6.053   5.157
11473TIP3    H134360   5.054   6.077   5.208
11473TIP3    H234361   5.168   5.977   5.202
11474TIP3   OH234362   7.903   3.414   5.950
11474TIP3    H134363   7.966   3.381   6.014
11474TIP3    H234364   7.851   3.478   6.000
11475TIP3   OH234365   4.802   5.977   0.280
11475TIP3    H134366   4.825   5.885   0.272
11475TIP3    H234367   4.717   5.985   0.237
11476TIP3   OH234368   5.810   7.205   1.124
11476TIP3    H134369   5.830   7.133   1.064
11476TIP3    H234370   5.716   7.219   1.114
11477TIP3   OH234371   4.842   6.319   0.945
11477TIP3    H134372   4.899   6.328   1.021
11477TIP3    H234373   4.754   6.318   0.981
11478TIP3   OH234374   4.821   1.446   0.109
11478TIP3    H134375   4.749   1.384   0.120
11478TIP3    H234376   4.824   1.494   0.192
11479TIP3   OH234377   1.855   3.033   6.499
11479TIP3    H134378   1.908   3.027   6.579
11479TIP3    H234379   1.819   3.122   6.502
11480TIP3   OH234380   1.499   3.202   0.196
11480TIP3    H134381   1.573   3.194   0.256
11480TIP3    H234382   1.504   3.292   0.164
11481TIP3   OH234383   7.084   7.408   1.002
11481TIP3    H134384   7.153   7.471   1.021
11481TIP3    H234385   7.015   7.428   1.066
11482TIP3   OH234386   1.036   0.115   3.382
11482TIP3    H134387   1.094   0.100   3.457
11482TIP3    H234388   0.989   0.195   3.404
11483TIP3   OH234389   2.320   2.842   2.986
11483TIP3    H134390   2.279   2.838   3.072
11483TIP3    H234391   2.413   2.849   3.004
11484TIP3   OH234392   5.502   7.609   3.236
11484TIP3    H134393   5.480   7.556   3.313
11484TIP3    H234394   5.514   7.545   3.166
11485TIP3   OH234395   0.726   2.309   5.251
11485TIP3    H134396   0.730   2.256   5.331
11485TIP3    H234397   0.772   2.390   5.273
11486TIP3   OH234398   1.014   0.945   5.290
11486TIP3    H134399   0.972   0.873   5.243
11486TIP3    H234400   1.088   0.904   5.336
11487TIP3   OH234401   8.264   7.324   6.496
11487TIP3    H134402   8.177   7.305   6.530
11487TIP3    H234403   8.303   7.239   6.477
11488TIP3   OH234404   2.538   3.297   2.902
11488TIP3    H134405   2.559   3.263   2.988
11488TIP3    H234406   2.572   3.387   2.902
11489TIP3   OH234407   4.164   1.031   5.914
11489TIP3    H134408   4.074   0.997   5.911
11489TIP3    H234409   4.154   1.125   5.929
11490TIP3   OH234410   1.520   4.344   4.218
11490TIP3    H134411   1.475   4.260   4.206
11490TIP3    H234412   1.567   4.334   4.301
11491TIP3   OH234413   4.586   4.925   4.908
11491TIP3    H134414   4.637   4.857   4.865
11491TIP3    H234415   4.597   4.908   5.001
11492TIP3   OH234416   8.276   3.391   5.636
11492TIP3    H134417   8.258   3.475   5.678
11492TIP3    H234418   8.243   3.401   5.547
11493TIP3   OH234419   7.645   2.831   3.997
11493TIP3    H134420   7.582   2.761   3.982
11493TIP3    H234421   7.730   2.790   3.979
11494TIP3   OH234422   6.524   4.600   0.405
11494TIP3    H134423   6.476   4.604   0.323
11494TIP3    H234424   6.610   4.567   0.380
11495TIP3   OH234425   5.482   2.655   1.234
11495TIP3    H134426   5.546   2.692   1.295
11495TIP3    H234427   5.438   2.732   1.197
11496TIP3   OH234428   2.500   6.551   4.047
11496TIP3    H134429   2.585   6.523   4.012
11496TIP3    H234430   2.499   6.518   4.137
11497TIP3   OH234431   8.168   7.190   3.590
11497TIP3    H134432   8.229   7.118   3.573
11497TIP3    H234433   8.094   7.171   3.532
11498TIP3   OH234434   0.798   4.108   1.458
11498TIP3    H134435   0.815   4.014   1.452
11498TIP3    H234436   0.866   4.141   1.518
11499TIP3   OH234437   0.190   6.648   1.169
11499TIP3    H134438   0.103   6.610   1.163
11499TIP3    H234439   0.203   6.667   1.262
11500TIP3   OH234440   8.372   1.730   4.444
11500TIP3    H134441   8.290   1.758   4.485
11500TIP3    H234442   8.359   1.743   4.351
11501TIP3   OH234443   6.282   6.625   5.410
11501TIP3    H134444   6.290   6.616   5.316
11501TIP3    H234445   6.359   6.674   5.437
11502TIP3   OH234446   0.729   6.139   5.390
11502TIP3    H134447   0.787   6.150   5.465
11502TIP3    H234448   0.707   6.228   5.363
11503TIP3   OH234449   7.797   2.854   5.496
11503TIP3    H134450   7.799   2.828   5.588
11503TIP3    H234451   7.820   2.774   5.447
11504TIP3   OH234452   3.312   7.781   5.983
11504TIP3    H134453   3.376   7.850   5.965
11504TIP3    H234454   3.358   7.700   5.960
11505TIP3   OH234455   3.533   2.944   0.431
11505TIP3    H134456   3.583   2.872   0.392
11505TIP3    H234457   3.493   2.989   0.356
11506TIP3   OH234458   0.804   6.122   2.494
11506TIP3    H134459   0.719   6.137   2.452
11506TIP3    H234460   0.794   6.040   2.542
11507TIP3   OH234461   5.585   0.337   3.652
11507TIP3    H134462   5.610   0.302   3.566
11507TIP3    H234463   5.572   0.260   3.707
11508TIP3   OH234464   0.362   5.171   1.600
11508TIP3    H134465   0.393   5.173   1.509
11508TIP3    H234466   0.336   5.080   1.614
11509TIP3   OH234467   5.308   0.085  -0.013
11509TIP3    H134468   5.308   0.180  -0.003
11509TIP3    H234469   5.216   0.060  -0.008
11510TIP3   OH234470   2.380   0.915   0.591
11510TIP3    H134471   2.454   0.974   0.577
11510TIP3    H234472   2.371   0.867   0.509
11511TIP3   OH234473   6.591   3.099   3.209
11511TIP3    H134474   6.538   3.145   3.144
11511TIP3    H234475   6.528   3.050   3.261
11512TIP3   OH234476   2.226   7.815   2.489
11512TIP3    H134477   2.304   7.869   2.499
11512TIP3    H234478   2.157   7.877   2.464
11513TIP3   OH234479   3.395   4.095   5.043
11513TIP3    H134480   3.490   4.090   5.048
11513TIP3    H234481   3.377   4.176   4.994
11514TIP3   OH234482   2.393   5.086   1.971
11514TIP3    H134483   2.320   5.120   1.919
11514TIP3    H234484   2.389   4.991   1.959
11515TIP3   OH234485   0.758   4.358   2.068
11515TIP3    H134486   0.842   4.403   2.053
11515TIP3    H234487   0.692   4.419   2.035
11516TIP3   OH234488   6.426   7.464   1.284
11516TIP3    H134489   6.381   7.469   1.368
11516TIP3    H234490   6.405   7.377   1.250
11517TIP3   OH234491   4.868   2.890   3.437
11517TIP3    H134492   4.832   2.936   3.513
11517TIP3    H234493   4.941   2.839   3.473
11518TIP3   OH234494   5.029   0.175   0.353
11518TIP3    H134495   5.103   0.116   0.344
11518TIP3    H234496   4.952   0.120   0.339
11519TIP3   OH234497   3.704   6.627   4.261
11519TIP3    H134498   3.782   6.584   4.227
11519TIP3    H234499   3.646   6.636   4.185
11520TIP3   OH234500   6.039   6.194   2.617
11520TIP3    H134501   6.053   6.264   2.681
11520TIP3    H234502   6.104   6.128   2.641
11521TIP3   OH234503   5.658   2.859   5.780
11521TIP3    H134504   5.699   2.944   5.764
11521TIP3    H234505   5.581   2.858   5.724
11522TIP3   OH234506   7.003   6.815   2.314
11522TIP3    H134507   7.091   6.778   2.314
11522TIP3    H234508   6.952   6.756   2.259
11523TIP3   OH234509   1.575   0.448   1.130
11523TIP3    H134510   1.643   0.485   1.186
11523TIP3    H234511   1.546   0.522   1.076
11524TIP3   OH234512   4.864   6.250   2.810
11524TIP3    H134513   4.780   6.213   2.782
11524TIP3    H234514   4.855   6.262   2.904
11525TIP3   OH234515   2.268   4.131   1.629
11525TIP3    H134516   2.253   4.114   1.722
11525TIP3    H234517   2.207   4.202   1.608
11526TIP3   OH234518   5.265   6.381   1.827
11526TIP3    H134519   5.236   6.470   1.843
11526TIP3    H234520   5.332   6.364   1.894
11527TIP3   OH234521   5.644   7.893   6.365
11527TIP3    H134522   5.650   7.804   6.331
11527TIP3    H234523   5.551   7.906   6.384
11528TIP3   OH234524   5.528   3.853   4.925
11528TIP3    H134525   5.622   3.836   4.927
11528TIP3    H234526   5.489   3.780   4.973
11529TIP3   OH234527   2.940   0.769   4.447
11529TIP3    H134528   2.967   0.851   4.490
11529TIP3    H234529   3.007   0.706   4.473
11530TIP3   OH234530   4.726   6.435   2.215
11530TIP3    H134531   4.664   6.507   2.206
11530TIP3    H234532   4.790   6.465   2.279
11531TIP3   OH234533   3.724   0.376   2.766
11531TIP3    H134534   3.741   0.367   2.672
11531TIP3    H234535   3.644   0.427   2.771
11532TIP3   OH234536   5.982   4.431   4.195
11532TIP3    H134537   5.960   4.346   4.234
11532TIP3    H234538   5.912   4.448   4.133
11533TIP3   OH234539   1.827   1.636   1.964
11533TIP3    H134540   1.807   1.542   1.957
11533TIP3    H234541   1.755   1.673   2.014
11534TIP3   OH234542   1.593   2.905   2.396
11534TIP3    H134543   1.599   2.813   2.418
11534TIP3    H234544   1.558   2.947   2.475
11535TIP3   OH234545   5.707   2.327   4.578
11535TIP3    H134546   5.728   2.241   4.613
11535TIP3    H234547   5.626   2.315   4.528
11536TIP3   OH234548   1.096   3.753   6.744
11536TIP3    H134549   1.059   3.693   6.679
11536TIP3    H234550   1.183   3.719   6.762
11537TIP3   OH234551   7.612   0.562   2.266
11537TIP3    H134552   7.626   0.630   2.200
11537TIP3    H234553   7.641   0.603   2.348
11538TIP3   OH234554   6.427   6.143   3.368
11538TIP3    H134555   6.427   6.120   3.461
11538TIP3    H234556   6.336   6.131   3.340
11539TIP3   OH234557   4.518   4.892   6.295
11539TIP3    H134558   4.460   4.915   6.367
11539TIP3    H234559   4.534   4.976   6.251
11540TIP3   OH234560   3.198   1.726   1.289
11540TIP3    H134561   3.206   1.732   1.194
11540TIP3    H234562   3.139   1.799   1.312
11541TIP3   OH234563   7.082   6.458   1.824
11541TIP3    H134564   7.106   6.537   1.776
11541TIP3    H234565   7.127   6.466   1.908
11542TIP3   OH234566   1.698   2.278   6.784
11542TIP3    H134567   1.760   2.206   6.769
11542TIP3    H234568   1.753   2.355   6.798
11543TIP3   OH234569   1.524   3.487   0.928
11543TIP3    H134570   1.540   3.406   0.976
11543TIP3    H234571   1.431   3.483   0.905
11544TIP3   OH234572   7.707   2.786   4.368
11544TIP3    H134573   7.718   2.735   4.449
11544TIP3    H234574   7.784   2.764   4.316
11545TIP3   OH234575   7.503   3.115   2.247
11545TIP3    H134576   7.441   3.061   2.196
11545TIP3    H234577   7.582   3.117   2.194
11546TIP3   OH234578   1.761   7.004   2.725
11546TIP3    H134579   1.766   6.908   2.722
11546TIP3    H234580   1.794   7.027   2.812
11547TIP3   OH234581   7.129   1.674   3.512
11547TIP3    H134582   7.155   1.763   3.487
11547TIP3    H234583   7.205   1.639   3.558
11548TIP3   OH234584   1.178   4.285   5.931
11548TIP3    H134585   1.241   4.250   5.868
11548TIP3    H234586   1.099   4.301   5.879
11549TIP3   OH234587   0.424   7.614   5.108
11549TIP3    H134588   0.452   7.620   5.199
11549TIP3    H234589   0.493   7.660   5.059
11550TIP3   OH234590   2.153   0.570   3.366
11550TIP3    H134591   2.106   0.651   3.344
11550TIP3    H234592   2.245   0.592   3.355
11551TIP3   OH234593   4.192   2.737   5.052
11551TIP3    H134594   4.221   2.721   4.962
11551TIP3    H234595   4.268   2.777   5.095
11552TIP3   OH234596   7.313   4.001   3.143
11552TIP3    H134597   7.250   4.048   3.088
11552TIP3    H234598   7.389   4.059   3.146
11553TIP3   OH234599   7.648   4.032   6.237
11553TIP3    H134600   7.585   4.103   6.248
11553TIP3    H234601   7.644   3.984   6.320
11554TIP3   OH234602   2.966   2.695   3.600
11554TIP3    H134603   2.977   2.782   3.561
11554TIP3    H234604   3.052   2.675   3.637
11555TIP3   OH234605   7.239   4.903   5.403
11555TIP3    H134606   7.314   4.859   5.444
11555TIP3    H234607   7.167   4.840   5.411
11556TIP3   OH234608   3.992   7.812   4.349
11556TIP3    H134609   4.015   7.886   4.406
11556TIP3    H234610   3.900   7.827   4.328
11557TIP3   OH234611   5.518   7.031   0.041
11557TIP3    H134612   5.577   6.965   0.078
11557TIP3    H234613   5.470   6.984  -0.027
11558TIP3   OH234614   1.276   4.522   0.125
11558TIP3    H134615   1.319   4.511   0.040
11558TIP3    H234616   1.258   4.616   0.131
11559TIP3   OH234617   3.152   0.237   2.047
11559TIP3    H134618   3.101   0.209   1.970
11559TIP3    H234619   3.157   0.160   2.103
11560TIP3   OH234620   3.751   7.246   0.513
11560TIP3    H134621   3.748   7.236   0.418
11560TIP3    H234622   3.750   7.156   0.547
11561TIP3   OH234623   6.968   2.434   4.643
11561TIP3    H134624   7.031   2.382   4.693
11561TIP3    H234625   6.902   2.460   4.707
11562TIP3   OH234626   8.283   1.633   5.228
11562TIP3    H134627   8.293   1.538   5.233
11562TIP3    H234628   8.367   1.668   5.257
11563TIP3   OH234629   7.797   7.118   2.617
11563TIP3    H134630   7.781   7.111   2.711
11563TIP3    H234631   7.880   7.074   2.603
11564TIP3   OH234632   7.753   7.316   3.545
11564TIP3    H134633   7.803   7.387   3.587
11564TIP3    H234634   7.815   7.278   3.482
11565TIP3   OH234635   2.493   3.952   1.655
11565TIP3    H134636   2.423   4.012   1.627
11565TIP3    H234637   2.555   3.953   1.582
11566TIP3   OH234638   1.797   3.892   1.069
11566TIP3    H134639   1.828   3.980   1.046
11566TIP3    H234640   1.870   3.835   1.044
11567TIP3   OH234641   4.185   3.826   3.477
11567TIP3    H134642   4.199   3.916   3.506
11567TIP3    H234643   4.120   3.833   3.407
11568TIP3   OH234644   6.795   4.117   6.281
11568TIP3    H134645   6.758   4.189   6.332
11568TIP3    H234646   6.719   4.065   6.254
11569TIP3   OH234647   4.954   0.128   3.021
11569TIP3    H134648   4.913   0.197   3.074
11569TIP3    H234649   5.047   0.134   3.043
11570TIP3   OH234650   5.453   6.092   3.081
11570TIP3    H134651   5.370   6.058   3.115
11570TIP3    H234652   5.520   6.055   3.138
11571TIP3   OH234653   6.372   7.824   3.442
11571TIP3    H134654   6.419   7.741   3.433
11571TIP3    H234655   6.366   7.858   3.353
11572TIP3   OH234656   0.023   2.127   3.257
11572TIP3    H134657  -0.010   2.100   3.342
11572TIP3    H234658   0.119   2.121   3.266
11573TIP3   OH234659   1.089   1.101   6.851
11573TIP3    H134660   0.996   1.101   6.871
11573TIP3    H234661   1.108   1.011   6.824
11574TIP3   OH234662   7.511   4.279   0.337
11574TIP3    H134663   7.579   4.343   0.360
11574TIP3    H234664   7.443   4.291   0.403
11575TIP3   OH234665   6.144   5.312   5.862
11575TIP3    H134666   6.112   5.285   5.776
11575TIP3    H234667   6.145   5.231   5.913
11576TIP3   OH234668   4.674   6.507   5.868
11576TIP3    H134669   4.628   6.511   5.784
11576TIP3    H234670   4.767   6.510   5.845
11577TIP3   OH234671   8.356   4.143   4.883
11577TIP3    H134672   8.340   4.050   4.901
11577TIP3    H234673   8.423   4.169   4.945
11578TIP3   OH234674   1.927   3.299   4.487
11578TIP3    H134675   1.873   3.340   4.554
11578TIP3    H234676   1.976   3.232   4.533
11579TIP3   OH234677   0.404   1.565   3.919
11579TIP3    H134678   0.498   1.585   3.928
11579TIP3    H234679   0.380   1.603   3.834
11580TIP3   OH234680   5.392   6.273   4.099
11580TIP3    H134681   5.408   6.367   4.091
11580TIP3    H234682   5.296   6.265   4.098
11581TIP3   OH234683   1.730   5.155   1.495
11581TIP3    H134684   1.745   5.242   1.531
11581TIP3    H234685   1.672   5.171   1.420
11582TIP3   OH234686   6.062   0.544   5.648
11582TIP3    H134687   6.015   0.627   5.640
11582TIP3    H234688   6.002   0.479   5.612
11583TIP3   OH234689   5.531   0.466   1.121
11583TIP3    H134690   5.450   0.415   1.125
11583TIP3    H234691   5.547   0.493   1.211
11584TIP3   OH234692   5.820   4.057   6.059
11584TIP3    H134693   5.847   3.977   6.104
11584TIP3    H234694   5.811   4.031   5.967
11585TIP3   OH234695   1.889   2.483   5.694
11585TIP3    H134696   1.846   2.417   5.640
11585TIP3    H234697   1.843   2.480   5.778
11586TIP3   OH234698   2.490   1.723   1.895
11586TIP3    H134699   2.584   1.703   1.896
11586TIP3    H234700   2.449   1.644   1.929
11587TIP3   OH234701   1.304   0.641   6.536
11587TIP3    H134702   1.255   0.579   6.481
11587TIP3    H234703   1.322   0.593   6.617
11588TIP3   OH234704   7.561   1.967   1.481
11588TIP3    H134705   7.588   1.916   1.557
11588TIP3    H234706   7.605   2.051   1.492
11589TIP3   OH234707   4.661   4.471   0.919
11589TIP3    H134708   4.570   4.453   0.894
11589TIP3    H234709   4.691   4.536   0.856
11590TIP3   OH234710   2.283   2.901   4.124
11590TIP3    H134711   2.308   2.836   4.059
11590TIP3    H234712   2.364   2.949   4.143
11591TIP3   OH234713   7.093   3.420   4.205
11591TIP3    H134714   7.058   3.362   4.273
11591TIP3    H234715   7.019   3.435   4.146
11592TIP3   OH234716   2.297   4.376   6.324
11592TIP3    H134717   2.263   4.458   6.360
11592TIP3    H234718   2.229   4.346   6.264
11593TIP3   OH234719   1.354   2.086   6.255
11593TIP3    H134720   1.320   2.041   6.177
11593TIP3    H234721   1.309   2.043   6.328
11594TIP3   OH234722   3.275   3.568   1.346
11594TIP3    H134723   3.360   3.532   1.373
11594TIP3    H234724   3.211   3.505   1.380
11595TIP3   OH234725   0.644   2.226   2.465
11595TIP3    H134726   0.632   2.173   2.544
11595TIP3    H234727   0.616   2.314   2.489
11596TIP3   OH234728   2.442   1.815   0.182
11596TIP3    H134729   2.485   1.760   0.117
11596TIP3    H234730   2.481   1.902   0.170
11597TIP3   OH234731   5.749   1.906   6.709
11597TIP3    H134732   5.784   1.839   6.651
11597TIP3    H234733   5.665   1.871   6.739
11598TIP3   OH234734   0.194   4.209   6.276
11598TIP3    H134735   0.217   4.140   6.338
11598TIP3    H234736   0.189   4.164   6.191
11599TIP3   OH234737   4.627   3.696   2.971
11599TIP3    H134738   4.659   3.615   2.931
11599TIP3    H234739   4.596   3.748   2.897
11600TIP3   OH234740   2.819   7.140   0.848
11600TIP3    H134741   2.873   7.067   0.818
11600TIP3    H234742   2.756   7.099   0.908
11601TIP3   OH234743   2.858   1.325   1.060
11601TIP3    H134744   2.794   1.379   1.015
11601TIP3    H234745   2.828   1.324   1.151
11602TIP3   OH234746   7.736   2.823   3.606
11602TIP3    H134747   7.768   2.852   3.520
11602TIP3    H234748   7.692   2.901   3.642
11603TIP3   OH234749   0.758   4.142   2.590
11603TIP3    H134750   0.764   4.192   2.508
11603TIP3    H234751   0.723   4.205   2.653
11604TIP3   OH234752   1.827   7.758   6.279
11604TIP3    H134753   1.812   7.733   6.188
11604TIP3    H234754   1.840   7.675   6.325
11605TIP3   OH234755   5.665   4.803   1.217
11605TIP3    H134756   5.726   4.730   1.225
11605TIP3    H234757   5.602   4.775   1.150
11606TIP3   OH234758   3.420   5.575   1.577
11606TIP3    H134759   3.364   5.567   1.500
11606TIP3    H234760   3.379   5.520   1.643
11607TIP3   OH234761   5.535   2.768   2.901
11607TIP3    H134762   5.477   2.703   2.940
11607TIP3    H234763   5.596   2.791   2.971
11608TIP3   OH234764   1.230   1.229   1.311
11608TIP3    H134765   1.297   1.257   1.373
11608TIP3    H234766   1.279   1.185   1.241
11609TIP3   OH234767   7.760   6.191   4.355
11609TIP3    H134768   7.732   6.260   4.416
11609TIP3    H234769   7.685   6.181   4.296
11610TIP3   OH234770   2.232   5.244   1.227
11610TIP3    H134771   2.157   5.276   1.277
11610TIP3    H234772   2.204   5.159   1.193
11611TIP3   OH234773   5.609   2.615   6.541
11611TIP3    H134774   5.697   2.601   6.505
11611TIP3    H234775   5.566   2.672   6.477
11612TIP3   OH234776   8.334   0.829   3.669
11612TIP3    H134777   8.277   0.761   3.704
11612TIP3    H234778   8.319   0.826   3.574
11613TIP3   OH234779   4.145   2.515   1.946
11613TIP3    H134780   4.077   2.582   1.935
11613TIP3    H234781   4.113   2.460   2.017
11614TIP3   OH234782   5.202   0.595   4.433
11614TIP3    H134783   5.139   0.562   4.370
11614TIP3    H234784   5.235   0.516   4.477
11615TIP3   OH234785   3.953   0.191   2.615
11615TIP3    H134786   3.938   0.221   2.705
11615TIP3    H234787   4.037   0.229   2.590
11616TIP3   OH234788   4.487   1.674   4.780
11616TIP3    H134789   4.539   1.734   4.833
11616TIP3    H234790   4.547   1.646   4.711
11617TIP3   OH234791   2.422   7.857   5.668
11617TIP3    H134792   2.422   7.825   5.758
11617TIP3    H234793   2.329   7.871   5.648
11618TIP3   OH234794   4.784   3.480   0.323
11618TIP3    H134795   4.735   3.555   0.356
11618TIP3    H234796   4.855   3.519   0.272
11619TIP3   OH234797   7.717   0.606   0.402
11619TIP3    H134798   7.648   0.566   0.350
11619TIP3    H234799   7.699   0.700   0.397
11620TIP3   OH234800   3.543   2.418   6.782
11620TIP3    H134801   3.508   2.338   6.820
11620TIP3    H234802   3.475   2.448   6.722
11621TIP3   OH234803   5.609   5.570   2.832
11621TIP3    H134804   5.513   5.578   2.833
11621TIP3    H234805   5.627   5.522   2.751
11622TIP3   OH234806   0.220   0.018   2.004
11622TIP3    H134807   0.197   0.090   1.946
11622TIP3    H234808   0.171  -0.057   1.971
11623TIP3   OH234809   4.741   5.382   3.393
11623TIP3    H134810   4.674   5.331   3.348
11623TIP3    H234811   4.749   5.341   3.479
11624TIP3   OH234812   5.429   7.700   2.766
11624TIP3    H134813   5.504   7.722   2.712
11624TIP3    H234814   5.461   7.632   2.826
11625TIP3   OH234815   7.319   2.073   5.017
11625TIP3    H134816   7.378   2.081   4.943
11625TIP3    H234817   7.287   2.162   5.031
11626TIP3   OH234818   0.328   5.878   1.150
11626TIP3    H134819   0.255   5.821   1.175
11626TIP3    H234820   0.326   5.879   1.054
11627TIP3   OH234821   4.536   0.454   6.840
11627TIP3    H134822   4.531   0.494   6.927
11627TIP3    H234823   4.583   0.519   6.787
11628TIP3   OH234824   2.194   4.561   2.734
11628TIP3    H134825   2.253   4.488   2.749
11628TIP3    H234826   2.117   4.522   2.692
11629TIP3   OH234827   3.118   0.984   0.698
11629TIP3    H134828   3.035   1.010   0.738
11629TIP3    H234829   3.145   1.060   0.646
11630TIP3   OH234830   6.416   4.009   3.255
11630TIP3    H134831   6.400   4.088   3.203
11630TIP3    H234832   6.379   3.938   3.202
11631TIP3   OH234833   7.453   2.887   0.840
11631TIP3    H134834   7.471   2.960   0.899
11631TIP3    H234835   7.397   2.923   0.772
11632TIP3   OH234836   3.269   2.938   1.894
11632TIP3    H134837   3.299   2.923   1.984
11632TIP3    H234838   3.249   2.851   1.861
11633TIP3   OH234839   0.908   7.472   2.881
11633TIP3    H134840   0.901   7.566   2.870
11633TIP3    H234841   0.856   7.435   2.810
11634TIP3   OH234842   4.690   2.907   3.664
11634TIP3    H134843   4.667   2.998   3.684
11634TIP3    H234844   4.632   2.855   3.718
11635TIP3   OH234845   0.430   5.806   6.232
11635TIP3    H134846   0.455   5.803   6.325
11635TIP3    H234847   0.458   5.893   6.203
11636TIP3   OH234848   3.967   4.130   5.840
11636TIP3    H134849   3.911   4.148   5.915
11636TIP3    H234850   4.035   4.197   5.844
11637TIP3   OH234851   0.557   0.265   0.355
11637TIP3    H134852   0.580   0.208   0.281
11637TIP3    H234853   0.625   0.332   0.356
11638TIP3   OH234854   1.673   3.705   0.856
11638TIP3    H134855   1.601   3.766   0.870
11638TIP3    H234856   1.639   3.620   0.885
11639TIP3   OH234857   6.292   7.571   3.688
11639TIP3    H134858   6.198   7.586   3.699
11639TIP3    H234859   6.323   7.643   3.634
11640TIP3   OH234860   0.711   4.149   1.888
11640TIP3    H134861   0.707   4.074   1.948
11640TIP3    H234862   0.716   4.226   1.946
11641TIP3   OH234863   1.629   0.896   6.376
11641TIP3    H134864   1.685   0.878   6.301
11641TIP3    H234865   1.672   0.968   6.422
11642TIP3   OH234866   2.852   3.655   4.054
11642TIP3    H134867   2.861   3.682   4.146
11642TIP3    H234868   2.940   3.627   4.029
11643TIP3   OH234869   5.516   7.245   0.205
11643TIP3    H134870   5.530   7.184   0.133
11643TIP3    H234871   5.530   7.193   0.284
11644TIP3   OH234872   0.846   3.186   2.857
11644TIP3    H134873   0.846   3.120   2.788
11644TIP3    H234874   0.781   3.250   2.829
11645TIP3   OH234875   5.815   5.871   0.246
11645TIP3    H134876   5.790   5.937   0.182
11645TIP3    H234877   5.821   5.789   0.196
11646TIP3   OH234878   4.388   5.374   5.949
11646TIP3    H134879   4.375   5.383   5.855
11646TIP3    H234880   4.479   5.399   5.963
11647TIP3   OH234881   0.897   6.008   2.256
11647TIP3    H134882   0.910   6.073   2.187
11647TIP3    H234883   0.867   6.058   2.332
11648TIP3   OH234884   0.719   0.947   0.460
11648TIP3    H134885   0.770   0.966   0.539
11648TIP3    H234886   0.736   1.022   0.403
11649TIP3   OH234887   2.674   4.678   2.622
11649TIP3    H134888   2.588   4.654   2.586
11649TIP3    H234889   2.682   4.622   2.700
11650TIP3   OH234890   6.279   0.488   5.413
11650TIP3    H134891   6.226   0.432   5.469
11650TIP3    H234892   6.297   0.434   5.336
11651TIP3   OH234893   4.871   1.462   0.691
11651TIP3    H134894   4.966   1.459   0.703
11651TIP3    H234895   4.842   1.372   0.706
11652TIP3   OH234896   0.885   4.154   4.510
11652TIP3    H134897   0.880   4.118   4.421
11652TIP3    H234898   0.946   4.227   4.503
11653TIP3   OH234899   6.869   0.049   2.576
11653TIP3    H134900   6.915   0.120   2.531
11653TIP3    H234901   6.862  -0.021   2.511
11654TIP3   OH234902   2.958   5.663   5.977
11654TIP3    H134903   2.920   5.750   5.964
11654TIP3    H234904   2.999   5.667   6.064
11655TIP3   OH234905   6.519   4.788   1.433
11655TIP3    H134906   6.431   4.809   1.401
11655TIP3    H234907   6.575   4.855   1.394
11656TIP3   OH234908   0.396   4.619   5.859
11656TIP3    H134909   0.356   4.618   5.772
11656TIP3    H234910   0.324   4.597   5.918
11657TIP3   OH234911   4.618   1.790   0.269
11657TIP3    H134912   4.558   1.772   0.341
11657TIP3    H234913   4.676   1.713   0.267
11658TIP3   OH234914   8.217   3.696   6.816
11658TIP3    H134915   8.258   3.776   6.782
11658TIP3    H234916   8.289   3.650   6.858
11659TIP3   OH234917   4.106   5.496   3.484
11659TIP3    H134918   4.107   5.413   3.531
11659TIP3    H234919   4.060   5.556   3.542
11660TIP3   OH234920   4.500   0.798   1.184
11660TIP3    H134921   4.503   0.869   1.119
11660TIP3    H234922   4.565   0.735   1.154
11661TIP3   OH234923   7.483   7.929   6.397
11661TIP3    H134924   7.490   8.011   6.349
11661TIP3    H234925   7.444   7.867   6.336
11662TIP3   OH234926   2.017   4.303   1.513
11662TIP3    H134927   2.008   4.377   1.453
11662TIP3    H234928   1.957   4.237   1.478
11663TIP3   OH234929   6.302   6.273   6.591
11663TIP3    H134930   6.252   6.335   6.538
11663TIP3    H234931   6.374   6.325   6.628
11664TIP3   OH234932   2.895   1.690   5.513
11664TIP3    H134933   2.987   1.670   5.531
11664TIP3    H234934   2.897   1.758   5.447
11665TIP3   OH234935   0.725   6.470   2.328
11665TIP3    H134936   0.661   6.523   2.279
11665TIP3    H234937   0.809   6.495   2.290
11666TIP3   OH234938   7.494   3.814   4.926
11666TIP3    H134939   7.422   3.754   4.907
11666TIP3    H234940   7.515   3.853   4.842
11667TIP3   OH234941   4.082   2.940   0.635
11667TIP3    H134942   4.108   3.031   0.643
11667TIP3    H234943   4.120   2.910   0.553
11668TIP3   OH234944   8.168   1.562   6.602
11668TIP3    H134945   8.175   1.641   6.549
11668TIP3    H234946   8.084   1.570   6.648
11669TIP3   OH234947   4.671   2.344   5.898
11669TIP3    H134948   4.708   2.256   5.893
11669TIP3    H234949   4.734   2.400   5.852
11670TIP3   OH234950   0.911   4.181   1.721
11670TIP3    H134951   0.841   4.158   1.782
11670TIP3    H234952   0.960   4.250   1.765
11671TIP3   OH234953   5.259   5.826   0.798
11671TIP3    H134954   5.218   5.865   0.875
11671TIP3    H234955   5.330   5.772   0.833
11672TIP3   OH234956   0.771   6.875   2.200
11672TIP3    H134957   0.859   6.870   2.238
11672TIP3    H234958   0.724   6.935   2.258
11673TIP3   OH234959   7.853   6.016   6.664
11673TIP3    H134960   7.887   5.943   6.613
11673TIP3    H234961   7.923   6.082   6.663
11674TIP3   OH234962   7.392   5.179   0.621
11674TIP3    H134963   7.371   5.242   0.689
11674TIP3    H234964   7.342   5.100   0.644
11675TIP3   OH234965   3.236   5.765   3.153
11675TIP3    H134966   3.306   5.810   3.200
11675TIP3    H234967   3.159   5.820   3.165
11676TIP3   OH234968   6.564   6.924   0.518
11676TIP3    H134969   6.563   6.945   0.425
11676TIP3    H234970   6.551   7.008   0.562
11677TIP3   OH234971   5.540   6.953   1.127
11677TIP3    H134972   5.582   6.908   1.054
11677TIP3    H234973   5.518   7.040   1.093
11678TIP3   OH234974   7.565   0.807   4.885
11678TIP3    H134975   7.544   0.753   4.809
11678TIP3    H234976   7.660   0.817   4.882
11679TIP3   OH234977   3.773   1.321   1.018
11679TIP3    H134978   3.824   1.308   0.938
11679TIP3    H234979   3.727   1.238   1.031
11680TIP3   OH234980   3.308   5.970   1.719
11680TIP3    H134981   3.271   6.021   1.791
11680TIP3    H234982   3.360   5.903   1.762
11681TIP3   OH234983   5.968   7.253   1.703
11681TIP3    H134984   5.933   7.203   1.777
11681TIP3    H234985   6.040   7.199   1.670
11682TIP3   OH234986   3.599   1.224   1.445
11682TIP3    H134987   3.620   1.176   1.364
11682TIP3    H234988   3.683   1.231   1.491
11683TIP3   OH234989   8.053   1.921   4.815
11683TIP3    H134990   8.051   1.903   4.721
11683TIP3    H234991   8.107   1.850   4.852
11684TIP3   OH234992   4.976   0.682   5.399
11684TIP3    H134993   4.935   0.768   5.396
11684TIP3    H234994   4.934   0.638   5.473
11685TIP3   OH234995   1.723   1.141   6.460
11685TIP3    H134996   1.790   1.164   6.525
11685TIP3    H234997   1.762   1.167   6.376
11686TIP3   OH234998   2.231   6.451   6.431
11686TIP3    H134999   2.146   6.422   6.464
11686TIP3    H235000   2.232   6.425   6.339
11687TIP3   OH235001   0.397   5.163   3.597
11687TIP3    H135002   0.407   5.085   3.543
11687TIP3    H235003   0.309   5.155   3.634
11688TIP3   OH235004   7.903   0.436   3.964
11688TIP3    H135005   7.904   0.342   3.950
11688TIP3    H235006   7.862   0.472   3.885
11689TIP3   OH235007   0.406   6.719   0.811
11689TIP3    H135008   0.311   6.703   0.817
11689TIP3    H235009   0.443   6.631   0.800
11690TIP3   OH235010   8.131   0.868   6.504
11690TIP3    H135011   8.223   0.883   6.482
11690TIP3    H235012   8.116   0.776   6.481
11691TIP3   OH235013   1.089   1.747   3.267
11691TIP3    H135014   1.182   1.772   3.272
11691TIP3    H235015   1.053   1.803   3.198
11692TIP3   OH235016   5.463   7.624   4.008
11692TIP3    H135017   5.491   7.548   4.060
11692TIP3    H235018   5.402   7.671   4.066
11693TIP3   OH235019   8.128   4.262   5.014
11693TIP3    H135020   8.170   4.207   4.948
11693TIP3    H235021   8.174   4.346   5.008
11694TIP3   OH235022   1.648   3.252   1.156
11694TIP3    H135023   1.726   3.307   1.155
11694TIP3    H235024   1.679   3.165   1.130
11695TIP3   OH235025   5.937   5.861   5.475
11695TIP3    H135026   5.868   5.798   5.455
11695TIP3    H235027   5.891   5.934   5.518
11696TIP3   OH235028   1.850   1.266   1.057
11696TIP3    H135029   1.759   1.294   1.053
11696TIP3    H235030   1.898   1.332   1.007
11697TIP3   OH235031   4.137   2.332   2.940
11697TIP3    H135032   4.107   2.325   2.850
11697TIP3    H235033   4.229   2.355   2.934
11698TIP3   OH235034   0.572   5.769   3.787
11698TIP3    H135035   0.502   5.806   3.842
11698TIP3    H235036   0.653   5.795   3.831
11699TIP3   OH235037   5.447   1.164   2.633
11699TIP3    H135038   5.410   1.251   2.646
11699TIP3    H235039   5.444   1.150   2.538
11700TIP3   OH235040   1.075   0.742   4.775
11700TIP3    H135041   1.055   0.708   4.688
11700TIP3    H235042   1.117   0.827   4.759
11701TIP3   OH235043   2.563   5.195   4.756
11701TIP3    H135044   2.612   5.274   4.731
11701TIP3    H235045   2.609   5.160   4.832
11702TIP3   OH235046   7.012   4.618   0.374
11702TIP3    H135047   7.055   4.673   0.440
11702TIP3    H235048   7.046   4.530   0.391
11703TIP3   OH235049   5.831   2.569   2.226
11703TIP3    H135050   5.756   2.531   2.180
11703TIP3    H235051   5.806   2.568   2.318
11704TIP3   OH235052   1.881   2.992   5.134
11704TIP3    H135053   1.884   3.078   5.177
11704TIP3    H235054   1.822   3.004   5.060
11705TIP3   OH235055   7.743   5.230   5.417
11705TIP3    H135056   7.692   5.169   5.471
11705TIP3    H235057   7.692   5.240   5.337
11706TIP3   OH235058   4.521   0.785   0.244
11706TIP3    H135059   4.466   0.853   0.283
11706TIP3    H235060   4.478   0.703   0.267
11707TIP3   OH235061   7.186   6.613   0.089
11707TIP3    H135062   7.200   6.585  -0.001
11707TIP3    H235063   7.173   6.532   0.139
11708TIP3   OH235064   1.235   3.224   1.639
11708TIP3    H135065   1.213   3.140   1.598
11708TIP3    H235066   1.313   3.206   1.692
11709TIP3   OH235067   3.867   3.055   6.439
11709TIP3    H135068   3.909   2.987   6.386
11709TIP3    H235069   3.916   3.135   6.420
11710TIP3   OH235070   3.885   4.768   1.532
11710TIP3    H135071   3.869   4.828   1.459
11710TIP3    H235072   3.811   4.783   1.591
11711TIP3   OH235073   1.357   7.449   0.481
11711TIP3    H135074   1.434   7.493   0.518
11711TIP3    H235075   1.330   7.387   0.549
11712TIP3   OH235076   3.220   6.335   5.232
11712TIP3    H135077   3.132   6.371   5.222
11712TIP3    H235078   3.221   6.258   5.174
11713TIP3   OH235079   5.164   4.094   2.770
11713TIP3    H135080   5.238   4.084   2.830
11713TIP3    H235081   5.197   4.063   2.686
11714TIP3   OH235082   1.664   0.241   5.057
11714TIP3    H135083   1.635   0.332   5.066
11714TIP3    H235084   1.606   0.204   4.991
11715TIP3   OH235085   7.028   4.069   0.878
11715TIP3    H135086   6.936   4.044   0.891
11715TIP3    H235087   7.028   4.118   0.796
11716TIP3   OH235088   4.308   5.018   0.599
11716TIP3    H135089   4.363   4.940   0.590
11716TIP3    H235090   4.293   5.047   0.509
11717TIP3   OH235091   0.166   3.093   1.738
11717TIP3    H135092   0.130   3.151   1.671
11717TIP3    H235093   0.151   3.139   1.820
11718TIP3   OH235094   1.799   1.564   2.890
11718TIP3    H135095   1.760   1.528   2.970
11718TIP3    H235096   1.727   1.613   2.849
11719TIP3   OH235097   5.263   1.754   1.237
11719TIP3    H135098   5.268   1.777   1.330
11719TIP3    H235099   5.283   1.835   1.191
11720TIP3   OH235100   7.954   2.197   4.385
11720TIP3    H135101   7.888   2.252   4.343
11720TIP3    H235102   8.015   2.175   4.314
11721TIP3   OH235103   0.635   1.635   3.363
11721TIP3    H135104   0.580   1.558   3.346
11721TIP3    H235105   0.623   1.653   3.456
11722TIP3   OH235106   5.615   5.492   6.611
11722TIP3    H135107   5.605   5.584   6.588
11722TIP3    H235108   5.644   5.494   6.702
11723TIP3   OH235109   2.332   4.636   4.767
11723TIP3    H135110   2.322   4.631   4.862
11723TIP3    H235111   2.417   4.595   4.750
11724TIP3   OH235112   2.535   4.459   5.420
11724TIP3    H135113   2.609   4.439   5.478
11724TIP3    H235114   2.493   4.536   5.460
11725TIP3   OH235115   5.913   2.376   5.378
11725TIP3    H135116   5.874   2.463   5.368
11725TIP3    H235117   5.992   2.391   5.430
11726TIP3   OH235118   5.426   3.189   4.390
11726TIP3    H135119   5.420   3.094   4.379
11726TIP3    H235120   5.352   3.223   4.342
11727TIP3   OH235121   1.501   7.702   4.175
11727TIP3    H135122   1.572   7.638   4.169
11727TIP3    H235123   1.449   7.689   4.096
11728TIP3   OH235124   3.793   4.700   6.336
11728TIP3    H135125   3.793   4.663   6.247
11728TIP3    H235126   3.884   4.694   6.364
11729TIP3   OH235127   0.309   2.693   0.941
11729TIP3    H135128   0.218   2.689   0.971
11729TIP3    H235129   0.312   2.771   0.885
11730TIP3   OH235130   8.056   3.738   1.090
11730TIP3    H135131   8.141   3.779   1.074
11730TIP3    H235132   8.037   3.692   1.008
11731TIP3   OH235133   0.227   0.816   0.909
11731TIP3    H135134   0.301   0.840   0.966
11731TIP3    H235135   0.203   0.728   0.936
11732TIP3   OH235136   4.431   7.378   4.766
11732TIP3    H135137   4.368   7.307   4.763
11732TIP3    H235138   4.406   7.436   4.695
11733TIP3   OH235139   5.031   3.612   5.632
11733TIP3    H135140   5.090   3.611   5.707
11733TIP3    H235141   4.984   3.529   5.638
11734TIP3   OH235142   3.213   3.995   2.740
11734TIP3    H135143   3.142   4.017   2.679
11734TIP3    H235144   3.289   3.982   2.684
11735TIP3   OH235145   2.592   1.632   6.334
11735TIP3    H135146   2.600   1.577   6.412
11735TIP3    H235147   2.648   1.707   6.353
11736TIP3   OH235148   4.965   5.375   4.792
11736TIP3    H135149   4.894   5.362   4.855
11736TIP3    H235150   4.925   5.425   4.721
11737TIP3   OH235151   1.952   7.854   2.734
11737TIP3    H135152   1.955   7.933   2.680
11737TIP3    H235153   2.021   7.867   2.800
11738TIP3   OH235154   4.165   5.774   4.062
11738TIP3    H135155   4.211   5.818   3.990
11738TIP3    H235156   4.112   5.708   4.020
11739TIP3   OH235157   4.852   6.523   0.246
11739TIP3    H135158   4.807   6.447   0.211
11739TIP3    H235159   4.903   6.556   0.172
11740TIP3   OH235160   4.087   0.227   6.485
11740TIP3    H135161   4.101   0.317   6.458
11740TIP3    H235162   4.013   0.231   6.545
11741TIP3   OH235163   3.984   4.263   0.668
11741TIP3    H135164   3.940   4.345   0.646
11741TIP3    H235165   4.054   4.256   0.604
11742TIP3   OH235166   7.281   2.522   3.285
11742TIP3    H135167   7.327   2.444   3.316
11742TIP3    H235168   7.207   2.532   3.345
11743TIP3   OH235169   7.562   4.204   3.964
11743TIP3    H135170   7.506   4.244   4.030
11743TIP3    H235171   7.634   4.165   4.014
11744TIP3   OH235172   2.190   5.191   4.964
11744TIP3    H135173   2.245   5.175   5.041
11744TIP3    H235174   2.133   5.263   4.990
11745TIP3   OH235175   5.786   6.926   1.253
11745TIP3    H135176   5.696   6.943   1.228
11745TIP3    H235177   5.790   6.831   1.265
11746TIP3   OH235178   3.883   0.108   3.107
11746TIP3    H135179   3.804   0.056   3.091
11746TIP3    H235180   3.872   0.142   3.196
11747TIP3   OH235181   7.383   0.334   1.069
11747TIP3    H135182   7.417   0.303   1.153
11747TIP3    H235183   7.290   0.348   1.084
11748TIP3   OH235184   3.293   1.392   0.356
11748TIP3    H135185   3.242   1.335   0.414
11748TIP3    H235186   3.295   1.476   0.401
11749TIP3   OH235187   6.973   3.893   5.958
11749TIP3    H135188   7.005   3.958   5.896
11749TIP3    H235189   6.878   3.896   5.950
11750TIP3   OH235190   0.786   5.399   1.848
11750TIP3    H135191   0.767   5.379   1.940
11750TIP3    H235192   0.701   5.396   1.805
11751TIP3   OH235193   3.871   1.756   5.590
11751TIP3    H135194   3.868   1.729   5.682
11751TIP3    H235195   3.799   1.818   5.581
11752TIP3   OH235196   2.322   0.542   3.050
11752TIP3    H135197   2.359   0.628   3.066
11752TIP3    H235198   2.231   0.559   3.025
11753TIP3   OH235199   3.310   7.499   5.949
11753TIP3    H135200   3.268   7.480   5.866
11753TIP3    H235201   3.319   7.414   5.992
11754TIP3   OH235202   3.456   0.405   4.498
11754TIP3    H135203   3.365   0.377   4.493
11754TIP3    H235204   3.493   0.354   4.570
11755TIP3   OH235205   0.336   0.657   3.804
11755TIP3    H135206   0.338   0.722   3.875
11755TIP3    H235207   0.428   0.645   3.781
11756TIP3   OH235208   1.097   7.404   2.464
11756TIP3    H135209   1.007   7.434   2.478
11756TIP3    H235210   1.135   7.404   2.551
11757TIP3   OH235211   5.671   0.926   6.380
11757TIP3    H135212   5.666   0.868   6.456
11757TIP3    H235213   5.724   1.000   6.410
11758TIP3   OH235214   1.477   7.082   1.116
11758TIP3    H135215   1.416   7.128   1.173
11758TIP3    H235216   1.563   7.114   1.142
11759TIP3   OH235217   2.670   5.440   4.742
11759TIP3    H135218   2.718   5.497   4.802
11759TIP3    H235219   2.657   5.493   4.664
11760TIP3   OH235220   1.811   7.018   3.863
11760TIP3    H135221   1.743   7.047   3.923
11760TIP3    H235222   1.879   7.084   3.870
11761TIP3   OH235223   5.497   3.115   2.354
11761TIP3    H135224   5.517   3.115   2.447
11761TIP3    H235225   5.579   3.092   2.311
11762TIP3   OH235226   0.638   4.029   2.359
11762TIP3    H135227   0.677   4.115   2.372
11762TIP3    H235228   0.586   4.013   2.439
11763TIP3   OH235229   5.407   1.100   5.957
11763TIP3    H135230   5.411   1.083   6.051
11763TIP3    H235231   5.396   1.195   5.950
11764TIP3   OH235232   0.203   3.656   4.754
11764TIP3    H135233   0.202   3.751   4.755
11764TIP3    H235234   0.135   3.632   4.691
11765TIP3   OH235235   7.690   6.011   3.869
11765TIP3    H135236   7.616   5.958   3.898
11765TIP3    H235237   7.764   5.979   3.920
11766TIP3   OH235238   8.159   4.712   4.012
11766TIP3    H135239   8.229   4.654   4.044
11766TIP3    H235240   8.078   4.673   4.045
11767TIP3   OH235241   4.317   4.976   5.938
11767TIP3    H135242   4.261   4.900   5.922
11767TIP3    H235243   4.294   5.005   6.026
11768TIP3   OH235244   8.267   2.079   6.467
11768TIP3    H135245   8.331   2.007   6.467
11768TIP3    H235246   8.305   2.145   6.409
11769TIP3   OH235247   6.467   1.801   1.562
11769TIP3    H135248   6.503   1.837   1.643
11769TIP3    H235249   6.380   1.840   1.555
11770TIP3   OH235250   4.017   5.766   3.014
11770TIP3    H135251   4.038   5.763   2.921
11770TIP3    H235252   4.066   5.693   3.052
11771TIP3   OH235253   3.513   5.642   2.110
11771TIP3    H135254   3.498   5.728   2.149
11771TIP3    H235255   3.518   5.583   2.185
11772TIP3   OH235256   5.512   3.782   5.300
11772TIP3    H135257   5.554   3.717   5.244
11772TIP3    H235258   5.564   3.862   5.288
11773TIP3   OH235259   3.390   1.499   4.946
11773TIP3    H135260   3.313   1.483   4.891
11773TIP3    H235261   3.356   1.502   5.035
11774TIP3   OH235262   1.719   4.783   4.941
11774TIP3    H135263   1.724   4.833   4.860
11774TIP3    H235264   1.700   4.693   4.913
11775TIP3   OH235265   1.223   5.774   0.690
11775TIP3    H135266   1.151   5.747   0.747
11775TIP3    H235267   1.196   5.748   0.602
11776TIP3   OH235268   7.998   7.371   0.902
11776TIP3    H135269   7.952   7.423   0.969
11776TIP3    H235270   8.091   7.381   0.925
11777TIP3   OH235271   0.063   0.323   2.639
11777TIP3    H135272   0.073   0.228   2.630
11777TIP3    H235273   0.071   0.339   2.733
11778TIP3   OH235274   0.708   7.213   0.950
11778TIP3    H135275   0.691   7.125   0.982
11778TIP3    H235276   0.657   7.220   0.869
11779TIP3   OH235277   7.258   4.561   1.993
11779TIP3    H135278   7.271   4.466   2.003
11779TIP3    H235279   7.270   4.596   2.081
11780TIP3   OH235280   4.341   0.206   2.999
11780TIP3    H135281   4.276   0.136   3.005
11780TIP3    H235282   4.294   0.285   3.024
11781TIP3   OH235283   6.772   0.939   3.983
11781TIP3    H135284   6.734   0.933   4.071
11781TIP3    H235285   6.734   0.865   3.936
11782TIP3   OH235286   7.130   7.468   1.481
11782TIP3    H135287   7.045   7.469   1.525
11782TIP3    H235288   7.108   7.470   1.387
11783TIP3   OH235289   3.844   5.651   3.230
11783TIP3    H135290   3.939   5.651   3.222
11783TIP3    H235291   3.816   5.722   3.172
11784TIP3   OH235292   5.089   0.917   1.080
11784TIP3    H135293   5.132   1.002   1.081
11784TIP3    H235294   5.074   0.896   1.172
11785TIP3   OH235295   3.734   1.400   3.752
11785TIP3    H135296   3.654   1.431   3.709
11785TIP3    H235297   3.785   1.480   3.767
11786TIP3   OH235298   0.326   2.490   0.748
11786TIP3    H135299   0.311   2.575   0.790
11786TIP3    H235300   0.368   2.437   0.816
11787TIP3   OH235301   0.753   6.408   6.559
11787TIP3    H135302   0.673   6.426   6.607
11787TIP3    H235303   0.820   6.394   6.626
11788TIP3   OH235304   3.124   6.388   4.609
11788TIP3    H135305   3.143   6.346   4.693
11788TIP3    H235306   3.202   6.440   4.590
11789TIP3   OH235307   8.125   2.681   6.206
11789TIP3    H135308   8.063   2.612   6.182
11789TIP3    H235309   8.104   2.754   6.148
11790TIP3   OH235310   6.693   4.228   2.079
11790TIP3    H135311   6.753   4.277   2.024
11790TIP3    H235312   6.616   4.284   2.086
11791TIP3   OH235313   0.970   1.004   0.100
11791TIP3    H135314   0.931   0.928   0.059
11791TIP3    H235315   0.959   1.074   0.036
11792TIP3   OH235316   2.845   5.906   6.006
11792TIP3    H135317   2.848   5.949   6.091
11792TIP3    H235318   2.883   5.970   5.946
11793TIP3   OH235319   1.244   3.849   5.445
11793TIP3    H135320   1.327   3.863   5.400
11793TIP3    H235321   1.198   3.785   5.391
11794TIP3   OH235322   3.396   0.253   0.321
11794TIP3    H135323   3.449   0.286   0.394
11794TIP3    H235324   3.354   0.331   0.285
11795TIP3   OH235325   7.623   3.978   0.283
11795TIP3    H135326   7.716   3.975   0.260
11795TIP3    H235327   7.606   4.070   0.301
11796TIP3   OH235328   0.280   2.357   5.276
11796TIP3    H135329   0.279   2.425   5.344
11796TIP3    H235330   0.279   2.405   5.193
11797TIP3   OH235331   4.671   0.698   4.301
11797TIP3    H135332   4.639   0.626   4.247
11797TIP3    H235333   4.593   0.751   4.318
11798TIP3   OH235334   3.661   4.553   1.751
11798TIP3    H135335   3.746   4.546   1.707
11798TIP3    H235336   3.660   4.479   1.813
11799TIP3   OH235337   8.126   3.538   3.190
11799TIP3    H135338   8.161   3.561   3.104
11799TIP3    H235339   8.124   3.621   3.238
11800TIP3   OH235340   2.080   5.422   1.594
11800TIP3    H135341   1.989   5.397   1.584
11800TIP3    H235342   2.093   5.491   1.528
11801TIP3   OH235343   1.375   3.084   4.762
11801TIP3    H135344   1.461   3.106   4.726
11801TIP3    H235345   1.382   2.992   4.787
11802TIP3   OH235346   6.424   0.084   1.142
11802TIP3    H135347   6.486   0.013   1.129
11802TIP3    H235348   6.353   0.046   1.193
11803TIP3   OH235349   7.162   0.580   5.703
11803TIP3    H135350   7.198   0.662   5.737
11803TIP3    H235351   7.121   0.604   5.620
11804TIP3   OH235352   6.088   7.708   1.519
11804TIP3    H135353   5.997   7.738   1.520
11804TIP3    H235354   6.140   7.788   1.511
11805TIP3   OH235355   5.425   5.819   4.795
11805TIP3    H135356   5.434   5.832   4.700
11805TIP3    H235357   5.406   5.725   4.805
11806TIP3   OH235358   5.927   2.534   2.813
11806TIP3    H135359   5.998   2.489   2.858
11806TIP3    H235360   5.855   2.470   2.811
11807TIP3   OH235361   4.767   1.850   2.156
11807TIP3    H135362   4.770   1.929   2.209
11807TIP3    H235363   4.699   1.867   2.091
11808TIP3   OH235364   1.505   6.765   5.773
11808TIP3    H135365   1.520   6.759   5.867
11808TIP3    H235366   1.441   6.697   5.755
11809TIP3   OH235367   5.707   6.600   5.133
11809TIP3    H135368   5.687   6.507   5.136
11809TIP3    H235369   5.673   6.629   5.047
11810TIP3   OH235370   3.103   3.004   5.867
11810TIP3    H135371   3.040   2.960   5.925
11810TIP3    H235372   3.127   3.084   5.914
11811TIP3   OH235373   2.710   5.078   2.847
11811TIP3    H135374   2.615   5.076   2.833
11811TIP3    H235375   2.736   5.167   2.823
11812TIP3   OH235376   2.061   1.608   1.597
11812TIP3    H135377   2.077   1.525   1.551
11812TIP3    H235378   2.062   1.585   1.690
11813TIP3   OH235379   5.164   3.365   5.406
11813TIP3    H135380   5.123   3.361   5.320
11813TIP3    H235381   5.245   3.414   5.391
11814TIP3   OH235382   6.861   7.768   1.933
11814TIP3    H135383   6.814   7.785   2.015
11814TIP3    H235384   6.824   7.830   1.871
11815TIP3   OH235385   2.112   3.895   5.992
11815TIP3    H135386   2.053   3.847   6.049
11815TIP3    H235387   2.198   3.887   6.032
11816TIP3   OH235388   1.451   4.480   5.708
11816TIP3    H135389   1.522   4.449   5.652
11816TIP3    H235390   1.465   4.438   5.792
11817TIP3   OH235391   3.484   1.912   1.436
11817TIP3    H135392   3.547   1.902   1.364
11817TIP3    H235393   3.409   1.956   1.396
11818TIP3   OH235394   6.149   7.625   5.386
11818TIP3    H135395   6.077   7.687   5.385
11818TIP3    H235396   6.118   7.554   5.443
11819TIP3   OH235397   2.858   6.475   2.168
11819TIP3    H135398   2.818   6.484   2.254
11819TIP3    H235399   2.928   6.540   2.166
11820TIP3   OH235400   1.621   6.269   4.180
11820TIP3    H135401   1.699   6.223   4.210
11820TIP3    H235402   1.581   6.209   4.117
11821TIP3   OH235403   5.643   5.067   2.450
11821TIP3    H135404   5.692   5.072   2.531
11821TIP3    H235405   5.694   5.007   2.395
11822TIP3   OH235406   7.591   0.253   5.515
11822TIP3    H135407   7.669   0.239   5.460
11822TIP3    H235408   7.570   0.345   5.505
11823TIP3   OH235409   4.104  -0.014   2.690
11823TIP3    H135410   4.056   0.058   2.648
11823TIP3    H235411   4.195   0.017   2.693
11824TIP3   OH235412   0.219   7.474   3.445
11824TIP3    H135413   0.208   7.385   3.477
11824TIP3    H235414   0.156   7.481   3.373
11825TIP3   OH235415   5.754   0.757   5.094
11825TIP3    H135416   5.808   0.809   5.035
11825TIP3    H235417   5.790   0.773   5.181
11826TIP3   OH235418   2.556   7.552   4.553
11826TIP3    H135419   2.537   7.574   4.462
11826TIP3    H235420   2.586   7.634   4.592
11827TIP3   OH235421   5.866   2.566   4.603
11827TIP3    H135422   5.849   2.543   4.695
11827TIP3    H235423   5.851   2.484   4.555
11828TIP3   OH235424   1.318   1.310   3.834
11828TIP3    H135425   1.369   1.350   3.905
11828TIP3    H235426   1.382   1.294   3.765
11829TIP3   OH235427   3.053   0.205   0.712
11829TIP3    H135428   3.111   0.134   0.740
11829TIP3    H235429   2.970   0.162   0.692
11830TIP3   OH235430   6.595   5.565   5.712
11830TIP3    H135431   6.643   5.499   5.663
11830TIP3    H235432   6.662   5.608   5.765
11831TIP3   OH235433   5.299   3.172   6.507
11831TIP3    H135434   5.221   3.144   6.556
11831TIP3    H235435   5.267   3.189   6.419
11832TIP3   OH235436   4.535   6.837   0.095
11832TIP3    H135437   4.477   6.773   0.136
11832TIP3    H235438   4.479   6.912   0.074
11833TIP3   OH235439   6.602   3.347   0.246
11833TIP3    H135440   6.658   3.271   0.232
11833TIP3    H235441   6.656   3.406   0.300
11834TIP3   OH235442   3.759   7.063   5.102
11834TIP3    H135443   3.745   7.041   5.194
11834TIP3    H235444   3.724   7.151   5.093
11835TIP3   OH235445   4.970   0.727   3.188
11835TIP3    H135446   5.036   0.734   3.257
11835TIP3    H235447   4.999   0.654   3.134
11836TIP3   OH235448   4.773   2.645   2.064
11836TIP3    H135449   4.702   2.588   2.094
11836TIP3    H235450   4.798   2.694   2.142
11837TIP3   OH235451   4.521   5.181   2.945
11837TIP3    H135452   4.592   5.163   2.884
11837TIP3    H235453   4.443   5.147   2.901
11838TIP3   OH235454   7.623   5.420   5.824
11838TIP3    H135455   7.708   5.384   5.799
11838TIP3    H235456   7.578   5.348   5.868
11839TIP3   OH235457   8.084   2.143  -0.032
11839TIP3    H135458   7.992   2.152  -0.009
11839TIP3    H235459   8.096   2.050  -0.049
11840TIP3   OH235460   2.274   4.380   1.048
11840TIP3    H135461   2.291   4.339   1.133
11840TIP3    H235462   2.181   4.363   1.032
11841TIP3   OH235463   4.907   5.584   3.601
11841TIP3    H135464   4.974   5.545   3.544
11841TIP3    H235465   4.867   5.653   3.548
11842TIP3   OH235466   6.088   4.802   1.071
11842TIP3    H135467   6.000   4.795   1.106
11842TIP3    H235468   6.092   4.890   1.032
11843TIP3   OH235469   0.482   7.750   3.927
11843TIP3    H135470   0.549   7.740   3.994
11843TIP3    H235471   0.506   7.830   3.880
11844TIP3   OH235472   2.827   5.892   6.564
11844TIP3    H135473   2.823   5.876   6.469
11844TIP3    H235474   2.908   5.848   6.591
11845TIP3   OH235475   0.689   1.030   5.084
11845TIP3    H135476   0.647   0.947   5.062
11845TIP3    H235477   0.781   1.017   5.063
11846TIP3   OH235478   3.584   3.252   5.905
11846TIP3    H135479   3.540   3.302   5.974
11846TIP3    H235480   3.513   3.214   5.853
11847TIP3   OH235481   3.575   2.223   6.500
11847TIP3    H135482   3.611   2.166   6.432
11847TIP3    H235483   3.641   2.291   6.513
11848TIP3   OH235484   1.279   7.678   6.775
11848TIP3    H135485   1.249   7.588   6.756
11848TIP3    H235486   1.350   7.693   6.712
11849TIP3   OH235487   3.206   5.785   0.717
11849TIP3    H135488   3.113   5.791   0.696
11849TIP3    H235489   3.251   5.793   0.633
11850TIP3   OH235490   1.358   2.049   5.331
11850TIP3    H135491   1.322   2.137   5.341
11850TIP3    H235492   1.293   2.002   5.278
11851TIP3   OH235493   1.760   3.265   6.559
11851TIP3    H135494   1.702   3.278   6.484
11851TIP3    H235495   1.711   3.301   6.633
11852TIP3   OH235496   5.118   1.617   4.592
11852TIP3    H135497   5.090   1.587   4.506
11852TIP3    H235498   5.208   1.649   4.579
11853TIP3   OH235499   7.751   3.103   4.788
11853TIP3    H135500   7.658   3.113   4.806
11853TIP3    H235501   7.779   3.189   4.757
11854TIP3   OH235502   2.546   1.011   0.231
11854TIP3    H135503   2.602   0.993   0.156
11854TIP3    H235504   2.559   0.935   0.289
11855TIP3   OH235505   2.278   1.618   1.124
11855TIP3    H135506   2.212   1.552   1.144
11855TIP3    H235507   2.298   1.658   1.209
11856TIP3   OH235508   2.871   7.154   1.703
11856TIP3    H135509   2.899   7.182   1.790
11856TIP3    H235510   2.786   7.197   1.690
11857TIP3   OH235511   0.937   3.854   3.940
11857TIP3    H135512   1.027   3.862   3.971
11857TIP3    H235513   0.902   3.779   3.986
11858TIP3   OH235514   5.253   5.353   2.636
11858TIP3    H135515   5.215   5.375   2.721
11858TIP3    H235516   5.342   5.326   2.655
11859TIP3   OH235517   6.994   6.411   5.902
11859TIP3    H135518   7.011   6.453   5.986
11859TIP3    H235519   6.988   6.483   5.839
11860TIP3   OH235520   1.968   0.132   2.699
11860TIP3    H135521   1.958   0.048   2.745
11860TIP3    H235522   1.889   0.181   2.721
11861TIP3   OH235523   3.571   7.176   3.156
11861TIP3    H135524   3.623   7.099   3.132
11861TIP3    H235525   3.623   7.221   3.223
11862TIP3   OH235526   4.553   1.904   2.363
11862TIP3    H135527   4.592   1.821   2.389
11862TIP3    H235528   4.509   1.935   2.442
11863TIP3   OH235529   0.868   0.463   0.463
11863TIP3    H135530   0.789   0.491   0.508
11863TIP3    H235531   0.937   0.521   0.496
11864TIP3   OH235532   2.237   4.028   6.709
11864TIP3    H135533   2.276   4.067   6.631
11864TIP3    H235534   2.216   3.938   6.683
11865TIP3   OH235535   5.065   0.516   5.183
11865TIP3    H135536   4.983   0.491   5.141
11865TIP3    H235537   5.048   0.508   5.276
11866TIP3   OH235538   8.371   0.794   2.211
11866TIP3    H135539   8.324   0.867   2.172
11866TIP3    H235540   8.463   0.811   2.190
11867TIP3   OH235541   4.077   1.191   4.498
11867TIP3    H135542   4.039   1.237   4.573
11867TIP3    H235543   4.010   1.128   4.473
11868TIP3   OH235544   6.970   3.275   2.611
11868TIP3    H135545   7.006   3.240   2.529
11868TIP3    H235546   6.881   3.303   2.587
11869TIP3   OH235547   4.514   4.238   3.045
11869TIP3    H135548   4.604   4.262   3.066
11869TIP3    H235549   4.507   4.145   3.067
11870TIP3   OH235550   3.853   0.481   2.545
11870TIP3    H135551   3.907   0.441   2.476
11870TIP3    H235552   3.916   0.526   2.601
11871TIP3   OH235553   3.124   3.364   4.643
11871TIP3    H135554   3.036   3.351   4.679
11871TIP3    H235555   3.183   3.350   4.717
11872TIP3   OH235556   2.035   2.778   5.725
11872TIP3    H135557   2.123   2.808   5.746
11872TIP3    H235558   1.979   2.825   5.787
11873TIP3   OH235559   3.277   7.606   2.004
11873TIP3    H135560   3.260   7.587   1.911
11873TIP3    H235561   3.203   7.568   2.051
11874TIP3   OH235562   7.725   0.237   0.037
11874TIP3    H135563   7.694   0.176   0.104
11874TIP3    H235564   7.765   0.181  -0.030
11875TIP3   OH235565   5.622   0.662   2.903
11875TIP3    H135566   5.657   0.740   2.859
11875TIP3    H235567   5.532   0.687   2.927
11876TIP3   OH235568   7.576   4.200   5.313
11876TIP3    H135569   7.618   4.134   5.368
11876TIP3    H235570   7.532   4.150   5.245
11877TIP3   OH235571   0.547   7.344   2.348
11877TIP3    H135572   0.492   7.296   2.410
11877TIP3    H235573   0.635   7.336   2.384
11878TIP3   OH235574   0.294   6.052   4.718
11878TIP3    H135575   0.210   6.011   4.700
11878TIP3    H235576   0.359   5.986   4.694
11879TIP3   OH235577   1.258   6.837   6.823
11879TIP3    H135578   1.175   6.875   6.795
11879TIP3    H235579   1.314   6.842   6.745
11880TIP3   OH235580   0.518   1.249   5.114
11880TIP3    H135581   0.490   1.256   5.023
11880TIP3    H235582   0.573   1.171   5.116
11881TIP3   OH235583   5.153   3.826   3.580
11881TIP3    H135584   5.101   3.828   3.661
11881TIP3    H235585   5.240   3.799   3.608
11882TIP3   OH235586   5.437   6.330   5.692
11882TIP3    H135587   5.422   6.265   5.623
11882TIP3    H235588   5.532   6.339   5.696
11883TIP3   OH235589   5.130   2.621   4.038
11883TIP3    H135590   5.101   2.696   3.985
11883TIP3    H235591   5.220   2.605   4.010
11884TIP3   OH235592   0.651   4.969   2.423
11884TIP3    H135593   0.633   4.875   2.426
11884TIP3    H235594   0.569   5.008   2.391
11885TIP3   OH235595   0.485   1.386   5.783
11885TIP3    H135596   0.465   1.327   5.711
11885TIP3    H235597   0.428   1.462   5.770
11886TIP3   OH235598   3.555   2.168   1.904
11886TIP3    H135599   3.463   2.143   1.904
11886TIP3    H235600   3.591   2.129   1.824
11887TIP3   OH235601   5.010   3.221   2.652
11887TIP3    H135602   4.920   3.254   2.655
11887TIP3    H235603   5.014   3.153   2.719
11888TIP3   OH235604   0.908   7.083   3.386
11888TIP3    H135605   0.888   7.142   3.459
11888TIP3    H235606   0.952   7.139   3.322
11889TIP3   OH235607   3.645   3.586   4.675
11889TIP3    H135608   3.555   3.585   4.641
11889TIP3    H235609   3.691   3.648   4.619
11890TIP3   OH235610   5.772   0.362   3.187
11890TIP3    H135611   5.758   0.431   3.252
11890TIP3    H235612   5.710   0.383   3.117
11891TIP3   OH235613   3.166   2.289   0.937
11891TIP3    H135614   3.144   2.382   0.930
11891TIP3    H235615   3.238   2.277   0.877
11892TIP3   OH235616   4.871   5.278   0.893
11892TIP3    H135617   4.916   5.214   0.838
11892TIP3    H235618   4.787   5.237   0.914
11893TIP3   OH235619   5.912   5.826   2.291
11893TIP3    H135620   5.848   5.897   2.286
11893TIP3    H235621   5.890   5.769   2.217
11894TIP3   OH235622   7.907   7.758   6.138
11894TIP3    H135623   7.949   7.765   6.052
11894TIP3    H235624   7.844   7.686   6.128
11895TIP3   OH235625   6.534   4.555   6.312
11895TIP3    H135626   6.594   4.583   6.243
11895TIP3    H235627   6.499   4.637   6.348
11896TIP3   OH235628   5.354   1.437   2.916
11896TIP3    H135629   5.384   1.346   2.918
11896TIP3    H235630   5.394   1.477   2.993
11897TIP3   OH235631   7.695   1.279   4.205
11897TIP3    H135632   7.727   1.221   4.136
11897TIP3    H235633   7.671   1.220   4.277
11898TIP3   OH235634   7.577   4.898   0.595
11898TIP3    H135635   7.553   4.927   0.507
11898TIP3    H235636   7.634   4.968   0.628
11899TIP3   OH235637   6.716   2.692   4.410
11899TIP3    H135638   6.725   2.691   4.505
11899TIP3    H235639   6.687   2.603   4.388
11900TIP3   OH235640   2.972   3.086   1.990
11900TIP3    H135641   2.965   3.012   1.930
11900TIP3    H235642   2.961   3.048   2.077
11901TIP3   OH235643   1.978   4.912   5.440
11901TIP3    H135644   1.944   4.849   5.376
11901TIP3    H235645   1.999   4.860   5.517
11902TIP3   OH235646   1.274   5.896   0.122
11902TIP3    H135647   1.282   5.925   0.213
11902TIP3    H235648   1.230   5.968   0.077
11903TIP3   OH235649   4.228   3.093   4.608
11903TIP3    H135650   4.171   3.101   4.531
11903TIP3    H235651   4.313   3.125   4.578
11904TIP3   OH235652   7.787   5.126   1.149
11904TIP3    H135653   7.849   5.066   1.106
11904TIP3    H235654   7.819   5.132   1.239
11905TIP3   OH235655   5.840   2.553   2.525
11905TIP3    H135656   5.881   2.541   2.611
11905TIP3    H235657   5.763   2.607   2.542
11906TIP3   OH235658   2.370   3.386   3.394
11906TIP3    H135659   2.304   3.332   3.351
11906TIP3    H235660   2.419   3.324   3.448
11907TIP3   OH235661   1.825   7.358   1.555
11907TIP3    H135662   1.791   7.399   1.476
11907TIP3    H235663   1.920   7.354   1.542
11908TIP3   OH235664   6.776   3.210   3.379
11908TIP3    H135665   6.717   3.155   3.328
11908TIP3    H235666   6.762   3.184   3.470
11909TIP3   OH235667   4.458   3.593   4.108
11909TIP3    H135668   4.416   3.511   4.083
11909TIP3    H235669   4.545   3.589   4.068
11910TIP3   OH235670   8.130   2.764   6.527
11910TIP3    H135671   8.190   2.833   6.555
11910TIP3    H235672   8.058   2.767   6.590
11911TIP3   OH235673   3.527   7.486   3.301
11911TIP3    H135674   3.586   7.430   3.351
11911TIP3    H235675   3.440   7.446   3.313
11912TIP3   OH235676   7.152   6.641   5.112
11912TIP3    H135677   7.209   6.647   5.188
11912TIP3    H235678   7.073   6.689   5.137
11913TIP3   OH235679   5.283   6.697   5.375
11913TIP3    H135680   5.299   6.743   5.457
11913TIP3    H235681   5.320   6.755   5.308
11914TIP3   OH235682   7.567   4.374   3.763
11914TIP3    H135683   7.566   4.304   3.828
11914TIP3    H235684   7.658   4.377   3.732
11915TIP3   OH235685   7.587   7.255   3.344
11915TIP3    H135686   7.547   7.178   3.385
11915TIP3    H235687   7.619   7.308   3.417
11916TIP3   OH235688   5.827   1.258   0.683
11916TIP3    H135689   5.835   1.210   0.601
11916TIP3    H235690   5.832   1.191   0.752
11917TIP3   OH235691   5.912   7.715   5.479
11917TIP3    H135692   5.852   7.753   5.543
11917TIP3    H235693   5.857   7.657   5.426
11918TIP3   OH235694   3.993   5.326   2.351
11918TIP3    H135695   3.905   5.311   2.315
11918TIP3    H235696   3.980   5.326   2.446
11919TIP3   OH235697   6.767   0.512   2.991
11919TIP3    H135698   6.786   0.485   2.902
11919TIP3    H235699   6.698   0.452   3.020
11920TIP3   OH235700   5.297   3.733   5.634
11920TIP3    H135701   5.272   3.808   5.687
11920TIP3    H235702   5.214   3.696   5.604
11921TIP3   OH235703   7.505   4.925   1.561
11921TIP3    H135704   7.497   4.862   1.632
11921TIP3    H235705   7.486   5.010   1.602
11922TIP3   OH235706   8.358   4.217   3.918
11922TIP3    H135707   8.369   4.312   3.912
11922TIP3    H235708   8.286   4.197   3.858
11923TIP3   OH235709   0.156   1.713   5.844
11923TIP3    H135710   0.120   1.643   5.790
11923TIP3    H235711   0.190   1.668   5.922
11924TIP3   OH235712   1.756   2.718   6.450
11924TIP3    H135713   1.780   2.810   6.457
11924TIP3    H235714   1.779   2.681   6.535
11925TIP3   OH235715   1.438   7.637   0.103
11925TIP3    H135716   1.373   7.707   0.105
11925TIP3    H235717   1.516   7.676   0.144
11926TIP3   OH235718   3.026   4.753   6.027
11926TIP3    H135719   3.030   4.660   6.005
11926TIP3    H235720   3.023   4.755   6.123
11927TIP3   OH235721   7.719   5.457   4.290
11927TIP3    H135722   7.634   5.427   4.258
11927TIP3    H235723   7.723   5.549   4.264
11928TIP3   OH235724   3.040   3.047   4.116
11928TIP3    H135725   3.002   3.135   4.111
11928TIP3    H235726   3.017   3.016   4.203
11929TIP3   OH235727   3.915   6.446   3.363
11929TIP3    H135728   3.981   6.503   3.402
11929TIP3    H235729   3.859   6.506   3.313
11930TIP3   OH235730   2.322   6.054   6.224
11930TIP3    H135731   2.409   6.028   6.193
11930TIP3    H235732   2.276   5.971   6.238
11931TIP3   OH235733   1.204   7.874   3.517
11931TIP3    H135734   1.211   7.828   3.433
11931TIP3    H235735   1.294   7.881   3.548
11932TIP3   OH235736   0.168   4.943   1.435
11932TIP3    H135737   0.206   4.909   1.516
11932TIP3    H235738   0.073   4.931   1.447
11933TIP3   OH235739   4.286   2.754   6.200
11933TIP3    H135740   4.240   2.670   6.191
11933TIP3    H235741   4.347   2.755   6.127
11934TIP3   OH235742   7.896   1.205   4.997
11934TIP3    H135743   7.836   1.142   5.036
11934TIP3    H235744   7.941   1.246   5.071
11935TIP3   OH235745   6.769   4.475   1.811
11935TIP3    H135746   6.693   4.418   1.808
11935TIP3    H235747   6.740   4.555   1.767
11936TIP3   OH235748   5.357   6.567   2.091
11936TIP3    H135749   5.348   6.563   1.996
11936TIP3    H235750   5.311   6.647   2.116
11937TIP3   OH235751   4.360   0.221   5.802
11937TIP3    H135752   4.300   0.182   5.738
11937TIP3    H235753   4.378   0.151   5.864
11938TIP3   OH235754   3.897   7.159   4.192
11938TIP3    H135755   3.886   7.087   4.254
11938TIP3    H235756   3.977   7.202   4.219
11939TIP3   OH235757   4.539   0.342   5.659
11939TIP3    H135758   4.470   0.310   5.718
11939TIP3    H235759   4.619   0.299   5.690
11940TIP3   OH235760   3.257   5.687   2.319
11940TIP3    H135761   3.237   5.703   2.411
11940TIP3    H235762   3.307   5.605   2.319
11941TIP3   OH235763   7.919   1.172   5.962
11941TIP3    H135764   7.993   1.213   5.918
11941TIP3    H235765   7.932   1.191   6.055
11942TIP3   OH235766   5.866   7.440   3.849
11942TIP3    H135767   5.914   7.397   3.919
11942TIP3    H235768   5.798   7.378   3.824
11943TIP3   OH235769   4.368   2.257   2.521
11943TIP3    H135770   4.330   2.289   2.439
11943TIP3    H235771   4.292   2.242   2.578
11944TIP3   OH235772   0.129   0.934   1.595
11944TIP3    H135773   0.077   0.991   1.539
11944TIP3    H235774   0.085   0.849   1.592
11945TIP3   OH235775   2.725   1.248   2.006
11945TIP3    H135776   2.816   1.227   2.024
11945TIP3    H235777   2.677   1.211   2.081
11946TIP3   OH235778   6.190   6.297   5.274
11946TIP3    H135779   6.163   6.214   5.236
11946TIP3    H235780   6.109   6.340   5.299
11947TIP3   OH235781   4.336   7.873   3.503
11947TIP3    H135782   4.363   7.957   3.466
11947TIP3    H235783   4.249   7.857   3.466
11948TIP3   OH235784   5.593   0.407   2.985
11948TIP3    H135785   5.505   0.425   3.019
11948TIP3    H235786   5.621   0.490   2.947
11949TIP3   OH235787   1.546   5.182   3.367
11949TIP3    H135788   1.585   5.220   3.446
11949TIP3    H235789   1.585   5.232   3.295
11950TIP3   OH235790   0.933   0.302   2.520
11950TIP3    H135791   1.008   0.252   2.487
11950TIP3    H235792   0.945   0.303   2.615
11951TIP3   OH235793   8.105   3.906   6.358
11951TIP3    H135794   8.184   3.960   6.356
11951TIP3    H235795   8.042   3.957   6.409
11952TIP3   OH235796   5.436   6.032   6.614
11952TIP3    H135797   5.530   6.031   6.595
11952TIP3    H235798   5.417   6.123   6.636
11953TIP3   OH235799   1.646   0.767   4.764
11953TIP3    H135800   1.655   0.783   4.858
11953TIP3    H235801   1.715   0.819   4.724
11954TIP3   OH235802   2.266   4.665   4.492
11954TIP3    H135803   2.281   4.584   4.444
11954TIP3    H235804   2.297   4.647   4.580
11955TIP3   OH235805   3.292   7.187   6.796
11955TIP3    H135806   3.312   7.216   6.885
11955TIP3    H235807   3.377   7.164   6.758
11956TIP3   OH235808   1.763   2.965   2.039
11956TIP3    H135809   1.849   2.949   2.000
11956TIP3    H235810   1.740   3.053   2.010
11957TIP3   OH235811   6.563   6.750   0.069
11957TIP3    H135812   6.533   6.746   0.160
11957TIP3    H235813   6.483   6.770   0.019
11958TIP3   OH235814   2.091   2.248   2.111
11958TIP3    H135815   2.161   2.192   2.076
11958TIP3    H235816   2.137   2.311   2.167
11959TIP3   OH235817   2.374   6.375   5.424
11959TIP3    H135818   2.333   6.293   5.399
11959TIP3    H235819   2.370   6.377   5.519
11960TIP3   OH235820   0.172   6.554   0.896
11960TIP3    H135821   0.076   6.553   0.896
11960TIP3    H235822   0.195   6.568   0.988
11961TIP3   OH235823   6.874   7.886   2.287
11961TIP3    H135824   6.877   7.805   2.338
11961TIP3    H235825   6.810   7.868   2.218
11962TIP3   OH235826   5.967   7.017   4.157
11962TIP3    H135827   6.050   7.058   4.180
11962TIP3    H235828   5.992   6.938   4.108
11963TIP3   OH235829   4.050   0.113   3.815
11963TIP3    H135830   4.094   0.103   3.731
11963TIP3    H235831   4.121   0.131   3.877
11964TIP3   OH235832   1.505   2.163   1.371
11964TIP3    H135833   1.419   2.204   1.378
11964TIP3    H235834   1.490   2.072   1.394
11965TIP3   OH235835   7.888   4.960   2.765
11965TIP3    H135836   7.839   5.022   2.820
11965TIP3    H235837   7.856   4.874   2.791
11966TIP3   OH235838   2.059   6.063   2.794
11966TIP3    H135839   2.069   6.153   2.764
11966TIP3    H235840   1.965   6.054   2.810
11967TIP3   OH235841   0.056   2.218   5.396
11967TIP3    H135842   0.108   2.258   5.327
11967TIP3    H235843   0.041   2.289   5.459
11968TIP3   OH235844   7.154   1.985   3.205
11968TIP3    H135845   7.164   2.074   3.171
11968TIP3    H235846   7.237   1.942   3.186
11969TIP3   OH235847   2.966   4.006   3.536
11969TIP3    H135848   2.968   4.002   3.631
11969TIP3    H235849   3.056   3.992   3.509
11970TIP3   OH235850   1.036   4.977   2.377
11970TIP3    H135851   0.984   4.978   2.457
11970TIP3    H235852   0.992   5.039   2.319
11971TIP3   OH235853   1.257   0.778   5.335
11971TIP3    H135854   1.213   0.714   5.279
11971TIP3    H235855   1.346   0.782   5.301
11972TIP3   OH235856   3.262   7.271   1.684
11972TIP3    H135857   3.215   7.206   1.737
11972TIP3    H235858   3.327   7.219   1.636
11973TIP3   OH235859   1.108   6.025   3.762
11973TIP3    H135860   1.020   6.048   3.734
11973TIP3    H235861   1.124   5.938   3.726
11974TIP3   OH235862   3.437   2.882   3.531
11974TIP3    H135863   3.449   2.787   3.528
11974TIP3    H235864   3.518   2.917   3.494
11975TIP3   OH235865   3.735   5.975   4.117
11975TIP3    H135866   3.680   5.976   4.039
11975TIP3    H235867   3.785   5.894   4.109
11976TIP3   OH235868   0.431   3.764   2.174
11976TIP3    H135869   0.478   3.831   2.124
11976TIP3    H235870   0.379   3.717   2.108
11977TIP3   OH235871   2.180   1.400   2.768
11977TIP3    H135872   2.262   1.389   2.816
11977TIP3    H235873   2.190   1.345   2.690
11978TIP3   OH235874   3.774   5.151   2.313
11978TIP3    H135875   3.802   5.152   2.221
11978TIP3    H235876   3.808   5.068   2.347
11979TIP3   OH235877   5.900   6.168   3.892
11979TIP3    H135878   5.847   6.185   3.969
11979TIP3    H235879   5.985   6.142   3.927
11980TIP3   OH235880   2.821   2.463   0.209
11980TIP3    H135881   2.772   2.524   0.264
11980TIP3    H235882   2.909   2.499   0.205
11981TIP3   OH235883   3.392   7.643   4.157
11981TIP3    H135884   3.324   7.596   4.109
11981TIP3    H235885   3.466   7.647   4.096
11982TIP3   OH235886   0.060   2.612   2.124
11982TIP3    H135887  -0.035   2.613   2.127
11982TIP3    H235888   0.081   2.616   2.031
11983TIP3   OH235889   0.122   6.567   4.126
11983TIP3    H135890   0.113   6.659   4.153
11983TIP3    H235891   0.032   6.536   4.117
11984TIP3   OH235892   2.993   1.388   5.032
11984TIP3    H135893   2.986   1.298   5.065
11984TIP3    H235894   2.942   1.441   5.094
11985TIP3   OH235895   4.431   0.839   1.450
11985TIP3    H135896   4.418   0.751   1.486
11985TIP3    H235897   4.454   0.824   1.359
11986TIP3   OH235898   7.225   4.433   1.665
11986TIP3    H135899   7.155   4.491   1.692
11986TIP3    H235900   7.196   4.346   1.692
11987TIP3   OH235901   0.536   6.605   3.218
11987TIP3    H135902   0.518   6.651   3.136
11987TIP3    H235903   0.533   6.673   3.285
11988TIP3   OH235904   4.340   1.337   0.777
11988TIP3    H135905   4.287   1.271   0.733
11988TIP3    H235906   4.287   1.363   0.853
11989TIP3   OH235907   1.682   6.491   2.053
11989TIP3    H135908   1.663   6.508   1.961
11989TIP3    H235909   1.774   6.518   2.064
11990TIP3   OH235910   0.795   3.171   4.443
11990TIP3    H135911   0.729   3.186   4.511
11990TIP3    H235912   0.861   3.240   4.459
11991TIP3   OH235913   7.900   0.903   5.455
11991TIP3    H135914   7.822   0.911   5.510
11991TIP3    H235915   7.868   0.917   5.366
11992TIP3   OH235916   4.072   4.915   6.193
11992TIP3    H135917   4.023   4.913   6.111
11992TIP3    H235918   4.128   4.838   6.190
11993TIP3   OH235919   6.833   4.982   1.491
11993TIP3    H135920   6.755   4.998   1.437
11993TIP3    H235921   6.810   5.019   1.576
11994TIP3   OH235922   6.924   5.776   2.720
11994TIP3    H135923   6.928   5.735   2.633
11994TIP3    H235924   6.995   5.734   2.769
11995TIP3   OH235925   3.797   3.659   1.007
11995TIP3    H135926   3.706   3.670   1.036
11995TIP3    H235927   3.790   3.643   0.913
11996TIP3   OH235928   1.643   6.601   6.251
11996TIP3    H135929   1.623   6.508   6.244
11996TIP3    H235930   1.619   6.625   6.340
11997TIP3   OH235931   7.253   0.589   3.515
11997TIP3    H135932   7.269   0.584   3.609
11997TIP3    H235933   7.272   0.680   3.492
11998TIP3   OH235934   1.226   0.559   5.168
11998TIP3    H135935   1.191   0.490   5.224
11998TIP3    H235936   1.236   0.516   5.082
11999TIP3   OH235937   2.787   7.803   2.438
11999TIP3    H135938   2.873   7.793   2.480
11999TIP3    H235939   2.725   7.808   2.511
12000TIP3   OH235940   3.702   0.519   3.105
12000TIP3    H135941   3.785   0.549   3.068
12000TIP3    H235942   3.638   0.534   3.035
12001TIP3   OH235943   2.325   2.206   4.296
12001TIP3    H135944   2.321   2.194   4.391
12001TIP3    H235945   2.393   2.272   4.283
12002TIP3   OH235946   5.241   5.316   4.826
12002TIP3    H135947   5.145   5.315   4.831
12002TIP3    H235948   5.262   5.249   4.761
12003TIP3   OH235949   7.817   1.470   5.277
12003TIP3    H135950   7.891   1.485   5.218
12003TIP3    H235951   7.806   1.553   5.323
12004TIP3   OH235952   2.288   3.481   6.105
12004TIP3    H135953   2.285   3.460   6.012
12004TIP3    H235954   2.225   3.421   6.145
12005TIP3   OH235955   0.387   6.437   4.167
12005TIP3    H135956   0.436   6.479   4.238
12005TIP3    H235957   0.301   6.478   4.170
12006TIP3   OH235958   2.205   4.012   5.235
12006TIP3    H135959   2.213   4.107   5.223
12006TIP3    H235960   2.140   4.003   5.305
12007TIP3   OH235961   6.042   5.650   4.862
12007TIP3    H135962   6.123   5.670   4.815
12007TIP3    H235963   6.005   5.736   4.883
12008TIP3   OH235964   8.194   7.182   6.045
12008TIP3    H135965   8.280   7.223   6.036
12008TIP3    H235966   8.183   7.132   5.964
12009TIP3   OH235967   4.934   3.980   6.548
12009TIP3    H135968   4.955   3.902   6.598
12009TIP3    H235969   4.888   3.948   6.470
12010TIP3   OH235970   0.882   0.327   1.586
12010TIP3    H135971   0.834   0.324   1.669
12010TIP3    H235972   0.816   0.354   1.522
12011TIP3   OH235973   7.601   3.226   6.123
12011TIP3    H135974   7.640   3.190   6.043
12011TIP3    H235975   7.657   3.194   6.194
12012TIP3   OH235976   5.861   3.057   3.872
12012TIP3    H135977   5.868   3.033   3.964
12012TIP3    H235978   5.782   3.012   3.841
12013TIP3   OH235979   6.607   0.997   0.755
12013TIP3    H135980   6.529   0.944   0.740
12013TIP3    H235981   6.579   1.064   0.818
12014TIP3   OH235982   0.823   4.000   5.420
12014TIP3    H135983   0.833   3.960   5.507
12014TIP3    H235984   0.825   4.094   5.437
12015TIP3   OH235985   3.931   4.567   2.270
12015TIP3    H135986   3.991   4.641   2.265
12015TIP3    H235987   3.904   4.552   2.180
12016TIP3   OH235988   7.701   0.061   3.730
12016TIP3    H135989   7.754   0.111   3.792
12016TIP3    H235990   7.615   0.102   3.733
12017TIP3   OH235991   5.998   2.163   3.653
12017TIP3    H135992   6.023   2.191   3.741
12017TIP3    H235993   6.070   2.109   3.623
12018TIP3   OH235994   3.828   1.715   3.058
12018TIP3    H135995   3.788   1.798   3.031
12018TIP3    H235996   3.862   1.678   2.976
12019TIP3   OH235997   1.673   6.081   2.320
12019TIP3    H135998   1.620   6.138   2.264
12019TIP3    H235999   1.723   6.028   2.258
12020TIP3   OH236000   1.603   6.035   6.541
12020TIP3    H136001   1.560   6.096   6.601
12020TIP3    H236002   1.696   6.039   6.565
12021TIP3   OH236003   7.384   7.012   6.181
12021TIP3    H136004   7.450   6.945   6.198
12021TIP3    H236005   7.308   6.984   6.233
12022TIP3   OH236006   1.318   1.096   4.023
12022TIP3    H136007   1.302   1.188   4.000
12022TIP3    H236008   1.236   1.052   4.000
12023TIP3   OH236009   6.995   2.669   2.915
12023TIP3    H136010   7.073   2.712   2.878
12023TIP3    H236011   6.994   2.696   3.007
12024TIP3   OH236012   6.604   1.988   0.492
12024TIP3    H136013   6.547   1.913   0.481
12024TIP3    H236014   6.684   1.965   0.445
12025TIP3   OH236015   7.445   1.843   6.680
12025TIP3    H136016   7.434   1.762   6.729
12025TIP3    H236017   7.356   1.866   6.650
12026TIP3   OH236018   3.262   4.408   5.239
12026TIP3    H136019   3.308   4.435   5.159
12026TIP3    H236020   3.214   4.329   5.213
12027TIP3   OH236021   3.620   5.123   1.203
12027TIP3    H136022   3.549   5.173   1.244
12027TIP3    H236023   3.595   5.032   1.215
12028TIP3   OH236024   4.581   2.789   2.403
12028TIP3    H136025   4.618   2.717   2.454
12028TIP3    H236026   4.646   2.858   2.409
12029TIP3   OH236027   3.993   6.489   2.088
12029TIP3    H136028   4.014   6.452   2.174
12029TIP3    H236029   4.008   6.583   2.098
12030TIP3   OH236030   5.403   5.130   0.135
12030TIP3    H136031   5.466   5.168   0.073
12030TIP3    H236032   5.455   5.068   0.186
12031TIP3   OH236033   3.505   2.203   5.556
12031TIP3    H136034   3.577   2.235   5.502
12031TIP3    H236035   3.484   2.276   5.614
12032TIP3   OH236036   2.670   3.057   5.390
12032TIP3    H136037   2.712   3.023   5.469
12032TIP3    H236038   2.655   3.150   5.408
12033TIP3   OH236039   4.864   4.371   2.466
12033TIP3    H136040   4.776   4.398   2.494
12033TIP3    H236041   4.886   4.432   2.395
12034TIP3   OH236042   7.347   2.854   3.330
12034TIP3    H136043   7.335   2.760   3.342
12034TIP3    H236044   7.305   2.894   3.407
12035TIP3   OH236045   6.885   7.490   1.592
12035TIP3    H136046   6.831   7.456   1.521
12035TIP3    H236047   6.905   7.580   1.566
12036TIP3   OH236048   3.500   3.190   3.946
12036TIP3    H136049   3.430   3.157   3.890
12036TIP3    H236050   3.457   3.248   4.008
12037TIP3   OH236051   3.997   6.364   0.768
12037TIP3    H136052   3.992   6.279   0.725
12037TIP3    H236053   3.971   6.348   0.858
12038TIP3   OH236054   6.582   4.993   5.244
12038TIP3    H136055   6.570   4.898   5.247
12038TIP3    H236056   6.575   5.021   5.335
12039TIP3   OH236057   2.884   5.775   0.845
12039TIP3    H136058   2.913   5.858   0.807
12039TIP3    H236059   2.823   5.740   0.780
12040TIP3   OH236060   2.876   3.958   6.452
12040TIP3    H136061   2.955   4.008   6.430
12040TIP3    H236062   2.804   4.014   6.426
12041TIP3   OH236063   4.121   2.991   6.768
12041TIP3    H136064   4.188   3.059   6.768
12041TIP3    H236065   4.106   2.972   6.861
12042TIP3   OH236066   2.862   7.452   5.693
12042TIP3    H136067   2.906   7.499   5.622
12042TIP3    H236068   2.876   7.360   5.673
12043TIP3   OH236069   2.478   2.488   5.599
12043TIP3    H136070   2.439   2.465   5.683
12043TIP3    H236071   2.545   2.422   5.585
12044TIP3   OH236072   6.345   2.332   3.431
12044TIP3    H136073   6.381   2.282   3.505
12044TIP3    H236074   6.333   2.420   3.465
12045TIP3   OH236075   4.603   5.313   4.363
12045TIP3    H136076   4.589   5.392   4.310
12045TIP3    H236077   4.600   5.241   4.299
12046TIP3   OH236078   0.779   5.204   2.841
12046TIP3    H136079   0.746   5.283   2.885
12046TIP3    H236080   0.872   5.221   2.829
12047TIP3   OH236081   7.300   7.661   2.683
12047TIP3    H136082   7.365   7.644   2.615
12047TIP3    H236083   7.238   7.588   2.675
12048TIP3   OH236084   3.395   6.819   1.295
12048TIP3    H136085   3.451   6.855   1.226
12048TIP3    H236086   3.334   6.762   1.249
12049TIP3   OH236087   0.449   3.485   3.106
12049TIP3    H136088   0.384   3.486   3.035
12049TIP3    H236089   0.487   3.397   3.102
12050TIP3   OH236090   4.141   0.803   3.949
12050TIP3    H136091   4.215   0.837   3.999
12050TIP3    H236092   4.066   0.812   4.008
12051TIP3   OH236093   3.497   1.289   6.254
12051TIP3    H136094   3.486   1.374   6.211
12051TIP3    H236095   3.480   1.306   6.346
12052TIP3   OH236096   7.460   0.552   0.294
12052TIP3    H136097   7.461   0.494   0.370
12052TIP3    H236098   7.413   0.502   0.227
12053TIP3   OH236099   8.166   1.227   1.067
12053TIP3    H136100   8.245   1.281   1.073
12053TIP3    H236101   8.147   1.223   0.973
12054TIP3   OH236102   0.620   1.141   1.944
12054TIP3    H136103   0.695   1.109   1.993
12054TIP3    H236104   0.556   1.165   2.012
12055TIP3   OH236105   5.633   7.717   0.926
12055TIP3    H136106   5.713   7.671   0.902
12055TIP3    H236107   5.653   7.760   1.009
12056TIP3   OH236108   1.100   7.385   4.606
12056TIP3    H136109   1.019   7.436   4.601
12056TIP3    H236110   1.121   7.366   4.514
12057TIP3   OH236111   4.445   7.427   5.663
12057TIP3    H136112   4.456   7.446   5.756
12057TIP3    H236113   4.531   7.439   5.624
12058TIP3   OH236114   1.478   1.957   2.611
12058TIP3    H136115   1.513   1.880   2.656
12058TIP3    H236116   1.502   2.031   2.667
12059TIP3   OH236117   1.983   6.466   5.457
12059TIP3    H136118   2.013   6.438   5.370
12059TIP3    H236119   1.959   6.385   5.501
12060TIP3   OH236120   3.645   3.022   5.575
12060TIP3    H136121   3.668   2.936   5.538
12060TIP3    H236122   3.729   3.063   5.594
12061TIP3   OH236123   6.394   4.207   0.210
12061TIP3    H136124   6.421   4.191   0.120
12061TIP3    H236125   6.453   4.152   0.262
12062TIP3   OH236126   1.903   4.056   5.117
12062TIP3    H136127   1.813   4.085   5.131
12062TIP3    H236128   1.936   4.037   5.204
12063TIP3   OH236129   2.003   6.354   0.714
12063TIP3    H136130   2.015   6.259   0.719
12063TIP3    H236131   2.068   6.390   0.773
12064TIP3   OH236132   0.999   4.370   4.614
12064TIP3    H136133   1.019   4.463   4.609
12064TIP3    H236134   0.929   4.363   4.679
12065TIP3   OH236135   7.289   7.692   3.880
12065TIP3    H136136   7.332   7.772   3.851
12065TIP3    H236137   7.323   7.677   3.968
12066TIP3   OH236138   1.611   7.264   3.751
12066TIP3    H136139   1.691   7.315   3.738
12066TIP3    H236140   1.563   7.311   3.819
12067TIP3   OH236141   2.662   0.211   1.649
12067TIP3    H136142   2.713   0.198   1.569
12067TIP3    H236143   2.578   0.244   1.619
12068TIP3   OH236144   7.121   2.590   5.321
12068TIP3    H136145   7.178   2.667   5.319
12068TIP3    H236146   7.172   2.524   5.370
12069TIP3   OH236147   4.658   1.075   4.557
12069TIP3    H136148   4.683   1.045   4.469
12069TIP3    H236149   4.741   1.100   4.598
12070TIP3   OH236150   1.975   2.370   4.705
12070TIP3    H136151   1.982   2.464   4.724
12070TIP3    H236152   1.977   2.365   4.609
12071TIP3   OH236153   2.173   2.677   3.585
12071TIP3    H136154   2.170   2.597   3.532
12071TIP3    H236155   2.121   2.740   3.536
12072TIP3   OH236156   3.211   0.204   2.623
12072TIP3    H136157   3.174   0.116   2.614
12072TIP3    H236158   3.144   0.253   2.672
12073TIP3   OH236159   6.885   3.486   5.944
12073TIP3    H136160   6.838   3.526   5.871
12073TIP3    H236161   6.843   3.522   6.023
12074TIP3   OH236162   2.408   3.959   5.002
12074TIP3    H136163   2.335   3.939   4.943
12074TIP3    H236164   2.384   3.918   5.085
12075TIP3   OH236165   2.421   0.631   3.360
12075TIP3    H136166   2.509   0.613   3.392
12075TIP3    H236167   2.434   0.671   3.274
12076TIP3   OH236168   3.878   6.385   2.946
12076TIP3    H136169   3.851   6.332   2.871
12076TIP3    H236170   3.807   6.450   2.955
12077TIP3   OH236171   3.176   7.142   5.276
12077TIP3    H136172   3.224   7.225   5.279
12077TIP3    H236173   3.163   7.118   5.367
12078TIP3   OH236174   4.697   3.404   1.018
12078TIP3    H136175   4.651   3.462   1.078
12078TIP3    H236176   4.734   3.462   0.952
12079TIP3   OH236177   3.450   6.524   2.647
12079TIP3    H136178   3.489   6.493   2.565
12079TIP3    H236179   3.523   6.560   2.696
12080TIP3   OH236180   3.036   1.681   4.659
12080TIP3    H136181   2.994   1.610   4.612
12080TIP3    H236182   3.061   1.744   4.591
12081TIP3   OH236183   3.760   4.178   3.933
12081TIP3    H136184   3.719   4.262   3.912
12081TIP3    H236185   3.848   4.201   3.964
12082TIP3   OH236186   4.541   1.285   4.813
12082TIP3    H136187   4.594   1.213   4.848
12082TIP3    H236188   4.551   1.356   4.875
12083TIP3   OH236189   7.942   1.609   2.935
12083TIP3    H136190   7.941   1.638   3.026
12083TIP3    H236191   7.901   1.681   2.887
12084TIP3   OH236192   2.744   2.186   6.335
12084TIP3    H136193   2.698   2.224   6.260
12084TIP3    H236194   2.758   2.260   6.394
12085TIP3   OH236195   1.864   1.755   0.683
12085TIP3    H136196   1.901   1.804   0.609
12085TIP3    H236197   1.931   1.691   0.706
12086TIP3   OH236198   8.131   5.676   6.783
12086TIP3    H136199   8.045   5.661   6.823
12086TIP3    H236200   8.147   5.598   6.731
12087TIP3   OH236201   3.345   7.772   0.398
12087TIP3    H136202   3.309   7.696   0.443
12087TIP3    H236203   3.346   7.841   0.465
12088TIP3   OH236204   4.388   7.741   6.366
12088TIP3    H136205   4.388   7.784   6.451
12088TIP3    H236206   4.302   7.761   6.328
12089TIP3   OH236207   4.313   4.802   6.453
12089TIP3    H136208   4.266   4.876   6.415
12089TIP3    H236209   4.247   4.732   6.458
12090TIP3   OH236210   0.547   6.071   2.392
12090TIP3    H136211   0.511   6.033   2.473
12090TIP3    H236212   0.539   6.000   2.328
12091TIP3   OH236213   3.392   2.442   1.506
12091TIP3    H136214   3.336   2.502   1.457
12091TIP3    H236215   3.357   2.444   1.595
12092TIP3   OH236216   1.641   3.635   5.689
12092TIP3    H136217   1.556   3.676   5.671
12092TIP3    H236218   1.628   3.588   5.771
12093TIP3   OH236219   1.547   3.821   2.963
12093TIP3    H136220   1.533   3.865   2.879
12093TIP3    H236221   1.550   3.892   3.027
12094TIP3   OH236222   3.082   6.973   0.207
12094TIP3    H136223   3.090   7.063   0.239
12094TIP3    H236224   3.146   6.967   0.136
12095TIP3   OH236225   1.216   2.509   3.052
12095TIP3    H136226   1.140   2.462   3.018
12095TIP3    H236227   1.181   2.574   3.112
12096TIP3   OH236228   1.372   1.169   1.972
12096TIP3    H136229   1.433   1.153   2.044
12096TIP3    H236230   1.425   1.159   1.893
12097TIP3   OH236231   2.998   6.537   0.646
12097TIP3    H136232   3.073   6.499   0.600
12097TIP3    H236233   2.953   6.589   0.580
12098TIP3   OH236234   6.381   2.842   5.561
12098TIP3    H136235   6.373   2.924   5.610
12098TIP3    H236236   6.333   2.778   5.614
12099TIP3   OH236237   1.727   0.213   2.149
12099TIP3    H136238   1.636   0.209   2.178
12099TIP3    H236239   1.736   0.141   2.087
12100TIP3   OH236240   3.119   3.674   3.730
12100TIP3    H136241   3.095   3.747   3.788
12100TIP3    H236242   3.036   3.636   3.704
12101TIP3   OH236243   4.522   3.321   2.999
12101TIP3    H136244   4.470   3.318   2.919
12101TIP3    H236245   4.459   3.308   3.070
12102TIP3   OH236246   2.111   5.825   5.279
12102TIP3    H136247   2.038   5.842   5.219
12102TIP3    H236248   2.071   5.834   5.366
12103TIP3   OH236249   7.383   4.635   1.160
12103TIP3    H136250   7.318   4.612   1.227
12103TIP3    H236251   7.401   4.728   1.174
12104TIP3   OH236252   8.301   3.882   6.594
12104TIP3    H136253   8.247   3.961   6.592
12104TIP3    H236254   8.390   3.914   6.577
12105TIP3   OH236255   6.797   1.278   2.527
12105TIP3    H136256   6.803   1.322   2.612
12105TIP3    H236257   6.736   1.206   2.541
12106TIP3   OH236258   6.696   3.084   0.289
12106TIP3    H136259   6.627   3.045   0.236
12106TIP3    H236260   6.699   3.029   0.368
12107TIP3   OH236261   8.239   2.455   4.092
12107TIP3    H136262   8.173   2.390   4.068
12107TIP3    H236263   8.267   2.428   4.180
12108TIP3   OH236264   0.947   3.441   6.299
12108TIP3    H136265   0.909   3.357   6.327
12108TIP3    H236266   0.878   3.482   6.247
12109TIP3   OH236267   7.699   0.352   4.425
12109TIP3    H136268   7.783   0.394   4.403
12109TIP3    H236269   7.644   0.369   4.348
12110TIP3   OH236270   3.990   5.910   4.654
12110TIP3    H136271   3.941   5.882   4.577
12110TIP3    H236272   4.080   5.883   4.637
12111TIP3   OH236273   2.711   4.817   5.450
12111TIP3    H136274   2.714   4.731   5.408
12111TIP3    H236275   2.682   4.877   5.380
12112TIP3   OH236276   5.801   5.516   1.595
12112TIP3    H136277   5.841   5.518   1.508
12112TIP3    H236278   5.814   5.427   1.626
12113TIP3   OH236279   5.692   1.148   5.713
12113TIP3    H136280   5.667   1.240   5.702
12113TIP3    H236281   5.738   1.146   5.797
12114TIP3   OH236282   6.066   0.926   1.497
12114TIP3    H136283   5.990   0.909   1.441
12114TIP3    H236284   6.028   0.951   1.582
12115TIP3   OH236285   6.375   1.064   3.961
12115TIP3    H136286   6.363   1.020   4.045
12115TIP3    H236287   6.400   1.154   3.985
12116TIP3   OH236288   7.507   1.719   1.344
12116TIP3    H136289   7.532   1.811   1.350
12116TIP3    H236290   7.585   1.671   1.372
12117TIP3   OH236291   7.322   1.722   4.596
12117TIP3    H136292   7.291   1.698   4.509
12117TIP3    H236293   7.400   1.775   4.580
12118TIP3   OH236294   1.470   6.818   5.503
12118TIP3    H136295   1.527   6.894   5.495
12118TIP3    H236296   1.484   6.786   5.592
12119TIP3   OH236297   5.695   0.838   2.443
12119TIP3    H136298   5.752   0.763   2.453
12119TIP3    H236299   5.744   0.898   2.387
12120TIP3   OH236300   1.723   5.033   5.935
12120TIP3    H136301   1.739   5.008   6.026
12120TIP3    H236302   1.645   5.089   5.939
12121TIP3   OH236303   0.143   0.892   5.015
12121TIP3    H136304   0.145   0.839   5.095
12121TIP3    H236305   0.132   0.982   5.046
12122TIP3   OH236306   8.394   0.689   1.591
12122TIP3    H136307   8.304   0.718   1.603
12122TIP3    H236308   8.418   0.651   1.676
12123TIP3   OH236309   0.091   5.319   0.123
12123TIP3    H136310   0.007   5.311   0.169
12123TIP3    H236311   0.136   5.391   0.167
12124TIP3   OH236312   6.744   7.023   3.934
12124TIP3    H136313   6.677   7.085   3.905
12124TIP3    H236314   6.697   6.940   3.945
12125TIP3   OH236315   0.358   5.545   4.328
12125TIP3    H136316   0.386   5.620   4.276
12125TIP3    H236317   0.321   5.484   4.264
12126TIP3   OH236318   2.018   5.503   1.312
12126TIP3    H136319   2.043   5.548   1.231
12126TIP3    H236320   1.924   5.489   1.304
12127TIP3   OH236321   2.742   5.541   6.092
12127TIP3    H136322   2.741   5.446   6.084
12127TIP3    H236323   2.819   5.568   6.042
12128TIP3   OH236324   4.475   3.100   4.506
12128TIP3    H136325   4.531   3.104   4.429
12128TIP3    H236326   4.534   3.106   4.581
12129TIP3   OH236327   0.664   0.181   2.803
12129TIP3    H136328   0.737   0.134   2.763
12129TIP3    H236329   0.588   0.157   2.750
12130TIP3   OH236330   0.660   0.398   4.160
12130TIP3    H136331   0.689   0.385   4.250
12130TIP3    H236332   0.740   0.423   4.113
12131TIP3   OH236333   8.300   3.016   5.344
12131TIP3    H136334   8.220   2.970   5.368
12131TIP3    H236335   8.282   3.052   5.257
12132TIP3   OH236336   2.867   3.260   0.225
12132TIP3    H136337   2.790   3.204   0.211
12132TIP3    H236338   2.885   3.297   0.139
12133TIP3   OH236339   5.215   1.808   6.095
12133TIP3    H136340   5.120   1.803   6.107
12133TIP3    H236341   5.251   1.773   6.176
12134TIP3   OH236342   1.614   4.382   5.025
12134TIP3    H136343   1.545   4.348   5.082
12134TIP3    H236344   1.583   4.365   4.936
12135TIP3   OH236345   4.203   1.821   3.628
12135TIP3    H136346   4.192   1.906   3.585
12135TIP3    H236347   4.273   1.835   3.692
12136TIP3   OH236348   4.699   1.291   2.969
12136TIP3    H136349   4.706   1.206   3.012
12136TIP3    H236350   4.772   1.293   2.907
12137TIP3   OH236351   2.027   3.575   5.539
12137TIP3    H136352   2.062   3.603   5.623
12137TIP3    H236353   1.938   3.544   5.559
12138TIP3   OH236354   6.329   5.066   2.636
12138TIP3    H136355   6.274   5.137   2.670
12138TIP3    H236356   6.270   4.990   2.632
12139TIP3   OH236357   1.539   7.629   0.576
12139TIP3    H136358   1.629   7.603   0.596
12139TIP3    H236359   1.501   7.651   0.661
12140TIP3   OH236360   1.694   5.207   0.939
12140TIP3    H136361   1.649   5.166   0.864
12140TIP3    H236362   1.658   5.296   0.942
12141TIP3   OH236363   6.601   6.006   1.603
12141TIP3    H136364   6.507   5.991   1.606
12141TIP3    H236365   6.623   6.002   1.510
12142TIP3   OH236366   3.057   0.489   3.520
12142TIP3    H136367   3.118   0.564   3.520
12142TIP3    H236368   3.059   0.456   3.430
12143TIP3   OH236369   5.295   2.802   0.323
12143TIP3    H136370   5.236   2.764   0.259
12143TIP3    H236371   5.285   2.749   0.401
12144TIP3   OH236372   1.583   0.716   2.609
12144TIP3    H136373   1.625   0.641   2.651
12144TIP3    H236374   1.626   0.793   2.648
12145TIP3   OH236375   5.263   2.372   0.076
12145TIP3    H136376   5.193   2.394   0.014
12145TIP3    H236377   5.281   2.279   0.060
12146TIP3   OH236378   2.185   2.582   0.386
12146TIP3    H136379   2.239   2.503   0.379
12146TIP3    H236380   2.231   2.637   0.449
12147TIP3   OH236381   3.988   5.327   2.622
12147TIP3    H136382   3.968   5.418   2.645
12147TIP3    H236383   4.052   5.299   2.687
12148TIP3   OH236384   4.076   7.409   4.023
12148TIP3    H136385   4.142   7.475   4.002
12148TIP3    H236386   4.088   7.392   4.116
12149TIP3   OH236387   8.351   2.627   5.433
12149TIP3    H136388   8.370   2.620   5.339
12149TIP3    H236389   8.407   2.699   5.463
12150TIP3   OH236390   8.160   1.755   5.007
12150TIP3    H136391   8.240   1.782   4.962
12150TIP3    H236392   8.189   1.725   5.093
12151TIP3   OH236393   2.967   6.814   2.269
12151TIP3    H136394   2.893   6.872   2.287
12151TIP3    H236395   2.958   6.793   2.176
12152TIP3   OH236396   0.060   2.625   1.001
12152TIP3    H136397  -0.012   2.594   1.056
12152TIP3    H236398   0.032   2.603   0.911
12153TIP3   OH236399   4.762   0.094   2.524
12153TIP3    H136400   4.736   0.186   2.521
12153TIP3    H236401   4.692   0.047   2.479
12154TIP3   OH236402   0.138   7.841   2.273
12154TIP3    H136403   0.104   7.810   2.357
12154TIP3    H236404   0.083   7.799   2.208
12155TIP3   OH236405   6.868   6.394   3.830
12155TIP3    H136406   6.930   6.413   3.759
12155TIP3    H236407   6.863   6.299   3.832
12156TIP3   OH236408   2.898   6.786   5.710
12156TIP3    H136409   2.883   6.694   5.692
12156TIP3    H236410   2.941   6.819   5.631
12157TIP3   OH236411   3.246   0.746   6.857
12157TIP3    H136412   3.171   0.705   6.901
12157TIP3    H236413   3.278   0.812   6.918
12158TIP3   OH236414   5.984   4.277   6.049
12158TIP3    H136415   6.008   4.265   5.957
12158TIP3    H236416   5.912   4.216   6.064
12159TIP3   OH236417   7.226   7.168   6.496
12159TIP3    H136418   7.280   7.136   6.568
12159TIP3    H236419   7.271   7.247   6.465
12160TIP3   OH236420   4.870   6.518   2.675
12160TIP3    H136421   4.909   6.437   2.644
12160TIP3    H236422   4.894   6.522   2.768
12161TIP3   OH236423   7.965   4.228   5.340
12161TIP3    H136424   8.051   4.202   5.373
12161TIP3    H236425   7.931   4.149   5.297
12162TIP3   OH236426   0.267   2.499   5.520
12162TIP3    H136427   0.268   2.474   5.612
12162TIP3    H236428   0.312   2.584   5.518
12163TIP3   OH236429   3.615   2.182   3.452
12163TIP3    H136430   3.677   2.199   3.381
12163TIP3    H236431   3.529   2.187   3.410
12164TIP3   OH236432   3.342   3.654   5.771
12164TIP3    H136433   3.266   3.596   5.762
12164TIP3    H236434   3.408   3.601   5.815
12165TIP3   OH236435   4.051   6.770   2.115
12165TIP3    H136436   3.995   6.843   2.144
12165TIP3    H236437   4.119   6.764   2.182
12166TIP3   OH236438   2.534   6.094   0.151
12166TIP3    H136439   2.523   6.139   0.067
12166TIP3    H236440   2.525   6.001   0.128
12167TIP3   OH236441   2.888   0.155   2.516
12167TIP3    H136442   2.796   0.149   2.491
12167TIP3    H236443   2.931   0.083   2.470
12168TIP3   OH236444   5.940   1.396   1.144
12168TIP3    H136445   5.878   1.450   1.095
12168TIP3    H236446   5.915   1.407   1.236
12169TIP3   OH236447   0.603   0.074   4.804
12169TIP3    H136448   0.586   0.087   4.711
12169TIP3    H236449   0.605  -0.021   4.815
12170TIP3   OH236450   0.481   1.752   2.768
12170TIP3    H136451   0.513   1.803   2.843
12170TIP3    H236452   0.543   1.680   2.760
12171TIP3   OH236453   1.245   6.040   6.615
12171TIP3    H136454   1.152   6.050   6.596
12171TIP3    H236455   1.289   6.064   6.534
12172TIP3   OH236456   6.743   1.539   2.397
12172TIP3    H136457   6.715   1.465   2.451
12172TIP3    H236458   6.730   1.615   2.454
12173TIP3   OH236459   3.998   3.596   0.344
12173TIP3    H136460   3.919   3.640   0.313
12173TIP3    H236461   3.985   3.504   0.323
12174TIP3   OH236462   5.829   7.598   2.130
12174TIP3    H136463   5.861   7.629   2.215
12174TIP3    H236464   5.898   7.540   2.098
12175TIP3   OH236465   5.054   4.367   6.181
12175TIP3    H136466   5.110   4.383   6.105
12175TIP3    H236467   4.972   4.335   6.143
12176TIP3   OH236468   0.529   6.420   5.029
12176TIP3    H136469   0.522   6.367   4.950
12176TIP3    H236470   0.570   6.502   5.001
12177TIP3   OH236471   2.978   6.621   4.151
12177TIP3    H136472   3.021   6.547   4.195
12177TIP3    H236473   3.046   6.659   4.096
12178TIP3   OH236474   6.515   5.383   1.314
12178TIP3    H136475   6.440   5.324   1.309
12178TIP3    H236476   6.483   5.466   1.281
12179TIP3   OH236477   0.135   0.981   2.645
12179TIP3    H136478   0.148   0.986   2.740
12179TIP3    H236479   0.119   0.888   2.627
12180TIP3   OH236480   4.234   1.115   2.556
12180TIP3    H136481   4.256   1.087   2.645
12180TIP3    H236482   4.308   1.170   2.530
12181TIP3   OH236483   5.255   7.630   0.550
12181TIP3    H136484   5.167   7.662   0.528
12181TIP3    H236485   5.304   7.708   0.575
12182TIP3   OH236486   8.384   6.964   0.706
12182TIP3    H136487   8.461   6.984   0.652
12182TIP3    H236488   8.313   6.954   0.643
12183TIP3   OH236489   0.743   1.161   3.763
12183TIP3    H136490   0.722   1.255   3.766
12183TIP3    H236491   0.802   1.152   3.688
12184TIP3   OH236492   0.917   4.620   1.254
12184TIP3    H136493   0.871   4.594   1.174
12184TIP3    H236494   0.848   4.635   1.318
12185TIP3   OH236495   1.433   7.289   5.635
12185TIP3    H136496   1.369   7.359   5.645
12185TIP3    H236497   1.414   7.251   5.548
12186TIP3   OH236498   0.293   2.441   1.739
12186TIP3    H136499   0.227   2.503   1.769
12186TIP3    H236500   0.243   2.362   1.717
12187TIP3   OH236501   1.028   0.990   0.860
12187TIP3    H136502   0.977   0.927   0.809
12187TIP3    H236503   0.989   1.075   0.837
12188TIP3   OH236504   6.543   6.065   3.099
12188TIP3    H136505   6.492   6.059   3.180
12188TIP3    H236506   6.539   6.157   3.075
12189TIP3   OH236507   4.451   0.502   6.220
12189TIP3    H136508   4.358   0.512   6.240
12189TIP3    H236509   4.479   0.589   6.192
12190TIP3   OH236510   4.671   4.026   6.106
12190TIP3    H136511   4.611   3.973   6.158
12190TIP3    H236512   4.758   3.993   6.129
12191TIP3   OH236513   7.297   3.728   4.679
12191TIP3    H136514   7.265   3.712   4.591
12191TIP3    H236515   7.374   3.783   4.667
12192TIP3   OH236516   7.168   7.123   1.003
12192TIP3    H136517   7.092   7.087   1.048
12192TIP3    H236518   7.149   7.216   0.992
12193TIP3   OH236519   3.131   1.086   2.250
12193TIP3    H136520   3.220   1.066   2.278
12193TIP3    H236521   3.081   1.007   2.270
12194TIP3   OH236522   5.640   5.145   6.276
12194TIP3    H136523   5.614   5.053   6.268
12194TIP3    H236524   5.707   5.145   6.344
12195TIP3   OH236525   5.508   5.243   1.540
12195TIP3    H136526   5.438   5.285   1.589
12195TIP3    H236527   5.559   5.197   1.606
12196TIP3   OH236528   0.232   3.536   5.214
12196TIP3    H136529   0.279   3.599   5.159
12196TIP3    H236530   0.143   3.570   5.219
12197TIP3   OH236531   5.600   2.619   5.143
12197TIP3    H136532   5.599   2.712   5.120
12197TIP3    H236533   5.525   2.582   5.096
12198TIP3   OH236534   4.663   1.615   4.581
12198TIP3    H136535   4.716   1.536   4.590
12198TIP3    H236536   4.722   1.687   4.604
12199TIP3   OH236537   0.273   1.129   3.173
12199TIP3    H136538   0.286   1.162   3.084
12199TIP3    H236539   0.345   1.165   3.224
12200TIP3   OH236540   6.712   2.607   0.340
12200TIP3    H136541   6.647   2.541   0.364
12200TIP3    H236542   6.796   2.567   0.362
12201TIP3   OH236543   4.842   0.327   5.013
12201TIP3    H136544   4.798   0.267   5.073
12201TIP3    H236545   4.913   0.275   4.974
12202TIP3   OH236546   5.987   4.317   3.524
12202TIP3    H136547   6.055   4.359   3.472
12202TIP3    H236548   5.945   4.256   3.463
12203TIP3   OH236549   7.753   5.694   5.247
12203TIP3    H136550   7.788   5.755   5.182
12203TIP3    H236551   7.685   5.647   5.200
12204TIP3   OH236552   4.095   5.838   2.056
12204TIP3    H136553   4.023   5.779   2.075
12204TIP3    H236554   4.174   5.787   2.074
12205TIP3   OH236555   5.194   4.644   3.008
12205TIP3    H136556   5.169   4.552   3.002
12205TIP3    H236557   5.162   4.683   2.927
12206TIP3   OH236558   1.799   4.615   4.724
12206TIP3    H136559   1.778   4.703   4.691
12206TIP3    H236560   1.894   4.617   4.739
12207TIP3   OH236561   8.341   4.667   1.735
12207TIP3    H136562   8.347   4.727   1.810
12207TIP3    H236563   8.384   4.587   1.765
12208TIP3   OH236564   7.319   4.328   3.632
12208TIP3    H136565   7.286   4.410   3.595
12208TIP3    H236566   7.401   4.353   3.674
12209TIP3   OH236567   3.774   5.418   6.743
12209TIP3    H136568   3.747   5.327   6.728
12209TIP3    H236569   3.864   5.422   6.708
12210TIP3   OH236570   1.112   3.633   3.323
12210TIP3    H136571   1.178   3.638   3.254
12210TIP3    H236572   1.028   3.630   3.276
12211TIP3   OH236573   3.026   7.539   6.149
12211TIP3    H136574   3.054   7.575   6.066
12211TIP3    H236575   3.070   7.454   6.155
12212TIP3   OH236576   1.873   3.112   3.846
12212TIP3    H136577   1.941   3.064   3.893
12212TIP3    H236578   1.852   3.055   3.771
12213TIP3   OH236579   3.587   0.074   2.172
12213TIP3    H136580   3.664   0.017   2.172
12213TIP3    H236581   3.516   0.019   2.204
12214TIP3   OH236582   5.885   1.148   4.672
12214TIP3    H136583   5.943   1.217   4.706
12214TIP3    H236584   5.854   1.182   4.588
12215TIP3   OH236585   2.451   2.641   4.850
12215TIP3    H136586   2.538   2.603   4.861
12215TIP3    H236587   2.420   2.606   4.766
12216TIP3   OH236588   5.893   6.527   3.059
12216TIP3    H136589   5.983   6.503   3.081
12216TIP3    H236590   5.857   6.562   3.140
12217TIP3   OH236591   0.842   1.908   4.650
12217TIP3    H136592   0.806   1.992   4.677
12217TIP3    H236593   0.927   1.904   4.693
12218TIP3   OH236594   0.106   1.218   2.097
12218TIP3    H136595   0.062   1.291   2.140
12218TIP3    H236596   0.180   1.257   2.051
12219TIP3   OH236597   7.788   7.680   2.346
12219TIP3    H136598   7.842   7.722   2.279
12219TIP3    H236599   7.698   7.704   2.323
12220TIP3   OH236600   8.067   7.206   1.607
12220TIP3    H136601   8.103   7.132   1.558
12220TIP3    H236602   7.974   7.185   1.617
12221TIP3   OH236603   3.433   1.691   3.957
12221TIP3    H136604   3.507   1.630   3.957
12221TIP3    H236605   3.445   1.743   4.036
12222TIP3   OH236606   3.780   6.409   5.324
12222TIP3    H136607   3.860   6.357   5.329
12222TIP3    H236608   3.765   6.439   5.414
12223TIP3   OH236609   0.265   1.636   0.639
12223TIP3    H136610   0.343   1.687   0.661
12223TIP3    H236611   0.255   1.648   0.544
12224TIP3   OH236612   6.086   5.683   3.085
12224TIP3    H136613   6.163   5.669   3.030
12224TIP3    H236614   6.114   5.660   3.173
12225TIP3   OH236615   4.515   7.799   4.118
12225TIP3    H136616   4.450   7.823   4.185
12225TIP3    H236617   4.468   7.810   4.035
12226TIP3   OH236618   3.209   0.862   4.250
12226TIP3    H136619   3.251   0.776   4.241
12226TIP3    H236620   3.227   0.889   4.340
12227TIP3   OH236621   5.996   4.724   0.265
12227TIP3    H136622   6.076   4.767   0.234
12227TIP3    H236623   5.958   4.785   0.328
12228TIP3   OH236624   0.354   7.879   0.583
12228TIP3    H136625   0.322   7.912   0.500
12228TIP3    H236626   0.450   7.880   0.574
12229TIP3   OH236627   8.133   1.399   5.009
12229TIP3    H136628   8.124   1.375   4.917
12229TIP3    H236629   8.080   1.477   5.019
12230TIP3   OH236630   3.094   5.200   6.710
12230TIP3    H136631   3.141   5.277   6.678
12230TIP3    H236632   3.033   5.179   6.639
12231TIP3   OH236633   2.231   2.308   0.870
12231TIP3    H136634   2.228   2.247   0.796
12231TIP3    H236635   2.231   2.251   0.947
12232TIP3   OH236636   4.753   6.216   2.026
12232TIP3    H136637   4.745   6.262   2.110
12232TIP3    H236638   4.765   6.285   1.961
12233TIP3   OH236639   4.904   2.522   5.188
12233TIP3    H136640   4.864   2.436   5.204
12233TIP3    H236641   4.833   2.584   5.203
12234TIP3   OH236642   4.100   5.012   1.365
12234TIP3    H136643   4.062   5.078   1.423
12234TIP3    H236644   4.026   4.979   1.314
12235TIP3   OH236645   6.108   4.438   1.075
12235TIP3    H136646   6.181   4.500   1.075
12235TIP3    H236647   6.040   4.481   1.023
12236TIP3   OH236648   6.803   1.925   4.835
12236TIP3    H136649   6.710   1.947   4.845
12236TIP3    H236650   6.803   1.834   4.804
12237TIP3   OH236651   0.780   5.827   5.945
12237TIP3    H136652   0.685   5.828   5.942
12237TIP3    H236653   0.802   5.873   6.025
12238TIP3   OH236654   5.253   1.898   4.547
12238TIP3    H136655   5.251   1.845   4.467
12238TIP3    H236656   5.337   1.876   4.587
12239TIP3   OH236657   8.150   3.322   2.937
12239TIP3    H136658   8.140   3.417   2.928
12239TIP3    H236659   8.242   3.306   2.916
12240TIP3   OH236660   1.330   0.688   4.415
12240TIP3    H136661   1.380   0.634   4.353
12240TIP3    H236662   1.304   0.765   4.364
12241TIP3   OH236663   2.108   7.632   2.717
12241TIP3    H136664   2.179   7.666   2.662
12241TIP3    H236665   2.045   7.704   2.721
12242TIP3   OH236666   8.244   4.575   2.509
12242TIP3    H136667   8.224   4.499   2.454
12242TIP3    H236668   8.177   4.574   2.577
12243TIP3   OH236669   2.559   0.685   4.984
12243TIP3    H136670   2.493   0.749   4.959
12243TIP3    H236671   2.642   0.726   4.962
12244TIP3   OH236672   5.632   0.545   3.343
12244TIP3    H136673   5.558   0.509   3.392
12244TIP3    H236674   5.676   0.602   3.405
12245TIP3   OH236675   7.114   7.272   6.022
12245TIP3    H136676   7.034   7.225   5.999
12245TIP3    H236677   7.099   7.362   5.992
12246TIP3   OH236678   5.469   6.321   2.951
12246TIP3    H136679   5.451   6.246   3.007
12246TIP3    H236680   5.564   6.318   2.937
12247TIP3   OH236681   1.967   2.783   3.401
12247TIP3    H136682   1.904   2.775   3.473
12247TIP3    H236683   1.920   2.828   3.332
12248TIP3   OH236684   0.227   7.216   3.554
12248TIP3    H136685   0.179   7.150   3.503
12248TIP3    H236686   0.198   7.202   3.644
12249TIP3   OH236687   3.773   1.388   5.877
12249TIP3    H136688   3.821   1.311   5.909
12249TIP3    H236689   3.712   1.409   5.948
12250TIP3   OH236690   3.986   0.750   4.441
12250TIP3    H136691   3.996   0.792   4.526
12250TIP3    H236692   3.901   0.706   4.445
12251TIP3   OH236693   4.807   3.284   5.054
12251TIP3    H136694   4.840   3.207   5.006
12251TIP3    H236695   4.807   3.256   5.145
12252TIP3   OH236696   7.622   1.253   5.166
12252TIP3    H136697   7.590   1.268   5.077
12252TIP3    H236698   7.648   1.161   5.167
12253TIP3   OH236699   4.494   5.509   2.152
12253TIP3    H136700   4.422   5.569   2.132
12253TIP3    H236701   4.538   5.549   2.228
12254TIP3   OH236702   6.166   4.993   3.054
12254TIP3    H136703   6.222   4.987   3.132
12254TIP3    H236704   6.177   4.908   3.011
12255TIP3   OH236705   2.455   5.569   5.840
12255TIP3    H136706   2.491   5.481   5.850
12255TIP3    H236707   2.497   5.620   5.910
12256TIP3   OH236708   1.506   5.284   5.011
12256TIP3    H136709   1.418   5.248   5.023
12256TIP3    H236710   1.491   5.372   4.976
12257TIP3   OH236711   8.015   3.610   0.164
12257TIP3    H136712   8.076   3.660   0.218
12257TIP3    H236713   7.945   3.672   0.143
12258TIP3   OH236714   7.204   4.843   6.818
12258TIP3    H136715   7.286   4.797   6.834
12258TIP3    H236716   7.136   4.783   6.850
12259TIP3   OH236717   7.297   4.881   6.208
12259TIP3    H136718   7.392   4.894   6.216
12259TIP3    H236719   7.271   4.842   6.292
12260TIP3   OH236720   4.995   0.473   4.648
12260TIP3    H136721   5.079   0.457   4.605
12260TIP3    H236722   4.963   0.554   4.609
12261TIP3   OH236723   1.274   1.237   5.614
12261TIP3    H136724   1.283   1.165   5.551
12261TIP3    H236725   1.183   1.234   5.642
12262TIP3   OH236726   0.464   5.445   4.596
12262TIP3    H136727   0.528   5.515   4.606
12262TIP3    H236728   0.401   5.479   4.532
12263TIP3   OH236729   7.656   2.790   5.101
12263TIP3    H136730   7.741   2.813   5.065
12263TIP3    H236731   7.665   2.698   5.127
12264TIP3   OH236732   3.159   0.273   6.563
12264TIP3    H136733   3.175   0.179   6.573
12264TIP3    H236734   3.065   0.283   6.579
12265TIP3   OH236735   0.283   7.237   0.380
12265TIP3    H136736   0.207   7.288   0.410
12265TIP3    H236737   0.285   7.251   0.285
12266TIP3   OH236738   1.837   6.445   1.582
12266TIP3    H136739   1.914   6.500   1.595
12266TIP3    H236740   1.869   6.356   1.594
12267TIP3   OH236741   6.284   4.323   4.967
12267TIP3    H136742   6.337   4.317   4.887
12267TIP3    H236743   6.341   4.289   5.036
12268TIP3   OH236744   3.144   4.080   6.400
12268TIP3    H136745   3.174   4.047   6.485
12268TIP3    H236746   3.216   4.060   6.340
12269TIP3   OH236747   7.270   5.438   4.489
12269TIP3    H136748   7.309   5.493   4.556
12269TIP3    H236749   7.206   5.385   4.535
12270TIP3   OH236750   3.672   1.073   1.207
12270TIP3    H136751   3.654   1.083   1.113
12270TIP3    H236752   3.662   0.979   1.223
12271TIP3   OH236753   2.222   2.116   2.536
12271TIP3    H136754   2.191   2.027   2.517
12271TIP3    H236755   2.249   2.112   2.628
12272TIP3   OH236756   0.842   5.217   5.472
12272TIP3    H136757   0.870   5.309   5.474
12272TIP3    H236758   0.830   5.198   5.379
12273TIP3   OH236759   7.062   5.730   0.697
12273TIP3    H136760   7.048   5.816   0.656
12273TIP3    H236761   6.989   5.721   0.758
12274TIP3   OH236762   6.553   6.637   6.597
12274TIP3    H136763   6.483   6.693   6.560
12274TIP3    H236764   6.621   6.638   6.530
12275TIP3   OH236765   4.847   3.291   5.399
12275TIP3    H136766   4.801   3.230   5.341
12275TIP3    H236767   4.816   3.377   5.374
12276TIP3   OH236768   4.975   4.057   1.305
12276TIP3    H136769   4.904   4.121   1.307
12276TIP3    H236770   5.000   4.053   1.212
12277TIP3   OH236771   3.634   6.452   5.572
12277TIP3    H136772   3.611   6.536   5.611
12277TIP3    H236773   3.552   6.416   5.540
12278TIP3   OH236774   4.462   7.002   1.569
12278TIP3    H136775   4.505   6.916   1.569
12278TIP3    H236776   4.377   6.986   1.529
12279TIP3   OH236777   3.512   5.150   4.412
12279TIP3    H136778   3.559   5.215   4.360
12279TIP3    H236779   3.563   5.141   4.492
12280TIP3   OH236780   6.467   7.691   4.605
12280TIP3    H136781   6.502   7.771   4.645
12280TIP3    H236782   6.380   7.717   4.573
12281TIP3   OH236783   6.257   5.379   5.331
12281TIP3    H136784   6.253   5.390   5.236
12281TIP3    H236785   6.237   5.286   5.344
12282TIP3   OH236786   1.032   1.368   4.644
12282TIP3    H136787   0.964   1.326   4.591
12282TIP3    H236788   1.008   1.347   4.734
12283TIP3   OH236789   4.185   0.935   1.352
12283TIP3    H136790   4.274   0.913   1.381
12283TIP3    H236791   4.159   0.861   1.296
12284TIP3   OH236792   2.613   6.054   2.081
12284TIP3    H136793   2.522   6.027   2.092
12284TIP3    H236794   2.664   5.988   2.129
12285TIP3   OH236795   5.273   7.605   2.223
12285TIP3    H136796   5.365   7.581   2.221
12285TIP3    H236797   5.239   7.577   2.138
12286TIP3   OH236798   6.347   7.205   4.322
12286TIP3    H136799   6.274   7.178   4.378
12286TIP3    H236800   6.387   7.279   4.368
12287TIP3   OH236801   2.151   6.484   2.846
12287TIP3    H136802   2.170   6.429   2.770
12287TIP3    H236803   2.058   6.506   2.837
12288TIP3   OH236804   6.680   5.786   6.350
12288TIP3    H136805   6.690   5.836   6.269
12288TIP3    H236806   6.596   5.741   6.340
12289TIP3   OH236807   2.239   4.084   2.541
12289TIP3    H136808   2.297   4.147   2.499
12289TIP3    H236809   2.293   4.044   2.609
12290TIP3   OH236810   2.676   7.501   3.864
12290TIP3    H136811   2.768   7.513   3.843
12290TIP3    H236812   2.638   7.461   3.786
12291TIP3   OH236813   4.314   1.656   2.957
12291TIP3    H136814   4.381   1.696   3.012
12291TIP3    H236815   4.296   1.572   3.000
12292TIP3   OH236816   5.498   0.780   2.238
12292TIP3    H136817   5.478   0.821   2.154
12292TIP3    H236818   5.509   0.853   2.299
12293TIP3   OH236819   7.592   7.770   6.810
12293TIP3    H136820   7.675   7.804   6.844
12293TIP3    H236821   7.547   7.847   6.775
12294TIP3   OH236822   2.455   3.788   5.872
12294TIP3    H136823   2.413   3.825   5.949
12294TIP3    H236824   2.496   3.863   5.829
12295TIP3   OH236825   7.617   6.306   2.311
12295TIP3    H136826   7.691   6.303   2.372
12295TIP3    H236827   7.631   6.386   2.260
12296TIP3   OH236828   2.856   0.625   3.906
12296TIP3    H136829   2.872   0.649   3.814
12296TIP3    H236830   2.783   0.681   3.933
12297TIP3   OH236831   5.071   4.808   5.793
12297TIP3    H136832   5.131   4.737   5.772
12297TIP3    H236833   5.109   4.885   5.752
12298TIP3   OH236834   2.459   6.593   6.467
12298TIP3    H136835   2.431   6.637   6.547
12298TIP3    H236836   2.388   6.531   6.447
12299TIP3   OH236837   7.661   5.826   6.065
12299TIP3    H136838   7.604   5.749   6.059
12299TIP3    H236839   7.602   5.901   6.059
12300TIP3   OH236840   1.291   1.185   4.297
12300TIP3    H136841   1.356   1.148   4.237
12300TIP3    H236842   1.211   1.191   4.245
12301TIP3   OH236843   2.006   4.861   1.463
12301TIP3    H136844   2.052   4.785   1.498
12301TIP3    H236845   1.942   4.884   1.530
12302TIP3   OH236846   0.555   1.344   4.579
12302TIP3    H136847   0.524   1.307   4.497
12302TIP3    H236848   0.505   1.425   4.589
12303TIP3   OH236849   6.233   6.525   5.131
12303TIP3    H136850   6.238   6.455   5.196
12303TIP3    H236851   6.141   6.552   5.132
12304TIP3   OH236852   5.848   6.710   4.287
12304TIP3    H136853   5.914   6.709   4.218
12304TIP3    H236854   5.843   6.802   4.314
12305TIP3   OH236855   7.437   7.562   6.710
12305TIP3    H136856   7.487   7.629   6.755
12305TIP3    H236857   7.459   7.574   6.617
12306TIP3   OH236858   1.539   2.110   5.732
12306TIP3    H136859   1.448   2.137   5.715
12306TIP3    H236860   1.532   2.020   5.762
12307TIP3   OH236861   0.053   6.209   2.881
12307TIP3    H136862   0.106   6.173   2.952
12307TIP3    H236863   0.091   6.172   2.801
12308TIP3   OH236864   6.658   0.124   6.422
12308TIP3    H136865   6.670   0.038   6.464
12308TIP3    H236866   6.746   0.153   6.402
12309TIP3   OH236867   6.377   4.356   5.606
12309TIP3    H136868   6.458   4.321   5.643
12309TIP3    H236869   6.341   4.412   5.676
12310TIP3   OH236870   2.846   0.305   2.211
12310TIP3    H136871   2.871   0.376   2.152
12310TIP3    H236872   2.914   0.305   2.278
12311TIP3   OH236873   3.606   3.535   3.579
12311TIP3    H136874   3.571   3.532   3.668
12311TIP3    H236875   3.640   3.446   3.564
12312TIP3   OH236876   3.820   7.885   3.900
12312TIP3    H136877   3.837   7.815   3.963
12312TIP3    H236878   3.885   7.871   3.831
12313TIP3   OH236879   4.066   4.376   5.966
12313TIP3    H136880   4.161   4.374   5.973
12313TIP3    H236881   4.035   4.379   6.057
12314TIP3   OH236882   8.243   1.651   2.101
12314TIP3    H136883   8.202   1.599   2.170
12314TIP3    H236884   8.336   1.653   2.125
12315TIP3   OH236885   7.326   4.779   0.823
12315TIP3    H136886   7.277   4.708   0.865
12315TIP3    H236887   7.390   4.733   0.768
12316TIP3   OH236888   3.442   7.174   2.718
12316TIP3    H136889   3.532   7.170   2.684
12316TIP3    H236890   3.419   7.267   2.715
12317TIP3   OH236891   6.174   0.366   2.783
12317TIP3    H136892   6.217   0.416   2.852
12317TIP3    H236893   6.202   0.275   2.798
12318TIP3   OH236894   6.916   7.163   4.695
12318TIP3    H136895   6.987   7.219   4.663
12318TIP3    H236896   6.909   7.093   4.630
12319TIP3   OH236897   1.870   5.760   5.911
12319TIP3    H136898   1.956   5.719   5.913
12319TIP3    H236899   1.816   5.701   5.858
12320TIP3   OH236900   6.045   3.713   1.214
12320TIP3    H136901   6.038   3.628   1.169
12320TIP3    H236902   6.120   3.756   1.174
12321TIP3   OH236903   0.921   7.437   4.178
12321TIP3    H136904   0.937   7.437   4.084
12321TIP3    H236905   1.006   7.417   4.217
12322TIP3   OH236906   0.316   2.275   1.026
12322TIP3    H136907   0.339   2.363   1.056
12322TIP3    H236908   0.221   2.277   1.016
12323TIP3   OH236909   5.864   7.687   6.306
12323TIP3    H136910   5.866   7.780   6.283
12323TIP3    H236911   5.856   7.642   6.222
12324TIP3   OH236912   5.501   6.295   6.813
12324TIP3    H136913   5.486   6.324   6.723
12324TIP3    H236914   5.594   6.277   6.817
12325TIP3   OH236915   0.276   0.118   5.897
12325TIP3    H136916   0.219   0.195   5.892
12325TIP3    H236917   0.303   0.115   5.989
12326TIP3   OH236918   4.184   4.578   2.770
12326TIP3    H136919   4.186   4.576   2.866
12326TIP3    H236920   4.160   4.668   2.749
12327TIP3   OH236921   7.157   1.570   1.162
12327TIP3    H136922   7.078   1.622   1.176
12327TIP3    H236923   7.227   1.635   1.155
12328TIP3   OH236924   5.232   2.376   6.415
12328TIP3    H136925   5.206   2.464   6.443
12328TIP3    H236926   5.289   2.344   6.485
12329TIP3   OH236927   3.078   3.123   5.627
12329TIP3    H136928   3.015   3.068   5.581
12329TIP3    H236929   3.092   3.080   5.711
12330TIP3   OH236930   0.071   7.875   5.424
12330TIP3    H136931   0.010   7.936   5.383
12330TIP3    H236932   0.051   7.790   5.386
12331TIP3   OH236933   5.656   0.367   6.657
12331TIP3    H136934   5.683   0.428   6.725
12331TIP3    H236935   5.732   0.310   6.644
12332TIP3   OH236936   2.439   3.914   1.913
12332TIP3    H136937   2.357   3.958   1.894
12332TIP3    H236938   2.473   3.887   1.828
12333TIP3   OH236939   0.993   5.641   2.458
12333TIP3    H136940   1.024   5.610   2.543
12333TIP3    H236941   1.069   5.683   2.418
12334TIP3   OH236942   7.462   6.892   1.920
12334TIP3    H136943   7.431   6.950   1.851
12334TIP3    H236944   7.413   6.919   1.998
12335TIP3   OH236945   6.980   1.035   0.422
12335TIP3    H136946   7.049   0.996   0.367
12335TIP3    H236947   7.007   1.126   0.432
12336TIP3   OH236948   3.729   4.666   5.536
12336TIP3    H136949   3.667   4.596   5.555
12336TIP3    H236950   3.800   4.623   5.488
12337TIP3   OH236951   5.353   0.722   2.872
12337TIP3    H136952   5.364   0.788   2.804
12337TIP3    H236953   5.274   0.748   2.920
12338TIP3   OH236954   7.311   5.289   5.391
12338TIP3    H136955   7.280   5.354   5.328
12338TIP3    H236956   7.368   5.338   5.450
12339TIP3   OH236957   2.791   1.693   4.157
12339TIP3    H136958   2.784   1.778   4.113
12339TIP3    H236959   2.825   1.634   4.089
12340TIP3   OH236960   6.033   0.354   4.775
12340TIP3    H136961   6.115   0.352   4.825
12340TIP3    H236962   5.980   0.421   4.818
12341TIP3   OH236963   5.705   7.593   6.538
12341TIP3    H136964   5.756   7.665   6.501
12341TIP3    H236965   5.616   7.626   6.543
12342TIP3   OH236966   7.837   2.265   6.898
12342TIP3    H136967   7.852   2.334   6.962
12342TIP3    H236968   7.775   2.303   6.836
12343TIP3   OH236969   6.318   6.267   5.948
12343TIP3    H136970   6.262   6.264   5.871
12343TIP3    H236971   6.369   6.186   5.943
12344TIP3   OH236972   0.168   3.187   0.127
12344TIP3    H136973   0.078   3.157   0.135
12344TIP3    H236974   0.175   3.219   0.036
12345TIP3   OH236975   5.462   4.869   1.416
12345TIP3    H136976   5.547   4.888   1.375
12345TIP3    H236977   5.475   4.893   1.508
12346TIP3   OH236978   5.168   0.624   1.261
12346TIP3    H136979   5.135   0.574   1.187
12346TIP3    H236980   5.181   0.559   1.330
12347TIP3   OH236981   0.125   3.046   3.884
12347TIP3    H136982   0.060   3.003   3.940
12347TIP3    H236983   0.151   3.124   3.932
12348TIP3   OH236984   0.763   3.203   2.112
12348TIP3    H136985   0.706   3.132   2.143
12348TIP3    H236986   0.773   3.186   2.018
12349TIP3   OH236987   5.143   4.009   4.247
12349TIP3    H136988   5.050   4.006   4.224
12349TIP3    H236989   5.184   3.948   4.185
12350TIP3   OH236990   7.481   4.601   2.177
12350TIP3    H136991   7.509   4.609   2.268
12350TIP3    H236992   7.553   4.556   2.133
12351TIP3   OH236993   2.793   4.879   6.120
12351TIP3    H136994   2.884   4.869   6.092
12351TIP3    H236995   2.763   4.789   6.135
12352TIP3   OH236996   6.690   3.532   1.414
12352TIP3    H136997   6.776   3.527   1.454
12352TIP3    H236998   6.637   3.469   1.462
12353TIP3   OH236999   3.035   6.955   3.792
12353TIP3    H137000   2.979   7.031   3.780
12353TIP3    H237001   3.112   6.989   3.839
12354TIP3   OH237002   3.157   0.934   2.964
12354TIP3    H137003   3.110   0.853   2.946
12354TIP3    H237004   3.232   0.932   2.904
12355TIP3   OH237005   6.353   4.393   6.038
12355TIP3    H137006   6.441   4.360   6.022
12355TIP3    H237007   6.355   4.483   6.003
12356TIP3   OH237008   1.278   0.712   3.711
12356TIP3    H137009   1.284   0.739   3.802
12356TIP3    H237010   1.204   0.761   3.675
12357TIP3   OH237011   7.766   6.157   6.038
12357TIP3    H137012   7.764   6.178   5.945
12357TIP3    H237013   7.790   6.064   6.041
12358TIP3   OH237014   2.099   6.475   1.412
12358TIP3    H137015   2.018   6.442   1.373
12358TIP3    H237016   2.071   6.515   1.494
12359TIP3   OH237017   7.068   5.667   2.925
12359TIP3    H137018   6.986   5.625   2.951
12359TIP3    H237019   7.131   5.640   2.992
12360TIP3   OH237020   8.153   1.283   5.627
12360TIP3    H137021   8.137   1.377   5.635
12360TIP3    H237022   8.071   1.247   5.594
12361TIP3   OH237023   0.333   4.580   3.412
12361TIP3    H137024   0.413   4.558   3.364
12361TIP3    H237025   0.283   4.499   3.415
12362TIP3   OH237026   8.087   3.509   4.035
12362TIP3    H137027   8.071   3.436   3.975
12362TIP3    H237028   8.122   3.578   3.979
12363TIP3   OH237029   7.572   7.288   6.795
12363TIP3    H137030   7.531   7.339   6.865
12363TIP3    H237031   7.559   7.197   6.820
12364TIP3   OH237032   8.226   3.004   2.326
12364TIP3    H137033   8.176   3.061   2.268
12364TIP3    H237034   8.309   3.050   2.340
12365TIP3   OH237035   2.805   3.827   6.697
12365TIP3    H137036   2.714   3.828   6.667
12365TIP3    H237037   2.850   3.890   6.641
12366TIP3   OH237038   1.563   1.734   2.819
12366TIP3    H137039   1.483   1.689   2.794
12366TIP3    H237040   1.539   1.787   2.894
12367TIP3   OH237041   7.840   4.566   1.289
12367TIP3    H137042   7.811   4.498   1.228
12367TIP3    H237043   7.799   4.646   1.257
12368TIP3   OH237044   4.267   1.964   2.137
12368TIP3    H137045   4.322   1.890   2.163
12368TIP3    H237046   4.203   1.973   2.208
12369TIP3   OH237047   5.373   5.715   1.953
12369TIP3    H137048   5.325   5.686   1.875
12369TIP3    H237049   5.377   5.811   1.944
12370TIP3   OH237050   1.931   7.140   2.535
12370TIP3    H137051   1.911   7.089   2.613
12370TIP3    H237052   1.914   7.231   2.560
12371TIP3   OH237053   8.327   6.615   0.778
12371TIP3    H137054   8.232   6.624   0.771
12371TIP3    H237055   8.355   6.592   0.689
12372TIP3   OH237056   5.306   5.386   0.779
12372TIP3    H137057   5.302   5.296   0.747
12372TIP3    H237058   5.379   5.425   0.731
12373TIP3   OH237059   3.825   3.583   0.752
12373TIP3    H137060   3.816   3.677   0.740
12373TIP3    H237061   3.790   3.545   0.672
12374TIP3   OH237062   4.877   5.287   3.113
12374TIP3    H137063   4.828   5.205   3.120
12374TIP3    H237064   4.896   5.311   3.204
12375TIP3   OH237065   4.438   5.291   5.575
12375TIP3    H137066   4.369   5.327   5.519
12375TIP3    H237067   4.402   5.207   5.606
12376TIP3   OH237068   3.867   5.343   3.263
12376TIP3    H137069   3.844   5.435   3.249
12376TIP3    H237070   3.961   5.344   3.280
12377TIP3   OH237071   3.073   3.655   4.544
12377TIP3    H137072   2.979   3.641   4.557
12377TIP3    H237073   3.112   3.569   4.555
12378TIP3   OH237074   2.678   0.238   5.275
12378TIP3    H137075   2.583   0.238   5.265
12378TIP3    H237076   2.709   0.179   5.206
12379TIP3   OH237077   5.527   4.826   5.000
12379TIP3    H137078   5.583   4.903   4.993
12379TIP3    H237079   5.527   4.805   5.094
12380TIP3   OH237080   0.841   7.123   6.028
12380TIP3    H137081   0.823   7.080   6.111
12380TIP3    H237082   0.778   7.084   5.967
12381TIP3   OH237083   0.289   2.124   4.778
12381TIP3    H137084   0.328   2.199   4.822
12381TIP3    H237085   0.344   2.109   4.701
12382TIP3   OH237086   1.016   3.672   1.879
12382TIP3    H137087   0.993   3.714   1.962
12382TIP3    H237088   1.059   3.741   1.828
12383TIP3   OH237089   1.152   7.100   0.292
12383TIP3    H137090   1.161   7.124   0.200
12383TIP3    H237091   1.085   7.159   0.326
12384TIP3   OH237092   8.356   3.157   0.458
12384TIP3    H137093   8.384   3.089   0.397
12384TIP3    H237094   8.261   3.147   0.465
12385TIP3   OH237095   0.524   5.367   1.756
12385TIP3    H137096   0.461   5.367   1.828
12385TIP3    H237097   0.493   5.299   1.696
12386TIP3   OH237098   7.297   2.842   5.282
12386TIP3    H137099   7.326   2.850   5.373
12386TIP3    H237100   7.364   2.888   5.231
12387TIP3   OH237101   6.864   6.262   5.029
12387TIP3    H137102   6.773   6.279   5.002
12387TIP3    H237103   6.872   6.304   5.115
12388TIP3   OH237104   7.991   7.010   2.212
12388TIP3    H137105   8.005   7.059   2.131
12388TIP3    H237106   7.958   7.075   2.273
12389TIP3   OH237107   5.254   6.553   3.720
12389TIP3    H137108   5.226   6.620   3.782
12389TIP3    H237109   5.191   6.558   3.649
12390TIP3   OH237110   0.079   0.223   0.044
12390TIP3    H137111   0.016   0.153   0.060
12390TIP3    H237112   0.129   0.229   0.125
12391TIP3   OH237113   1.845   3.685   1.618
12391TIP3    H137114   1.908   3.722   1.680
12391TIP3    H237115   1.855   3.590   1.628
12392TIP3   OH237116   4.443   1.663   4.448
12392TIP3    H137117   4.516   1.623   4.496
12392TIP3    H237118   4.420   1.740   4.500
12393TIP3   OH237119   2.659   2.119   5.956
12393TIP3    H137120   2.699   2.032   5.961
12393TIP3    H237121   2.583   2.114   6.014
12394TIP3   OH237122   3.139   5.210   0.942
12394TIP3    H137123   3.114   5.290   0.897
12394TIP3    H237124   3.217   5.179   0.896
12395TIP3   OH237125   5.783   2.645   1.506
12395TIP3    H137126   5.755   2.627   1.596
12395TIP3    H237127   5.713   2.697   1.468
12396TIP3   OH237128   5.701   0.224   6.120
12396TIP3    H137129   5.684   0.138   6.157
12396TIP3    H237130   5.797   0.233   6.123
12397TIP3   OH237131   4.681   4.736   0.417
12397TIP3    H137132   4.775   4.744   0.403
12397TIP3    H237133   4.648   4.699   0.335
12398TIP3   OH237134   4.783   7.149   2.155
12398TIP3    H137135   4.844   7.216   2.184
12398TIP3    H237136   4.837   7.071   2.142
12399TIP3   OH237137   1.261   2.796   4.284
12399TIP3    H137138   1.293   2.853   4.214
12399TIP3    H237139   1.206   2.732   4.240
12400TIP3   OH237140   7.091   0.742   5.094
12400TIP3    H137141   7.020   0.693   5.137
12400TIP3    H237142   7.170   0.691   5.114
12401TIP3   OH237143   7.692   2.236   5.237
12401TIP3    H137144   7.778   2.197   5.225
12401TIP3    H237145   7.665   2.265   5.150
12402TIP3   OH237146   7.280   0.553   4.446
12402TIP3    H137147   7.217   0.510   4.504
12402TIP3    H237148   7.283   0.496   4.369
12403TIP3   OH237149   1.674   1.472   5.367
12403TIP3    H137150   1.648   1.533   5.298
12403TIP3    H237151   1.720   1.526   5.430
12404TIP3   OH237152   4.792   1.509   4.887
12404TIP3    H137153   4.709   1.534   4.927
12404TIP3    H237154   4.767   1.457   4.811
12405TIP3   OH237155   4.051   1.506   3.107
12405TIP3    H137156   4.083   1.501   3.197
12405TIP3    H237157   3.975   1.564   3.112
12406TIP3   OH237158   6.092   6.840   5.071
12406TIP3    H137159   6.118   6.780   5.001
12406TIP3    H237160   6.174   6.868   5.111
12407TIP3   OH237161   2.041   4.013   4.176
12407TIP3    H137162   2.097   3.990   4.250
12407TIP3    H237163   2.098   4.004   4.100
12408TIP3   OH237164   5.750   1.575   3.873
12408TIP3    H137165   5.732   1.642   3.807
12408TIP3    H237166   5.773   1.497   3.823
12409TIP3   OH237167   6.356   3.528   5.014
12409TIP3    H137168   6.292   3.552   4.947
12409TIP3    H237169   6.314   3.549   5.097
12410TIP3   OH237170   0.255   7.584   4.055
12410TIP3    H137171   0.295   7.613   3.973
12410TIP3    H237172   0.168   7.553   4.029
12411TIP3   OH237173   7.825   6.131   3.331
12411TIP3    H137174   7.823   6.036   3.323
12411TIP3    H237175   7.747   6.161   3.285
12412TIP3   OH237176   5.969   4.076   6.371
12412TIP3    H137177   6.017   4.028   6.304
12412TIP3    H237178   5.993   4.033   6.453
12413TIP3   OH237179   2.233   1.846   1.882
12413TIP3    H137180   2.191   1.762   1.902
12413TIP3    H237181   2.326   1.826   1.879
12414TIP3   OH237182   1.840   2.949   5.494
12414TIP3    H137183   1.795   2.949   5.409
12414TIP3    H237184   1.784   3.004   5.550
12415TIP3   OH237185   3.294   0.661   3.218
12415TIP3    H137186   3.387   0.683   3.212
12415TIP3    H237187   3.269   0.641   3.128
12416TIP3   OH237188   0.466   6.991   0.779
12416TIP3    H137189   0.490   7.003   0.871
12416TIP3    H237190   0.425   6.905   0.777
12417TIP3   OH237191   4.450   3.116   0.211
12417TIP3    H137192   4.396   3.158   0.144
12417TIP3    H237193   4.537   3.153   0.198
12418TIP3   OH237194   6.139   2.290   0.647
12418TIP3    H137195   6.088   2.210   0.651
12418TIP3    H237196   6.196   2.287   0.724
12419TIP3   OH237197   0.894   4.343   3.555
12419TIP3    H137198   0.882   4.427   3.511
12419TIP3    H237199   0.920   4.366   3.644
12420TIP3   OH237200   4.505   0.451   1.269
12420TIP3    H137201   4.486   0.485   1.181
12420TIP3    H237202   4.560   0.374   1.254
12421TIP3   OH237203   6.223   4.424   6.835
12421TIP3    H137204   6.166   4.366   6.784
12421TIP3    H237205   6.249   4.492   6.773
12422TIP3   OH237206   7.414   7.066   4.203
12422TIP3    H137207   7.421   7.037   4.293
12422TIP3    H237208   7.503   7.062   4.168
12423TIP3   OH237209   3.416   7.325   5.069
12423TIP3    H137210   3.409   7.235   5.039
12423TIP3    H237211   3.393   7.320   5.162
12424TIP3   OH237212   5.268   6.110   1.459
12424TIP3    H137213   5.271   6.015   1.464
12424TIP3    H237214   5.225   6.137   1.540
12425TIP3   OH237215   1.510   6.929   0.727
12425TIP3    H137216   1.465   6.957   0.807
12425TIP3    H237217   1.472   6.982   0.657
12426TIP3   OH237218   7.631   3.044   1.719
12426TIP3    H137219   7.701   3.033   1.655
12426TIP3    H237220   7.566   2.977   1.697
12427TIP3   OH237221   2.712   4.386   3.381
12427TIP3    H137222   2.686   4.306   3.426
12427TIP3    H237223   2.807   4.380   3.374
12428TIP3   OH237224   0.457   3.897   5.409
12428TIP3    H137225   0.411   3.904   5.325
12428TIP3    H237226   0.536   3.847   5.388
12429TIP3   OH237227   6.361   2.983   0.889
12429TIP3    H137228   6.377   3.074   0.914
12429TIP3    H237229   6.354   2.986   0.794
12430TIP3   OH237230   6.301   4.325   3.712
12430TIP3    H137231   6.376   4.267   3.702
12430TIP3    H237232   6.227   4.265   3.723
12431TIP3   OH237233   2.088   2.517   1.272
12431TIP3    H137234   1.999   2.552   1.280
12431TIP3    H237235   2.125   2.522   1.360
12432TIP3   OH237236   3.733   6.630   3.259
12432TIP3    H137237   3.638   6.629   3.269
12432TIP3    H237238   3.750   6.698   3.194
12433TIP3   OH237239   1.442   7.044   6.112
12433TIP3    H137240   1.503   7.094   6.166
12433TIP3    H237241   1.422   7.102   6.039
12434TIP3   OH237242   5.491   1.927   4.692
12434TIP3    H137243   5.479   1.902   4.784
12434TIP3    H237244   5.496   2.022   4.693
12435TIP3   OH237245   1.725   6.736   2.747
12435TIP3    H137246   1.805   6.696   2.780
12435TIP3    H237247   1.654   6.689   2.791
12436TIP3   OH237248   3.571   6.428   6.493
12436TIP3    H137249   3.651   6.474   6.469
12436TIP3    H237250   3.583   6.405   6.585
12437TIP3   OH237251   5.737   1.589   1.024
12437TIP3    H137252   5.649   1.566   1.053
12437TIP3    H237253   5.737   1.572   0.930
12438TIP3   OH237254   8.323   3.673   1.138
12438TIP3    H137255   8.289   3.630   1.059
12438TIP3    H237256   8.406   3.627   1.156
12439TIP3   OH237257   4.781   5.301   4.991
12439TIP3    H137258   4.802   5.384   5.032
12439TIP3    H237259   4.687   5.304   4.974
12440TIP3   OH237260   2.371   7.800   5.925
12440TIP3    H137261   2.294   7.823   5.977
12440TIP3    H237262   2.437   7.775   5.990
12441TIP3   OH237263   3.005   2.006   4.203
12441TIP3    H137264   2.928   1.991   4.149
12441TIP3    H237265   3.079   1.980   4.148
12442TIP3   OH237266   0.900   5.508   4.857
12442TIP3    H137267   0.917   5.474   4.944
12442TIP3    H237268   0.985   5.508   4.813
12443TIP3   OH237269   7.136   4.102   2.675
12443TIP3    H137270   7.110   4.194   2.675
12443TIP3    H237271   7.189   4.092   2.596
12444TIP3   OH237272   7.413   5.907   4.617
12444TIP3    H137273   7.331   5.949   4.592
12444TIP3    H237274   7.421   5.924   4.710
12445TIP3   OH237275   4.327   2.727   3.193
12445TIP3    H137276   4.290   2.690   3.272
12445TIP3    H237277   4.252   2.758   3.142
12446TIP3   OH237278   1.121   5.885   2.771
12446TIP3    H137279   1.116   5.851   2.860
12446TIP3    H237280   1.190   5.832   2.730
12447TIP3   OH237281   6.326   2.509   0.245
12447TIP3    H137282   6.254   2.446   0.255
12447TIP3    H237283   6.402   2.463   0.279
12448TIP3   OH237284   7.680   3.604   5.060
12448TIP3    H137285   7.712   3.514   5.048
12448TIP3    H237286   7.706   3.649   4.979
12449TIP3   OH237287   2.146   2.428   3.253
12449TIP3    H137288   2.207   2.494   3.218
12449TIP3    H237289   2.172   2.418   3.345
12450TIP3   OH237290   0.784   3.394   2.429
12450TIP3    H137291   0.770   3.431   2.516
12450TIP3    H237292   0.711   3.333   2.416
12451TIP3   OH237293   7.662   6.928   4.615
12451TIP3    H137294   7.721   6.853   4.606
12451TIP3    H237295   7.718   7.004   4.602
12452TIP3   OH237296   6.652   7.074   3.273
12452TIP3    H137297   6.632   7.061   3.366
12452TIP3    H237298   6.722   7.012   3.254
12453TIP3   OH237299   5.383   5.132   4.064
12453TIP3    H137300   5.443   5.204   4.046
12453TIP3    H237301   5.309   5.173   4.110
12454TIP3   OH237302   8.356   6.136   4.646
12454TIP3    H137303   8.401   6.075   4.704
12454TIP3    H237304   8.345   6.089   4.564
12455TIP3   OH237305   5.531   7.016   0.808
12455TIP3    H137306   5.586   6.956   0.858
12455TIP3    H237307   5.592   7.064   0.752
12456TIP3   OH237308   0.669   0.400   5.707
12456TIP3    H137309   0.586   0.353   5.718
12456TIP3    H237310   0.681   0.446   5.791
12457TIP3   OH237311   6.958   7.867   6.811
12457TIP3    H137312   6.906   7.787   6.809
12457TIP3    H237313   7.048   7.837   6.799
12458TIP3   OH237314   6.999   4.240   4.162
12458TIP3    H137315   7.011   4.324   4.206
12458TIP3    H237316   7.082   4.225   4.116
12459TIP3   OH237317   8.204   4.366   2.346
12459TIP3    H137318   8.238   4.395   2.261
12459TIP3    H237319   8.134   4.304   2.324
12460TIP3   OH237320   3.927   0.526   4.985
12460TIP3    H137321   3.862   0.560   4.923
12460TIP3    H237322   4.003   0.505   4.930
12461TIP3   OH237323   0.460   0.723   5.636
12461TIP3    H137324   0.551   0.749   5.649
12461TIP3    H237325   0.453   0.638   5.680
12462TIP3   OH237326   3.471   6.427   1.540
12462TIP3    H137327   3.379   6.416   1.516
12462TIP3    H237328   3.499   6.340   1.569
12463TIP3   OH237329   1.893   0.376   1.321
12463TIP3    H137330   1.868   0.347   1.408
12463TIP3    H237331   1.892   0.296   1.268
12464TIP3   OH237332   3.432   2.615   0.214
12464TIP3    H137333   3.525   2.627   0.232
12464TIP3    H237334   3.387   2.671   0.277
12465TIP3   OH237335   7.298   7.233   5.520
12465TIP3    H137336   7.209   7.259   5.544
12465TIP3    H237337   7.289   7.197   5.432
12466TIP3   OH237338   6.293   3.748   1.522
12466TIP3    H137339   6.225   3.754   1.589
12466TIP3    H237340   6.250   3.775   1.441
12467TIP3   OH237341   5.745   3.967   0.908
12467TIP3    H137342   5.699   4.034   0.858
12467TIP3    H237343   5.697   3.886   0.890
12468TIP3   OH237344   2.472   1.165   5.434
12468TIP3    H137345   2.518   1.212   5.365
12468TIP3    H237346   2.528   1.090   5.454
12469TIP3   OH237347   3.990   1.297   2.159
12469TIP3    H137348   3.919   1.352   2.128
12469TIP3    H237349   3.989   1.221   2.100
12470TIP3   OH237350   7.297   1.323   0.534
12470TIP3    H137351   7.282   1.257   0.602
12470TIP3    H237352   7.280   1.406   0.578
12471TIP3   OH237353   7.502   2.435   0.786
12471TIP3    H137354   7.415   2.456   0.752
12471TIP3    H237355   7.562   2.488   0.735
12472TIP3   OH237356   0.607   2.700   0.753
12472TIP3    H137357   0.618   2.690   0.659
12472TIP3    H237358   0.558   2.782   0.763
12473TIP3   OH237359   8.352   2.909   4.072
12473TIP3    H137360   8.290   2.913   4.145
12473TIP3    H237361   8.416   2.842   4.098
12474TIP3   OH237362   2.277   7.146   3.964
12474TIP3    H137363   2.268   7.240   3.952
12474TIP3    H237364   2.306   7.136   4.055
12475TIP3   OH237365   5.370   6.751   1.231
12475TIP3    H137366   5.436   6.808   1.192
12475TIP3    H237367   5.332   6.803   1.302
12476TIP3   OH237368   7.661   5.868   1.662
12476TIP3    H137369   7.574   5.835   1.641
12476TIP3    H237370   7.648   5.922   1.740
12477TIP3   OH237371   3.417   6.047   5.275
12477TIP3    H137372   3.449   5.961   5.247
12477TIP3    H237373   3.480   6.108   5.237
12478TIP3   OH237374   7.133   7.729   2.007
12478TIP3    H137375   7.039   7.749   2.002
12478TIP3    H237376   7.151   7.680   1.927
12479TIP3   OH237377   6.804   7.754   1.247
12479TIP3    H137378   6.755   7.730   1.326
12479TIP3    H237379   6.822   7.847   1.258
12480TIP3   OH237380   4.608   2.914   6.425
12480TIP3    H137381   4.676   2.853   6.397
12480TIP3    H237382   4.569   2.874   6.502
12481TIP3   OH237383   0.866   1.247   1.511
12481TIP3    H137384   0.884   1.160   1.546
12481TIP3    H237385   0.805   1.286   1.573
12482TIP3   OH237386   0.990   6.437   5.454
12482TIP3    H137387   0.977   6.429   5.359
12482TIP3    H237388   1.071   6.389   5.471
12483TIP3   OH237389   5.752   7.918   3.209
12483TIP3    H137390   5.721   7.835   3.246
12483TIP3    H237391   5.838   7.932   3.249
12484TIP3   OH237392   3.296   7.311   5.667
12484TIP3    H137393   3.380   7.280   5.634
12484TIP3    H237394   3.232   7.253   5.626
12485TIP3   OH237395   7.779   4.702   2.841
12485TIP3    H137396   7.751   4.615   2.869
12485TIP3    H237397   7.807   4.745   2.922
12486TIP3   OH237398   3.736   5.226   5.371
12486TIP3    H137399   3.700   5.302   5.324
12486TIP3    H237400   3.709   5.239   5.462
12487TIP3   OH237401   3.723   4.330   4.217
12487TIP3    H137402   3.635   4.360   4.238
12487TIP3    H237403   3.720   4.235   4.230
12488TIP3   OH237404   4.260   2.730   4.202
12488TIP3    H137405   4.326   2.792   4.233
12488TIP3    H237406   4.206   2.713   4.280
12489TIP3   OH237407   3.532   6.736   4.793
12489TIP3    H137408   3.565   6.730   4.703
12489TIP3    H237409   3.605   6.771   4.844
12490TIP3   OH237410   8.093   5.295   1.072
12490TIP3    H137411   8.082   5.214   1.122
12490TIP3    H237412   8.011   5.305   1.024
12491TIP3   OH237413   0.609   2.975   5.125
12491TIP3    H137414   0.597   2.972   5.030
12491TIP3    H237415   0.703   2.983   5.137
12492TIP3   OH237416   2.899   4.145   3.002
12492TIP3    H137417   2.987   4.115   3.025
12492TIP3    H237418   2.843   4.068   3.015
12493TIP3   OH237419   6.171   1.142   4.260
12493TIP3    H137420   6.250   1.100   4.226
12493TIP3    H237421   6.099   1.088   4.226
12494TIP3   OH237422   3.860   4.110   0.835
12494TIP3    H137423   3.804   4.179   0.872
12494TIP3    H237424   3.913   4.155   0.769
12495TIP3   OH237425   0.136   5.978   6.226
12495TIP3    H137426   0.167   5.930   6.302
12495TIP3    H237427   0.127   6.068   6.257
12496TIP3   OH237428   0.398   4.086   3.479
12496TIP3    H137429   0.442   4.020   3.426
12496TIP3    H237430   0.389   4.161   3.420
12497TIP3   OH237431   8.060   4.601   5.993
12497TIP3    H137432   8.096   4.662   5.928
12497TIP3    H237433   8.078   4.644   6.077
12498TIP3   OH237434   4.392   4.023   0.933
12498TIP3    H137435   4.464   4.078   0.962
12498TIP3    H237436   4.433   3.961   0.872
12499TIP3   OH237437   0.653   6.492   4.061
12499TIP3    H137438   0.735   6.471   4.107
12499TIP3    H237439   0.665   6.454   3.974
12500TIP3   OH237440   5.414   2.684   3.788
12500TIP3    H137441   5.477   2.746   3.826
12500TIP3    H237442   5.459   2.648   3.711
12501TIP3   OH237443   6.488   6.423   6.746
12501TIP3    H137444   6.519   6.507   6.710
12501TIP3    H237445   6.560   6.393   6.802
12502TIP3   OH237446   5.543   5.592   1.704
12502TIP3    H137447   5.630   5.552   1.701
12502TIP3    H237448   5.534   5.636   1.619
12503TIP3   OH237449   6.729   0.051   6.064
12503TIP3    H137450   6.711   0.144   6.075
12503TIP3    H237451   6.647   0.013   6.033
12504TIP3   OH237452   6.366   5.148   1.348
12504TIP3    H137453   6.286   5.130   1.298
12504TIP3    H237454   6.340   5.136   1.439
12505TIP3   OH237455   3.279   1.589   0.537
12505TIP3    H137456   3.238   1.674   0.554
12505TIP3    H237457   3.352   1.585   0.599
12506TIP3   OH237458   2.858   1.932   6.069
12506TIP3    H137459   2.821   1.846   6.049
12506TIP3    H237460   2.854   1.937   6.165
12507TIP3   OH237461   6.592   4.495   0.677
12507TIP3    H137462   6.604   4.546   0.597
12507TIP3    H237463   6.582   4.560   0.746
12508TIP3   OH237464   1.065   4.319   2.526
12508TIP3    H137465   1.031   4.274   2.449
12508TIP3    H237466   1.019   4.280   2.600
12509TIP3   OH237467   1.596   4.003   0.153
12509TIP3    H137468   1.543   3.972   0.226
12509TIP3    H237469   1.622   3.923   0.107
12510TIP3   OH237470   3.765   5.429   1.395
12510TIP3    H137471   3.827   5.462   1.460
12510TIP3    H237472   3.735   5.507   1.348
12511TIP3   OH237473   7.974   4.724   1.590
12511TIP3    H137474   8.060   4.734   1.632
12511TIP3    H237475   7.988   4.658   1.523
12512TIP3   OH237476   4.610   1.220   0.827
12512TIP3    H137477   4.533   1.272   0.803
12512TIP3    H237478   4.583   1.173   0.906
12513TIP3   OH237479   1.306   4.529   0.644
12513TIP3    H137480   1.290   4.596   0.577
12513TIP3    H237481   1.328   4.450   0.595
12514TIP3   OH237482   1.754   6.125   1.287
12514TIP3    H137483   1.737   6.218   1.271
12514TIP3    H237484   1.845   6.121   1.314
12515TIP3   OH237485   2.973   0.228   5.509
12515TIP3    H137486   3.009   0.266   5.429
12515TIP3    H237487   2.898   0.177   5.480
12516TIP3   OH237488   7.090   5.692   1.523
12516TIP3    H137489   7.123   5.744   1.450
12516TIP3    H237490   6.998   5.675   1.501
12517TIP3   OH237491   6.701   3.338   5.583
12517TIP3    H137492   6.729   3.260   5.536
12517TIP3    H237493   6.607   3.326   5.595
12518TIP3   OH237494   7.676   1.484   0.601
12518TIP3    H137495   7.767   1.456   0.616
12518TIP3    H237496   7.624   1.424   0.654
12519TIP3   OH237497   2.407   4.881   6.798
12519TIP3    H137498   2.474   4.919   6.854
12519TIP3    H237499   2.456   4.829   6.734
12520TIP3   OH237500   1.220   0.666   5.583
12520TIP3    H137501   1.300   0.614   5.584
12520TIP3    H237502   1.217   0.703   5.495
12521TIP3   OH237503   0.813   6.240   5.129
12521TIP3    H137504   0.887   6.202   5.081
12521TIP3    H237505   0.741   6.179   5.114
12522TIP3   OH237506   5.219   1.560   5.343
12522TIP3    H137507   5.143   1.594   5.296
12522TIP3    H237508   5.207   1.465   5.342
12523TIP3   OH237509   1.399   3.739   5.651
12523TIP3    H137510   1.304   3.742   5.657
12523TIP3    H237511   1.424   3.827   5.622
12524TIP3   OH237512   3.210   0.271   5.021
12524TIP3    H137513   3.256   0.311   4.947
12524TIP3    H237514   3.143   0.216   4.981
12525TIP3   OH237515   3.868   7.075   1.012
12525TIP3    H137516   3.781   7.069   0.973
12525TIP3    H237517   3.882   6.990   1.053
12526TIP3   OH237518   7.884   7.146   4.519
12526TIP3    H137519   7.791   7.160   4.533
12526TIP3    H237520   7.925   7.228   4.548
12527TIP3   OH237521   3.424   5.504   0.644
12527TIP3    H137522   3.467   5.580   0.605
12527TIP3    H237523   3.455   5.430   0.590
12528TIP3   OH237524   1.907   6.233   2.068
12528TIP3    H137525   1.894   6.189   1.984
12528TIP3    H237526   1.818   6.243   2.103
12529TIP3   OH237527   0.840   7.752   0.428
12529TIP3    H137528   0.834   7.707   0.344
12529TIP3    H237529   0.906   7.703   0.478
12530TIP3   OH237530   6.572   5.856   6.757
12530TIP3    H137531   6.561   5.884   6.666
12530TIP3    H237532   6.587   5.936   6.806
12531TIP3   OH237533   1.656   0.202   6.746
12531TIP3    H137534   1.690   0.287   6.715
12531TIP3    H237535   1.722   0.139   6.718
12532TIP3   OH237536   4.954   7.372   4.973
12532TIP3    H137537   4.864   7.375   4.941
12532TIP3    H237538   4.984   7.463   4.965
12533TIP3   OH237539   3.134   6.769   6.375
12533TIP3    H137540   3.115   6.848   6.324
12533TIP3    H237541   3.149   6.801   6.464
12534TIP3   OH237542   3.640   1.414   2.670
12534TIP3    H137543   3.557   1.380   2.639
12534TIP3    H237544   3.634   1.509   2.657
12535TIP3   OH237545   1.425   2.359   4.336
12535TIP3    H137546   1.508   2.339   4.293
12535TIP3    H237547   1.380   2.418   4.276
12536TIP3   OH237548   6.436   7.716   1.135
12536TIP3    H137549   6.528   7.706   1.110
12536TIP3    H237550   6.412   7.631   1.171
12537TIP3   OH237551   5.781   1.596   5.539
12537TIP3    H137552   5.849   1.621   5.602
12537TIP3    H237553   5.710   1.562   5.594
12538TIP3   OH237554   7.722   4.547   0.095
12538TIP3    H137555   7.810   4.584   0.098
12538TIP3    H237556   7.725   4.485   0.022
12539TIP3   OH237557   6.515   0.651   2.688
12539TIP3    H137558   6.513   0.674   2.595
12539TIP3    H237559   6.495   0.558   2.689
12540TIP3   OH237560   5.846   1.159   1.517
12540TIP3    H137561   5.922   1.139   1.571
12540TIP3    H237562   5.862   1.247   1.483
12541TIP3   OH237563   1.219   2.892   3.673
12541TIP3    H137564   1.201   2.969   3.620
12541TIP3    H237565   1.136   2.872   3.716
12542TIP3   OH237566   8.367   7.081   2.107
12542TIP3    H137567   8.329   7.112   2.024
12542TIP3    H237568   8.397   6.992   2.087
12543TIP3   OH237569   7.954   7.523   0.386
12543TIP3    H137570   7.945   7.617   0.372
12543TIP3    H237571   7.983   7.514   0.477
12544TIP3   OH237572   1.436   1.523   0.750
12544TIP3    H137573   1.398   1.572   0.677
12544TIP3    H237574   1.523   1.497   0.718
12545TIP3   OH237575   5.713   6.816   0.921
12545TIP3    H137576   5.769   6.767   0.982
12545TIP3    H237577   5.744   6.790   0.834
12546TIP3   OH237578   4.035   7.441   0.442
12546TIP3    H137579   4.080   7.380   0.385
12546TIP3    H237580   4.096   7.453   0.516
12547TIP3   OH237581   4.268   3.746   4.489
12547TIP3    H137582   4.299   3.778   4.574
12547TIP3    H237583   4.250   3.826   4.439
12548TIP3   OH237584   2.396   4.257   1.302
12548TIP3    H137585   2.478   4.265   1.350
12548TIP3    H237586   2.331   4.299   1.358
12549TIP3   OH237587   3.519   4.232   2.128
12549TIP3    H137588   3.463   4.235   2.050
12549TIP3    H237589   3.560   4.145   2.124
12550TIP3   OH237590   1.410   5.090   6.372
12550TIP3    H137591   1.417   5.167   6.428
12550TIP3    H237592   1.344   5.114   6.307
12551TIP3   OH237593   6.379   5.446   6.148
12551TIP3    H137594   6.388   5.540   6.133
12551TIP3    H237595   6.398   5.406   6.063
12552TIP3   OH237596   2.659   7.824   3.577
12552TIP3    H137597   2.639   7.891   3.511
12552TIP3    H237598   2.704   7.872   3.647
12553TIP3   OH237599   2.980   5.993   0.659
12553TIP3    H137600   2.915   6.030   0.719
12553TIP3    H237601   3.040   6.065   0.642
12554TIP3   OH237602   2.862   6.562   1.252
12554TIP3    H137603   2.928   6.532   1.189
12554TIP3    H237604   2.885   6.653   1.268
12555TIP3   OH237605   4.174   6.063   5.555
12555TIP3    H137606   4.164   6.133   5.490
12555TIP3    H237607   4.117   5.993   5.523
12556TIP3   OH237608   7.535   5.690   5.552
12556TIP3    H137609   7.514   5.721   5.640
12556TIP3    H237610   7.591   5.758   5.515
12557TIP3   OH237611   0.603   6.060   5.057
12557TIP3    H137612   0.524   6.096   5.098
12557TIP3    H237613   0.579   6.049   4.965
12558TIP3   OH237614   2.652   0.087   0.133
12558TIP3    H137615   2.643   0.045   0.047
12558TIP3    H237616   2.580   0.150   0.137
12559TIP3   OH237617   6.253   2.606   4.408
12559TIP3    H137618   6.238   2.694   4.443
12559TIP3    H237619   6.248   2.550   4.485
12560TIP3   OH237620   1.948   5.635   6.723
12560TIP3    H137621   1.918   5.603   6.808
12560TIP3    H237622   2.039   5.605   6.716
12561TIP3   OH237623   4.029   4.751   1.837
12561TIP3    H137624   4.045   4.834   1.793
12561TIP3    H237625   4.111   4.730   1.880
12562TIP3   OH237626   8.201   4.811   4.608
12562TIP3    H137627   8.116   4.823   4.650
12562TIP3    H237628   8.198   4.724   4.569
12563TIP3   OH237629   2.614   6.600   3.245
12563TIP3    H137630   2.684   6.639   3.193
12563TIP3    H237631   2.565   6.546   3.182
12564TIP3   OH237632   3.740   5.812   5.621
12564TIP3    H137633   3.664   5.782   5.572
12564TIP3    H237634   3.708   5.884   5.675
12565TIP3   OH237635   4.194   1.206   1.286
12565TIP3    H137636   4.162   1.122   1.320
12565TIP3    H237637   4.249   1.240   1.356
12566TIP3   OH237638   5.802   3.282   1.588
12566TIP3    H137639   5.768   3.200   1.624
12566TIP3    H237640   5.831   3.332   1.665
12567TIP3   OH237641   3.435   6.885   0.468
12567TIP3    H137642   3.388   6.968   0.460
12567TIP3    H237643   3.438   6.867   0.562
12568TIP3   OH237644   0.470   1.125   6.477
12568TIP3    H137645   0.428   1.048   6.439
12568TIP3    H237646   0.554   1.094   6.509
12569TIP3   OH237647   4.868   4.754   5.008
12569TIP3    H137648   4.786   4.713   5.037
12569TIP3    H237649   4.858   4.846   5.030
12570TIP3   OH237650   7.186   1.858   5.143
12570TIP3    H137651   7.226   1.936   5.105
12570TIP3    H237652   7.248   1.788   5.125
12571TIP3   OH237653   1.570   4.312   2.835
12571TIP3    H137654   1.517   4.391   2.839
12571TIP3    H237655   1.613   4.316   2.749
12572TIP3   OH237656   4.089  -0.014   2.968
12572TIP3    H137657   4.061  -0.008   2.876
12572TIP3    H237658   4.017   0.026   3.017
12573TIP3   OH237659   3.250   5.104   2.139
12573TIP3    H137660   3.299   5.155   2.075
12573TIP3    H237661   3.158   5.124   2.120
12574TIP3   OH237662   7.483   0.573   6.150
12574TIP3    H137663   7.492   0.589   6.056
12574TIP3    H237664   7.461   0.658   6.188
12575TIP3   OH237665   4.209   7.915   2.008
12575TIP3    H137666   4.225   8.008   2.024
12575TIP3    H237667   4.244   7.871   2.085
12576TIP3   OH237668   0.194   7.047   6.122
12576TIP3    H137669   0.275   7.026   6.169
12576TIP3    H237670   0.211   7.134   6.084
12577TIP3   OH237671   1.780   4.061   3.599
12577TIP3    H137672   1.718   3.997   3.637
12577TIP3    H237673   1.863   4.013   3.594
12578TIP3   OH237674   3.171   3.952   5.775
12578TIP3    H137675   3.218   3.932   5.856
12578TIP3    H237676   3.235   4.001   5.723
12579TIP3   OH237677   2.429   6.070   2.767
12579TIP3    H137678   2.443   5.977   2.781
12579TIP3    H237679   2.372   6.075   2.690
12580TIP3   OH237680   0.393   2.966   1.348
12580TIP3    H137681   0.461   2.976   1.282
12580TIP3    H237682   0.440   2.955   1.431
12581TIP3   OH237683   6.402   4.376   4.008
12581TIP3    H137684   6.365   4.371   3.920
12581TIP3    H237685   6.496   4.386   3.994
12582TIP3   OH237686   3.012   3.341   1.805
12582TIP3    H137687   3.004   3.416   1.746
12582TIP3    H237688   3.072   3.281   1.760
12583TIP3   OH237689   1.924   6.571   6.494
12583TIP3    H137690   1.957   6.661   6.503
12583TIP3    H237691   1.879   6.553   6.576
12584TIP3   OH237692   1.591   3.877   6.467
12584TIP3    H137693   1.502   3.879   6.502
12584TIP3    H237694   1.631   3.959   6.498
12585TIP3   OH237695   2.518   6.954   5.110
12585TIP3    H137696   2.577   6.965   5.035
12585TIP3    H237697   2.472   6.872   5.092
12586TIP3   OH237698   2.324   1.109   3.712
12586TIP3    H137699   2.308   1.021   3.679
12586TIP3    H237700   2.315   1.166   3.636
12587TIP3   OH237701   5.382   7.867   3.203
12587TIP3    H137702   5.385   7.875   3.108
12587TIP3    H237703   5.406   7.776   3.220
12588TIP3   OH237704   0.407   7.233   3.807
12588TIP3    H137705   0.419   7.327   3.795
12588TIP3    H237706   0.346   7.207   3.738
12589TIP3   OH237707   6.788   1.983   4.004
12589TIP3    H137708   6.843   1.906   3.988
12589TIP3    H237709   6.783   1.989   4.100
12590TIP3   OH237710   4.841   1.998   4.371
12590TIP3    H137711   4.936   2.010   4.374
12590TIP3    H237712   4.829   1.921   4.316
12591TIP3   OH237713   3.523   1.976   3.821
12591TIP3    H137714   3.525   1.921   3.899
12591TIP3    H237715   3.496   1.917   3.751
12592TIP3   OH237716   7.985   3.097   3.526
12592TIP3    H137717   7.962   3.042   3.601
12592TIP3    H237718   7.901   3.118   3.485
12593TIP3   OH237719   7.365   2.117   0.500
12593TIP3    H137720   7.350   2.061   0.424
12593TIP3    H237721   7.324   2.071   0.573
12594TIP3   OH237722   2.329   7.439   4.178
12594TIP3    H137723   2.412   7.402   4.148
12594TIP3    H237724   2.268   7.422   4.107
12595TIP3   OH237725   4.292   5.788   3.358
12595TIP3    H137726   4.262   5.704   3.392
12595TIP3    H237727   4.382   5.771   3.330
12596TIP3   OH237728   7.645   5.057   4.746
12596TIP3    H137729   7.588   5.019   4.813
12596TIP3    H237730   7.588   5.070   4.670
12597TIP3   OH237731   4.181   1.881   5.097
12597TIP3    H137732   4.105   1.837   5.137
12597TIP3    H237733   4.195   1.834   5.014
12598TIP3   OH237734   4.148   6.268   6.050
12598TIP3    H137735   4.196   6.214   5.987
12598TIP3    H237736   4.176   6.235   6.135
12599TIP3   OH237737   7.041   2.076   2.254
12599TIP3    H137738   6.991   2.051   2.177
12599TIP3    H237739   7.022   2.169   2.267
12600TIP3   OH237740   7.551   7.798   5.978
12600TIP3    H137741   7.574   7.779   5.887
12600TIP3    H237742   7.516   7.716   6.012
12601TIP3   OH237743   1.365   6.940   4.937
12601TIP3    H137744   1.291   6.993   4.968
12601TIP3    H237745   1.404   6.905   5.016
12602TIP3   OH237746   5.714   4.742   2.634
12602TIP3    H137747   5.786   4.680   2.626
12602TIP3    H237748   5.744   4.821   2.588
12603TIP3   OH237749   3.098   4.417   2.211
12603TIP3    H137750   3.185   4.446   2.185
12603TIP3    H237751   3.111   4.380   2.299
12604TIP3   OH237752   1.033   3.396   1.585
12604TIP3    H137753   1.056   3.387   1.492
12604TIP3    H237754   1.089   3.332   1.629
12605TIP3   OH237755   7.522   7.054   5.588
12605TIP3    H137756   7.547   7.146   5.592
12605TIP3    H237757   7.547   7.026   5.500
12606TIP3   OH237758   7.088   4.229   5.028
12606TIP3    H137759   7.165   4.174   5.045
12606TIP3    H237760   7.013   4.173   5.047
12607TIP3   OH237761   3.693   1.662   4.710
12607TIP3    H137762   3.727   1.573   4.719
12607TIP3    H237763   3.690   1.697   4.799
12608TIP3   OH237764   1.243   2.102   3.051
12608TIP3    H137765   1.184   2.029   3.070
12608TIP3    H237766   1.205   2.144   2.974
12609TIP3   OH237767   6.582   7.496   0.774
12609TIP3    H137768   6.609   7.565   0.836
12609TIP3    H237769   6.588   7.537   0.688
12610TIP3   OH237770   4.589   5.228   0.041
12610TIP3    H137771   4.550   5.147   0.075
12610TIP3    H237772   4.531   5.255  -0.030
12611TIP3   OH237773   4.125   6.729   5.698
12611TIP3    H137774   4.137   6.648   5.648
12611TIP3    H237775   4.206   6.778   5.685
12612TIP3   OH237776   5.622   5.742   3.482
12612TIP3    H137777   5.536   5.783   3.479
12612TIP3    H237778   5.604   5.648   3.480
12613TIP3   OH237779   2.998   4.952   2.560
12613TIP3    H137780   3.029   5.038   2.533
12613TIP3    H237781   3.065   4.891   2.529
12614TIP3   OH237782   5.168   6.639   4.139
12614TIP3    H137783   5.100   6.667   4.201
12614TIP3    H237784   5.168   6.707   4.071
12615TIP3   OH237785   0.086   1.170   5.085
12615TIP3    H137786   0.120   1.197   5.000
12615TIP3    H237787   0.147   1.207   5.148
12616TIP3   OH237788   3.447   4.484   0.296
12616TIP3    H137789   3.436   4.393   0.267
12616TIP3    H237790   3.505   4.523   0.230
12617TIP3   OH237791   6.538   0.207   6.691
12617TIP3    H137792   6.595   0.143   6.733
12617TIP3    H237793   6.552   0.195   6.597
12618TIP3   OH237794   0.460   4.773   5.605
12618TIP3    H137795   0.408   4.808   5.677
12618TIP3    H237796   0.515   4.846   5.578
12619TIP3   OH237797   7.118   3.698   2.185
12619TIP3    H137798   7.040   3.739   2.146
12619TIP3    H237799   7.087   3.663   2.269
12620TIP3   OH237800   3.844   4.930   1.294
12620TIP3    H137801   3.758   4.957   1.261
12620TIP3    H237802   3.848   4.836   1.277
12621TIP3   OH237803   5.713   3.227   3.549
12621TIP3    H137804   5.683   3.137   3.565
12621TIP3    H237805   5.670   3.279   3.617
12622TIP3   OH237806   6.907   1.496   0.568
12622TIP3    H137807   6.831   1.538   0.529
12622TIP3    H237808   6.955   1.567   0.610
12623TIP3   OH237809   0.834   5.467   5.779
12623TIP3    H137810   0.798   5.449   5.692
12623TIP3    H237811   0.759   5.499   5.830
12624TIP3   OH237812   3.686   0.381   0.950
12624TIP3    H137813   3.597   0.415   0.957
12624TIP3    H237814   3.724   0.429   0.877
12625TIP3   OH237815   0.746   6.718   1.338
12625TIP3    H137816   0.793   6.801   1.334
12625TIP3    H237817   0.717   6.712   1.429
12626TIP3   OH237818   4.009   5.459   6.573
12626TIP3    H137819   4.018   5.426   6.484
12626TIP3    H237820   4.045   5.548   6.569
12627TIP3   OH237821   0.431   4.760   3.029
12627TIP3    H137822   0.389   4.811   2.959
12627TIP3    H237823   0.372   4.686   3.043
12628TIP3   OH237824   3.763   7.401   0.745
12628TIP3    H137825   3.753   7.354   0.662
12628TIP3    H237826   3.688   7.373   0.798
12629TIP3   OH237827   4.004   7.328   1.048
12629TIP3    H137828   4.026   7.382   0.972
12629TIP3    H237829   3.942   7.264   1.015
12630TIP3   OH237830   0.685   6.751   3.940
12630TIP3    H137831   0.665   6.670   3.986
12630TIP3    H237832   0.601   6.779   3.903
12631TIP3   OH237833   0.310   2.275   1.377
12631TIP3    H137834   0.367   2.257   1.303
12631TIP3    H237835   0.233   2.219   1.362
12632TIP3   OH237836   7.995   7.772   3.182
12632TIP3    H137837   8.026   7.780   3.092
12632TIP3    H237838   7.900   7.761   3.173
12633TIP3   OH237839   0.541   1.559   1.083
12633TIP3    H137840   0.489   1.517   1.015
12633TIP3    H237841   0.595   1.489   1.119
12634TIP3   OH237842   6.640   2.219   1.289
12634TIP3    H137843   6.545   2.204   1.288
12634TIP3    H237844   6.677   2.132   1.306
12635TIP3   OH237845   6.024   1.312   4.834
12635TIP3    H137846   6.095   1.370   4.861
12635TIP3    H237847   5.957   1.324   4.901
12636TIP3   OH237848   0.747   0.786   2.891
12636TIP3    H137849   0.806   0.861   2.891
12636TIP3    H237850   0.790   0.721   2.947
12637TIP3   OH237851   0.269   0.011   6.745
12637TIP3    H137852   0.272   0.066   6.823
12637TIP3    H237853   0.184  -0.033   6.749
12638TIP3   OH237854   8.238   6.365   2.737
12638TIP3    H137855   8.276   6.330   2.657
12638TIP3    H237856   8.281   6.317   2.808
12639TIP3   OH237857   6.416   0.976   3.337
12639TIP3    H137858   6.504   0.944   3.358
12639TIP3    H237859   6.359   0.936   3.404
12640TIP3   OH237860   2.475   4.221   2.515
12640TIP3    H137861   2.498   4.268   2.435
12640TIP3    H237862   2.539   4.151   2.521
12641TIP3   OH237863   1.864   2.775   0.741
12641TIP3    H137864   1.918   2.704   0.777
12641TIP3    H237865   1.813   2.733   0.672
12642TIP3   OH237866   5.914   3.596   6.800
12642TIP3    H137867   5.832   3.630   6.838
12642TIP3    H237868   5.922   3.642   6.716
12643TIP3   OH237869   7.890   6.417   6.770
12643TIP3    H137870   7.863   6.345   6.713
12643TIP3    H237871   7.898   6.492   6.710
12644TIP3   OH237872   0.363   1.634   1.658
12644TIP3    H137873   0.442   1.687   1.646
12644TIP3    H237874   0.291   1.694   1.639
12645TIP3   OH237875   4.013   3.026   3.891
12645TIP3    H137876   4.057   2.990   3.813
12645TIP3    H237877   3.924   3.048   3.860
12646TIP3   OH237878   7.758   1.751   0.119
12646TIP3    H137879   7.724   1.836   0.144
12646TIP3    H237880   7.796   1.764   0.032
12647TIP3   OH237881   4.319   2.890   3.923
12647TIP3    H137882   4.278   2.847   3.998
12647TIP3    H237883   4.276   2.852   3.846
12648TIP3   OH237884   6.241   6.520   4.333
12648TIP3    H137885   6.271   6.430   4.344
12648TIP3    H237886   6.246   6.558   4.421
12649TIP3   OH237887   0.125   1.257   3.664
12649TIP3    H137888   0.058   1.222   3.724
12649TIP3    H237889   0.205   1.211   3.688
12650TIP3   OH237890   7.212   7.212   1.574
12650TIP3    H137891   7.134   7.266   1.557
12650TIP3    H237892   7.273   7.234   1.504
12651TIP3   OH237893   6.794   4.798   3.578
12651TIP3    H137894   6.710   4.841   3.561
12651TIP3    H237895   6.816   4.756   3.494
12652TIP3   OH237896   1.311   5.394   5.387
12652TIP3    H137897   1.313   5.303   5.357
12652TIP3    H237898   1.296   5.387   5.482
12653TIP3   OH237899   8.334   6.398   3.105
12653TIP3    H137900   8.344   6.395   3.200
12653TIP3    H237901   8.284   6.320   3.083
12654TIP3   OH237902   5.796   6.656   5.550
12654TIP3    H137903   5.882   6.693   5.534
12654TIP3    H237904   5.736   6.713   5.502
12655TIP3   OH237905   4.042   5.950   0.468
12655TIP3    H137906   4.058   5.866   0.424
12655TIP3    H237907   4.075   6.015   0.406
12656TIP3   OH237908   2.283   0.622   2.503
12656TIP3    H137909   2.354   0.580   2.456
12656TIP3    H237910   2.204   0.598   2.455
12657TIP3   OH237911   2.510   3.977   6.373
12657TIP3    H137912   2.532   3.909   6.437
12657TIP3    H237913   2.454   4.038   6.421
12658TIP3   OH237914   4.318   6.721   6.256
12658TIP3    H137915   4.240   6.666   6.254
12658TIP3    H237916   4.391   6.659   6.251
12659TIP3   OH237917   1.357   6.840   6.284
12659TIP3    H137918   1.394   6.899   6.218
12659TIP3    H237919   1.324   6.898   6.352
12660TIP3   OH237920   0.199   7.477   1.764
12660TIP3    H137921   0.291   7.471   1.789
12660TIP3    H237922   0.150   7.455   1.843
12661TIP3   OH237923   3.784   3.290   5.676
12661TIP3    H137924   3.751   3.261   5.762
12661TIP3    H237925   3.860   3.344   5.696
12662TIP3   OH237926   0.115   7.796   6.835
12662TIP3    H137927   0.129   7.790   6.740
12662TIP3    H237928   0.201   7.784   6.873
12663TIP3   OH237929   6.451   2.960   4.616
12663TIP3    H137930   6.448   2.878   4.666
12663TIP3    H237931   6.431   3.027   4.681
12664TIP3   OH237932   5.718   3.789   4.276
12664TIP3    H137933   5.723   3.699   4.243
12664TIP3    H237934   5.723   3.780   4.371
12665TIP3   OH237935   2.347   7.808   0.594
12665TIP3    H137936   2.333   7.899   0.617
12665TIP3    H237937   2.289   7.793   0.519
12666TIP3   OH237938   5.053   0.612   0.816
12666TIP3    H137939   5.139   0.652   0.803
12666TIP3    H237940   4.994   0.686   0.831
12667TIP3   OH237941   3.230   6.928   2.275
12667TIP3    H137942   3.279   6.865   2.222
12667TIP3    H237943   3.140   6.894   2.277
12668TIP3   OH237944   3.565   6.018   6.203
12668TIP3    H137945   3.500   6.056   6.263
12668TIP3    H237946   3.553   6.065   6.121
12669TIP3   OH237947   5.064   7.386   0.244
12669TIP3    H137948   5.147   7.431   0.237
12669TIP3    H237949   5.069   7.316   0.179
12670TIP3   OH237950   6.442   5.328   4.901
12670TIP3    H137951   6.419   5.262   4.835
12670TIP3    H237952   6.516   5.290   4.948
12671TIP3   OH237953   0.375   4.522   1.738
12671TIP3    H137954   0.396   4.443   1.689
12671TIP3    H237955   0.459   4.567   1.749
12672TIP3   OH237956   6.092   2.183   6.155
12672TIP3    H137957   6.032   2.193   6.081
12672TIP3    H237958   6.140   2.103   6.137
12673TIP3   OH237959   7.441   6.802   5.683
12673TIP3    H137960   7.531   6.771   5.673
12673TIP3    H237961   7.446   6.896   5.664
12674TIP3   OH237962   0.571   4.381   2.503
12674TIP3    H137963   0.629   4.345   2.436
12674TIP3    H237964   0.497   4.416   2.453
12675TIP3   OH237965   3.838   0.280   6.233
12675TIP3    H137966   3.778   0.234   6.292
12675TIP3    H237967   3.828   0.372   6.257
12676TIP3   OH237968   3.365   6.341   6.729
12676TIP3    H137969   3.457   6.355   6.752
12676TIP3    H237970   3.367   6.277   6.658
12677TIP3   OH237971   2.427   6.062   3.567
12677TIP3    H137972   2.477   6.041   3.489
12677TIP3    H237973   2.339   6.083   3.535
12678TIP3   OH237974   3.445   1.899   2.763
12678TIP3    H137975   3.516   1.961   2.778
12678TIP3    H237976   3.402   1.929   2.683
12679TIP3   OH237977   7.844   7.720   2.012
12679TIP3    H137978   7.799   7.641   2.042
12679TIP3    H237979   7.930   7.716   2.054
12680TIP3   OH237980   1.737   1.507   5.736
12680TIP3    H137981   1.743   1.584   5.680
12680TIP3    H237982   1.643   1.498   5.754
12681TIP3   OH237983   1.996   3.878   1.265
12681TIP3    H137984   1.908   3.884   1.228
12681TIP3    H237985   2.023   3.969   1.280
12682TIP3   OH237986   7.669   1.869   1.757
12682TIP3    H137987   7.639   1.859   1.847
12682TIP3    H237988   7.647   1.786   1.715
12683TIP3   OH237989   4.255   4.986   2.032
12683TIP3    H137990   4.349   5.002   2.047
12683TIP3    H237991   4.211   5.064   2.066
12684TIP3   OH237992   7.482   6.357   2.879
12684TIP3    H137993   7.512   6.422   2.815
12684TIP3    H237994   7.387   6.365   2.877
12685TIP3   OH237995   2.632   4.553   0.921
12685TIP3    H137996   2.548   4.598   0.908
12685TIP3    H237997   2.609   4.474   0.970
12686TIP3   OH237998   3.751   6.783   3.691
12686TIP3    H137999   3.711   6.788   3.778
12686TIP3    H238000   3.787   6.694   3.686
12687TIP3   OH238001   5.926   2.212   3.072
12687TIP3    H138002   5.932   2.153   3.148
12687TIP3    H238003   5.851   2.268   3.091
12688TIP3   OH238004   4.125   5.903   1.001
12688TIP3    H138005   4.185   5.855   1.059
12688TIP3    H238006   4.178   5.973   0.963
12689TIP3   OH238007   5.520   6.691   2.425
12689TIP3    H138008   5.474   6.608   2.411
12689TIP3    H238009   5.611   6.667   2.438
12690TIP3   OH238010   3.429   3.859   6.380
12690TIP3    H138011   3.479   3.837   6.458
12690TIP3    H238012   3.345   3.815   6.391
12691TIP3   OH238013   0.946   1.965   1.711
12691TIP3    H138014   0.875   2.006   1.760
12691TIP3    H238015   0.901   1.908   1.648
12692TIP3   OH238016   6.365   6.732   3.557
12692TIP3    H138017   6.442   6.751   3.611
12692TIP3    H238018   6.393   6.661   3.500
12693TIP3   OH238019   1.732   1.657   5.132
12693TIP3    H138020   1.811   1.710   5.121
12693TIP3    H238021   1.661   1.721   5.133
12694TIP3   OH238022   0.110   2.253   5.731
12694TIP3    H138023   0.100   2.162   5.759
12694TIP3    H238024   0.202   2.273   5.750
12695TIP3   OH238025   7.181   2.130   6.561
12695TIP3    H138026   7.276   2.133   6.553
12695TIP3    H238027   7.149   2.133   6.470
12696TIP3   OH238028   6.924   4.391   3.717
12696TIP3    H138029   6.986   4.422   3.783
12696TIP3    H238030   6.863   4.464   3.705
12697TIP3   OH238031   7.263   5.834   6.177
12697TIP3    H138032   7.306   5.807   6.259
12697TIP3    H238033   7.249   5.928   6.187
12698TIP3   OH238034   8.136   5.445   4.397
12698TIP3    H138035   8.064   5.388   4.369
12698TIP3    H238036   8.156   5.498   4.319
12699TIP3   OH238037   6.810   3.582   0.665
12699TIP3    H138038   6.850   3.559   0.749
12699TIP3    H238039   6.716   3.582   0.683
12700TIP3   OH238040   3.718   1.059   6.451
12700TIP3    H138041   3.670   1.059   6.533
12700TIP3    H238042   3.797   1.007   6.469
12701TIP3   OH238043   1.092   4.224   0.710
12701TIP3    H138044   1.036   4.274   0.651
12701TIP3    H238045   1.037   4.205   0.785
12702TIP3   OH238046   3.260   3.399   5.822
12702TIP3    H138047   3.295   3.322   5.868
12702TIP3    H238048   3.166   3.385   5.820
12703TIP3   OH238049   1.396   5.042   1.290
12703TIP3    H138050   1.380   5.092   1.210
12703TIP3    H238051   1.405   5.109   1.358
12704TIP3   OH238052   7.678   0.579   3.185
12704TIP3    H138053   7.743   0.538   3.128
12704TIP3    H238054   7.692   0.673   3.174
12705TIP3   OH238055   2.595   2.410   2.206
12705TIP3    H138056   2.654   2.474   2.168
12705TIP3    H238057   2.614   2.411   2.300
12706TIP3   OH238058   4.541   2.521   6.037
12706TIP3    H138059   4.491   2.479   6.107
12706TIP3    H238060   4.581   2.449   5.989
12707TIP3   OH238061   6.418   2.269   6.770
12707TIP3    H138062   6.437   2.363   6.772
12707TIP3    H238063   6.473   2.235   6.700
12708TIP3   OH238064   0.626   6.691   6.528
12708TIP3    H138065   0.580   6.767   6.565
12708TIP3    H238066   0.606   6.620   6.589
12709TIP3   OH238067   2.559   0.823   2.869
12709TIP3    H138068   2.528   0.913   2.869
12709TIP3    H238069   2.481   0.770   2.852
12710TIP3   OH238070   6.890   0.980   0.744
12710TIP3    H138071   6.809   1.030   0.749
12710TIP3    H238072   6.957   1.044   0.721
12711TIP3   OH238073   3.065   4.245   1.359
12711TIP3    H138074   3.050   4.318   1.299
12711TIP3    H238075   3.157   4.253   1.383
12712TIP3   OH238076   3.489   0.505   2.929
12712TIP3    H138077   3.443   0.545   2.855
12712TIP3    H238078   3.436   0.429   2.951
12713TIP3   OH238079   7.380   4.098   1.734
12713TIP3    H138080   7.457   4.154   1.744
12713TIP3    H238081   7.384   4.068   1.643
12714TIP3   OH238082   7.965   0.632   2.541
12714TIP3    H138083   8.020   0.626   2.463
12714TIP3    H238084   7.968   0.544   2.579
12715TIP3   OH238085   1.689   6.571   5.957
12715TIP3    H138086   1.719   6.627   5.886
12715TIP3    H238087   1.679   6.630   6.032
12716TIP3   OH238088   5.395   1.538   0.833
12716TIP3    H138089   5.426   1.514   0.920
12716TIP3    H238090   5.464   1.507   0.774
12717TIP3   OH238091   6.377   4.016   2.061
12717TIP3    H138092   6.358   3.991   1.971
12717TIP3    H238093   6.299   3.993   2.110
12718TIP3   OH238094   0.192   2.293   2.484
12718TIP3    H138095   0.228   2.339   2.408
12718TIP3    H238096   0.171   2.205   2.451
12719TIP3   OH238097   1.184   1.717   6.744
12719TIP3    H138098   1.173   1.653   6.674
12719TIP3    H238099   1.103   1.766   6.745
12720TIP3   OH238100   2.239   3.491   6.505
12720TIP3    H138101   2.300   3.457   6.571
12720TIP3    H238102   2.170   3.424   6.501
12721TIP3   OH238103   7.736   3.347   5.038
12721TIP3    H138104   7.731   3.252   5.022
12721TIP3    H238105   7.797   3.379   4.971
12722TIP3   OH238106   2.246   6.008   2.571
12722TIP3    H138107   2.171   6.030   2.627
12722TIP3    H238108   2.229   6.054   2.489
12723TIP3   OH238109   6.926   1.174   1.147
12723TIP3    H138110   7.000   1.117   1.165
12723TIP3    H238111   6.849   1.121   1.168
12724TIP3   OH238112   2.190   7.731   5.127
12724TIP3    H138113   2.259   7.794   5.108
12724TIP3    H238114   2.113   7.784   5.147
12725TIP3   OH238115   5.660   4.744   5.579
12725TIP3    H138116   5.583   4.742   5.636
12725TIP3    H238117   5.690   4.834   5.582
12726TIP3   OH238118   3.154   1.478   4.813
12726TIP3    H138119   3.117   1.562   4.786
12726TIP3    H238120   3.089   1.440   4.871
12727TIP3   OH238121   2.816   1.958   3.537
12727TIP3    H138122   2.828   2.030   3.475
12727TIP3    H238123   2.891   1.966   3.596
12728TIP3   OH238124   5.207   2.470   0.368
12728TIP3    H138125   5.194   2.426   0.284
12728TIP3    H238126   5.122   2.465   0.411
12729TIP3   OH238127   6.943   0.608   5.520
12729TIP3    H138128   6.978   0.642   5.438
12729TIP3    H238129   6.849   0.622   5.513
12730TIP3   OH238130   7.324   2.913   0.587
12730TIP3    H138131   7.398   2.897   0.529
12730TIP3    H238132   7.249   2.872   0.543
12731TIP3   OH238133   1.855   4.466   3.271
12731TIP3    H138134   1.853   4.372   3.293
12731TIP3    H238135   1.865   4.468   3.176
12732TIP3   OH238136   3.661   3.192   3.611
12732TIP3    H138137   3.643   3.193   3.706
12732TIP3    H238138   3.755   3.182   3.605
12733TIP3   OH238139   7.670   4.390   2.120
12733TIP3    H138140   7.622   4.312   2.095
12733TIP3    H238141   7.678   4.440   2.039
12734TIP3   OH238142   2.647   5.687   1.846
12734TIP3    H138143   2.706   5.645   1.783
12734TIP3    H238144   2.705   5.725   1.912
12735TIP3   OH238145   6.089   2.722   5.453
12735TIP3    H138146   6.146   2.717   5.530
12735TIP3    H238147   6.026   2.791   5.475
12736TIP3   OH238148   2.968   2.186   4.978
12736TIP3    H138149   2.957   2.215   4.888
12736TIP3    H238150   3.041   2.124   4.975
12737TIP3   OH238151   4.598   0.129   1.982
12737TIP3    H138152   4.595   0.185   1.905
12737TIP3    H238153   4.536   0.169   2.043
12738TIP3   OH238154   5.907   6.347   2.427
12738TIP3    H138155   5.968   6.296   2.480
12738TIP3    H238156   5.954   6.363   2.345
12739TIP3   OH238157   0.628   7.292   1.953
12739TIP3    H138158   0.595   7.289   2.043
12739TIP3    H238159   0.663   7.205   1.937
12740TIP3   OH238160   2.595   2.073   4.507
12740TIP3    H138161   2.613   2.167   4.511
12740TIP3    H238162   2.499   2.067   4.508
12741TIP3   OH238163   0.239   4.494   6.099
12741TIP3    H138164   0.256   4.406   6.066
12741TIP3    H238165   0.283   4.497   6.184
12742TIP3   OH238166   2.756   2.684   1.038
12742TIP3    H138167   2.674   2.727   1.015
12742TIP3    H238168   2.751   2.598   0.997
12743TIP3   OH238169   7.287   7.300   6.768
12743TIP3    H138170   7.303   7.316   6.861
12743TIP3    H238171   7.343   7.362   6.722
12744TIP3   OH238172   6.259   0.687   1.660
12744TIP3    H138173   6.295   0.727   1.582
12744TIP3    H238174   6.196   0.623   1.628
12745TIP3   OH238175   3.443   7.498   1.387
12745TIP3    H138176   3.517   7.508   1.447
12745TIP3    H238177   3.377   7.560   1.420
12746TIP3   OH238178   3.540   1.511   0.611
12746TIP3    H138179   3.532   1.449   0.538
12746TIP3    H238180   3.634   1.532   0.614
12747TIP3   OH238181   0.261   7.848   0.922
12747TIP3    H138182   0.262   7.856   0.827
12747TIP3    H238183   0.175   7.813   0.942
12748TIP3   OH238184   3.581   6.114   0.944
12748TIP3    H138185   3.579   6.117   1.039
12748TIP3    H238186   3.507   6.059   0.919
12749TIP3   OH238187   4.528   3.367   2.579
12749TIP3    H138188   4.595   3.326   2.634
12749TIP3    H238189   4.543   3.333   2.492
12750TIP3   OH238190   6.760   5.741   2.159
12750TIP3    H138191   6.777   5.810   2.095
12750TIP3    H238192   6.790   5.661   2.116
12751TIP3   OH238193   4.352   6.859   5.175
12751TIP3    H138194   4.379   6.837   5.264
12751TIP3    H238195   4.434   6.861   5.125
12752TIP3   OH238196   4.903   1.005   4.057
12752TIP3    H138197   4.877   1.092   4.028
12752TIP3    H238198   4.998   1.004   4.047
12753TIP3   OH238199   6.091   1.455   6.014
12753TIP3    H138200   6.182   1.433   6.034
12753TIP3    H238201   6.042   1.377   6.041
12754TIP3   OH238202   1.816   7.011   6.490
12754TIP3    H138203   1.762   7.051   6.558
12754TIP3    H238204   1.757   6.951   6.445
12755TIP3   OH238205   7.622   6.505   2.695
12755TIP3    H138206   7.676   6.578   2.665
12755TIP3    H238207   7.683   6.432   2.705
12756TIP3   OH238208   8.287   5.091   1.692
12756TIP3    H138209   8.332   5.174   1.705
12756TIP3    H238210   8.253   5.068   1.778
12757TIP3   OH238211   6.948   6.908   5.790
12757TIP3    H138212   6.889   6.921   5.716
12757TIP3    H238213   7.033   6.938   5.758
12758TIP3   OH238214   5.211   0.336   4.518
12758TIP3    H138215   5.234   0.327   4.611
12758TIP3    H238216   5.143   0.270   4.504
12759TIP3   OH238217   5.551   4.573   3.076
12759TIP3    H138218   5.548   4.483   3.042
12759TIP3    H238219   5.618   4.570   3.145
12760TIP3   OH238220   4.836   4.983   5.911
12760TIP3    H138221   4.915   4.930   5.895
12760TIP3    H238222   4.842   5.008   6.003
12761TIP3   OH238223   6.590   5.642   3.018
12761TIP3    H138224   6.512   5.654   2.964
12761TIP3    H238225   6.557   5.637   3.108
12762TIP3   OH238226   6.432   4.688   1.865
12762TIP3    H138227   6.406   4.777   1.887
12762TIP3    H238228   6.357   4.634   1.890
12763TIP3   OH238229   6.527   3.409   5.288
12763TIP3    H138230   6.608   3.359   5.291
12763TIP3    H238231   6.553   3.498   5.311
12764TIP3   OH238232   2.750   4.703   4.160
12764TIP3    H138233   2.768   4.693   4.067
12764TIP3    H238234   2.820   4.761   4.192
12765TIP3   OH238235   1.612   3.378   5.370
12765TIP3    H138236   1.578   3.290   5.353
12765TIP3    H238237   1.631   3.414   5.283
12766TIP3   OH238238   2.974   0.991   3.783
12766TIP3    H138239   2.981   0.978   3.878
12766TIP3    H238240   3.059   1.026   3.757
12767TIP3   OH238241   2.352   6.719   6.677
12767TIP3    H138242   2.260   6.731   6.655
12767TIP3    H238243   2.357   6.732   6.771
12768TIP3   OH238244   7.307   6.255   0.231
12768TIP3    H138245   7.309   6.166   0.266
12768TIP3    H238246   7.350   6.248   0.146
12769TIP3   OH238247   0.658   5.441   5.122
12769TIP3    H138248   0.727   5.504   5.143
12769TIP3    H238249   0.599   5.489   5.063
12770TIP3   OH238250   0.060   5.722   1.724
12770TIP3    H138251   0.067   5.807   1.680
12770TIP3    H238252   0.085   5.740   1.815
12771TIP3   OH238253   3.915   3.636   3.753
12771TIP3    H138254   3.951   3.698   3.816
12771TIP3    H238255   3.866   3.690   3.691
12772TIP3   OH238256   1.540   4.637   1.900
12772TIP3    H138257   1.455   4.669   1.931
12772TIP3    H238258   1.533   4.640   1.805
12773TIP3   OH238259   0.193   3.825   6.608
12773TIP3    H138260   0.285   3.806   6.624
12773TIP3    H238261   0.168   3.885   6.679
12774TIP3   OH238262   7.296   2.718   1.010
12774TIP3    H138263   7.317   2.784   0.944
12774TIP3    H238264   7.376   2.664   1.015
12775TIP3   OH238265   3.761   6.903   4.317
12775TIP3    H138266   3.737   6.812   4.300
12775TIP3    H238267   3.691   6.937   4.372
12776TIP3   OH238268   4.136   4.107   1.769
12776TIP3    H138269   4.172   4.035   1.821
12776TIP3    H238270   4.109   4.065   1.687
12777TIP3   OH238271   8.069   0.004   4.224
12777TIP3    H138272   8.037   0.059   4.297
12777TIP3    H238273   8.098  -0.076   4.267
12778TIP3   OH238274   6.320   2.531   4.908
12778TIP3    H138275   6.352   2.443   4.930
12778TIP3    H238276   6.278   2.562   4.988
12779TIP3   OH238277   2.020   4.802   0.762
12779TIP3    H138278   2.096   4.746   0.744
12779TIP3    H238279   1.957   4.777   0.694
12780TIP3   OH238280   6.098   0.877   2.474
12780TIP3    H138281   6.096   0.866   2.569
12780TIP3    H238282   6.124   0.791   2.440
12781TIP3   OH238283   5.527   1.885   5.971
12781TIP3    H138284   5.572   1.895   6.055
12781TIP3    H238285   5.466   1.959   5.968
12782TIP3   OH238286   3.521   0.621   3.616
12782TIP3    H138287   3.552   0.568   3.542
12782TIP3    H238288   3.551   0.573   3.693
12783TIP3   OH238289   3.404   5.055   2.395
12783TIP3    H138290   3.424   4.968   2.362
12783TIP3    H238291   3.370   5.102   2.320
12784TIP3   OH238292   2.834   4.764   5.797
12784TIP3    H138293   2.884   4.784   5.875
12784TIP3    H238294   2.852   4.836   5.737
12785TIP3   OH238295   0.697   0.990   6.587
12785TIP3    H138296   0.725   0.900   6.607
12785TIP3    H238297   0.766   1.024   6.529
12786TIP3   OH238298   2.528   5.144   0.040
12786TIP3    H138299   2.616   5.156   0.002
12786TIP3    H238300   2.504   5.231   0.071
12787TIP3   OH238301   7.389   1.208   6.701
12787TIP3    H138302   7.295   1.200   6.712
12787TIP3    H238303   7.424   1.212   6.791
12788TIP3   OH238304   5.596   2.303   2.171
12788TIP3    H138305   5.534   2.356   2.120
12788TIP3    H238306   5.553   2.290   2.255
12789TIP3   OH238307   0.880   2.137   0.737
12789TIP3    H138308   0.843   2.052   0.763
12789TIP3    H238309   0.844   2.153   0.650
12790TIP3   OH238310   1.928   3.335   5.851
12790TIP3    H138311   2.004   3.277   5.845
12790TIP3    H238312   1.888   3.330   5.764
12791TIP3   OH238313   1.774   7.030   5.849
12791TIP3    H138314   1.859   6.998   5.818
12791TIP3    H238315   1.765   6.992   5.936
12792TIP3   OH238316   6.331   6.460   0.259
12792TIP3    H138317   6.410   6.407   0.272
12792TIP3    H238318   6.358   6.549   0.279
12793TIP3   OH238319   1.136   1.839   2.809
12793TIP3    H138320   1.153   1.750   2.780
12793TIP3    H238321   1.140   1.892   2.730
12794TIP3   OH238322   2.287   5.538   5.623
12794TIP3    H138323   2.263   5.457   5.669
12794TIP3    H238324   2.373   5.560   5.659
12795TIP3   OH238325   4.446   1.508   1.614
12795TIP3    H138326   4.529   1.462   1.621
12795TIP3    H238327   4.429   1.514   1.520
12796TIP3   OH238328   2.030   7.161   5.601
12796TIP3    H138329   1.986   7.197   5.677
12796TIP3    H238330   2.007   7.219   5.529
12797TIP3   OH238331   6.425   7.130   0.658
12797TIP3    H138332   6.382   7.190   0.720
12797TIP3    H238333   6.516   7.160   0.655
12798TIP3   OH238334   6.857   2.509   6.501
12798TIP3    H138335   6.870   2.427   6.550
12798TIP3    H238336   6.775   2.497   6.454
12799TIP3   OH238337   7.739   1.318   1.771
12799TIP3    H138338   7.823   1.296   1.731
12799TIP3    H238339   7.697   1.233   1.785
12800TIP3   OH238340   2.770   4.671   0.354
12800TIP3    H138341   2.797   4.669   0.446
12800TIP3    H238342   2.782   4.580   0.324
12801TIP3   OH238343   2.114   2.474   4.225
12801TIP3    H138344   2.127   2.544   4.161
12801TIP3    H238345   2.199   2.431   4.231
12802TIP3   OH238346   4.475   0.507   4.258
12802TIP3    H138347   4.497   0.465   4.341
12802TIP3    H238348   4.382   0.528   4.265
12803TIP3   OH238349   7.438   7.299   6.146
12803TIP3    H138350   7.389   7.218   6.155
12803TIP3    H238351   7.528   7.271   6.131
12804TIP3   OH238352   0.280   3.151   5.430
12804TIP3    H138353   0.199   3.099   5.431
12804TIP3    H238354   0.299   3.166   5.523
12805TIP3   OH238355   3.471   4.600   3.979
12805TIP3    H138356   3.380   4.619   3.955
12805TIP3    H238357   3.465   4.547   4.058
12806TIP3   OH238358   5.608   3.699   0.603
12806TIP3    H138359   5.620   3.701   0.698
12806TIP3    H238360   5.665   3.628   0.573
12807TIP3   OH238361   4.445   4.789   0.550
12807TIP3    H138362   4.396   4.737   0.486
12807TIP3    H238363   4.536   4.785   0.520
12808TIP3   OH238364   8.333   6.429   6.109
12808TIP3    H138365   8.362   6.345   6.143
12808TIP3    H238366   8.413   6.478   6.092
12809TIP3   OH238367   5.555   7.109   4.301
12809TIP3    H138368   5.522   7.020   4.313
12809TIP3    H238369   5.491   7.164   4.347
12810TIP3   OH238370   3.890   6.208   3.475
12810TIP3    H138371   3.915   6.198   3.567
12810TIP3    H238372   3.916   6.297   3.454
12811TIP3   OH238373   7.328   0.823   2.530
12811TIP3    H138374   7.367   0.818   2.617
12811TIP3    H238375   7.278   0.905   2.531
12812TIP3   OH238376   0.854   2.918   4.540
12812TIP3    H138377   0.825   2.991   4.485
12812TIP3    H238378   0.939   2.947   4.576
12813TIP3   OH238379   7.337   1.699   1.700
12813TIP3    H138380   7.316   1.606   1.706
12813TIP3    H238381   7.432   1.704   1.710
12814TIP3   OH238382   7.107   4.070   1.419
12814TIP3    H138383   7.196   4.035   1.429
12814TIP3    H238384   7.050   3.995   1.436
12815TIP3   OH238385   7.945   4.540   3.803
12815TIP3    H138386   7.972   4.621   3.760
12815TIP3    H238387   7.874   4.565   3.861
12816TIP3   OH238388   3.988   3.035   5.646
12816TIP3    H138389   4.060   3.081   5.688
12816TIP3    H238390   3.919   3.032   5.712
12817TIP3   OH238391   0.668   0.540   5.949
12817TIP3    H138392   0.690   0.539   6.042
12817TIP3    H238393   0.590   0.596   5.943
12818TIP3   OH238394   6.398   6.361   2.300
12818TIP3    H138395   6.454   6.435   2.324
12818TIP3    H238396   6.430   6.333   2.214
12819TIP3   OH238397   2.233   1.971   1.543
12819TIP3    H138398   2.180   2.041   1.505
12819TIP3    H238399   2.208   1.968   1.635
12820TIP3   OH238400   7.110   2.285   3.550
12820TIP3    H138401   7.045   2.230   3.506
12820TIP3    H238402   7.059   2.357   3.588
12821TIP3   OH238403   1.411   5.218   1.088
12821TIP3    H138404   1.360   5.254   1.016
12821TIP3    H238405   1.492   5.187   1.048
12822TIP3   OH238406   4.842   1.360   6.084
12822TIP3    H138407   4.800   1.414   6.151
12822TIP3    H238408   4.773   1.346   6.019
12823TIP3   OH238409   7.677   4.441   5.273
12823TIP3    H138410   7.629   4.360   5.287
12823TIP3    H238411   7.715   4.433   5.186
12824TIP3   OH238412   2.103   5.774   1.168
12824TIP3    H138413   2.146   5.830   1.233
12824TIP3    H238414   2.174   5.744   1.111
12825TIP3   OH238415   2.565   1.172   3.545
12825TIP3    H138416   2.554   1.079   3.530
12825TIP3    H238417   2.503   1.214   3.485
12826TIP3   OH238418   6.481   5.243   4.506
12826TIP3    H138419   6.524   5.328   4.514
12826TIP3    H238420   6.538   5.193   4.447
12827TIP3   OH238421   2.909   5.772   1.124
12827TIP3    H138422   2.982   5.832   1.137
12827TIP3    H238423   2.896   5.769   1.029
12828TIP3   OH238424   2.136   2.283   2.957
12828TIP3    H138425   2.047   2.270   2.925
12828TIP3    H238426   2.134   2.249   3.046
12829TIP3   OH238427   0.600   7.835   4.753
12829TIP3    H138428   0.637   7.894   4.687
12829TIP3    H238429   0.533   7.786   4.706
12830TIP3   OH238430   5.600   3.339   5.454
12830TIP3    H138431   5.694   3.324   5.468
12830TIP3    H238432   5.561   3.252   5.452
12831TIP3   OH238433   8.431   3.162   5.543
12831TIP3    H138434   8.383   3.228   5.594
12831TIP3    H238435   8.374   3.143   5.469
12832TIP3   OH238436   3.141   5.030   6.174
12832TIP3    H138437   3.158   5.006   6.083
12832TIP3    H238438   3.227   5.031   6.215
12833TIP3   OH238439   4.968   1.679   2.752
12833TIP3    H138440   4.914   1.615   2.706
12833TIP3    H238441   4.940   1.672   2.844
12834TIP3   OH238442   3.601   0.980   3.347
12834TIP3    H138443   3.689   0.972   3.383
12834TIP3    H238444   3.592   0.904   3.290
12835TIP3   OH238445   6.996   4.846   6.184
12835TIP3    H138446   7.036   4.931   6.201
12835TIP3    H238447   7.010   4.796   6.265
12836TIP3   OH238448   0.352   2.566   0.082
12836TIP3    H138449   0.329   2.482   0.122
12836TIP3    H238450   0.354   2.548  -0.012
12837TIP3   OH238451   4.646   4.045   1.804
12837TIP3    H138452   4.678   4.134   1.786
12837TIP3    H238453   4.698   3.989   1.747
12838TIP3   OH238454   6.205   4.997   4.306
12838TIP3    H138455   6.216   5.010   4.212
12838TIP3    H238456   6.218   4.903   4.319
12839TIP3   OH238457   7.871   7.841   5.229
12839TIP3    H138458   7.861   7.805   5.317
12839TIP3    H238459   7.795   7.807   5.181
12840TIP3   OH238460   4.603   6.199   1.711
12840TIP3    H138461   4.697   6.200   1.695
12840TIP3    H238462   4.566   6.253   1.640
12841TIP3   OH238463   6.378   0.444   6.762
12841TIP3    H138464   6.418   0.362   6.735
12841TIP3    H238465   6.287   0.437   6.735
12842TIP3   OH238466   3.172   6.974   4.490
12842TIP3    H138467   3.133   6.889   4.467
12842TIP3    H238468   3.097   7.026   4.521
12843TIP3   OH238469   3.495   2.010   4.342
12843TIP3    H138470   3.406   2.017   4.376
12843TIP3    H238471   3.537   1.945   4.398
12844TIP3   OH238472   5.101   7.463   1.368
12844TIP3    H138473   5.034   7.420   1.315
12844TIP3    H238474   5.157   7.507   1.304
12845TIP3   OH238475   0.646   0.026   5.364
12845TIP3    H138476   0.663   0.013   5.457
12845TIP3    H238477   0.608   0.113   5.357
12846TIP3   OH238478   8.359   4.400   0.398
12846TIP3    H138479   8.306   4.414   0.476
12846TIP3    H238480   8.416   4.326   0.421
12847TIP3   OH238481   3.159   1.743   6.002
12847TIP3    H138482   3.164   1.758   6.097
12847TIP3    H238483   3.137   1.650   5.994
12848TIP3   OH238484   5.609   7.200   6.754
12848TIP3    H138485   5.613   7.197   6.659
12848TIP3    H238486   5.528   7.154   6.776
12849TIP3   OH238487   5.946   0.044   1.768
12849TIP3    H138488   6.026  -0.003   1.748
12849TIP3    H238489   5.915   0.074   1.682
12850TIP3   OH238490   7.731   6.194   5.195
12850TIP3    H138491   7.712   6.189   5.102
12850TIP3    H238492   7.743   6.287   5.213
12851TIP3   OH238493   2.516   5.695   6.066
12851TIP3    H138494   2.534   5.778   6.110
12851TIP3    H238495   2.592   5.641   6.084
12852TIP3   OH238496   5.579   1.428  -0.015
12852TIP3    H138497   5.566   1.480   0.064
12852TIP3    H238498   5.510   1.457  -0.075
12853TIP3   OH238499   1.862   6.869   2.087
12853TIP3    H138500   1.838   6.878   2.180
12853TIP3    H238501   1.778   6.877   2.041
12854TIP3   OH238502   6.394   5.732   6.372
12854TIP3    H138503   6.375   5.823   6.395
12854TIP3    H238504   6.319   5.705   6.319
12855TIP3   OH238505   3.214   3.369   6.552
12855TIP3    H138506   3.200   3.462   6.567
12855TIP3    H238507   3.141   3.342   6.496
12856TIP3   OH238508   5.661   5.834   0.842
12856TIP3    H138509   5.647   5.833   0.747
12856TIP3    H238510   5.705   5.917   0.859
12857TIP3   OH238511   4.197   5.699   0.039
12857TIP3    H138512   4.116   5.709  -0.011
12857TIP3    H238513   4.206   5.604   0.051
12858TIP3   OH238514   4.253   0.221   4.377
12858TIP3    H138515   4.233   0.314   4.366
12858TIP3    H238516   4.189   0.191   4.441
12859TIP3   OH238517   0.741   4.918   4.532
12859TIP3    H138518   0.647   4.917   4.548
12859TIP3    H238519   0.772   4.834   4.565
12860TIP3   OH238520   5.890   0.445   4.277
12860TIP3    H138521   5.886   0.427   4.371
12860TIP3    H238522   5.931   0.531   4.271
12861TIP3   OH238523   2.186   0.691   1.219
12861TIP3    H138524   2.114   0.693   1.283
12861TIP3    H238525   2.259   0.651   1.265
12862TIP3   OH238526   1.505   2.282   5.160
12862TIP3    H138527   1.427   2.279   5.217
12862TIP3    H238528   1.473   2.254   5.075
12863TIP3   OH238529   1.629   3.776   3.381
12863TIP3    H138530   1.709   3.785   3.330
12863TIP3    H238531   1.594   3.865   3.386
12864TIP3   OH238532   5.773   2.889   0.325
12864TIP3    H138533   5.734   2.817   0.275
12864TIP3    H238534   5.724   2.890   0.407
12865TIP3   OH238535   4.168   0.489   4.846
12865TIP3    H138536   4.132   0.485   4.758
12865TIP3    H238537   4.262   0.478   4.835
12866TIP3   OH238538   8.091   7.303   3.153
12866TIP3    H138539   8.135   7.372   3.104
12866TIP3    H238540   8.122   7.221   3.114
12867TIP3   OH238541   2.584   1.927   2.329
12867TIP3    H138542   2.644   1.914   2.256
12867TIP3    H238543   2.617   2.006   2.373
12868TIP3   OH238544   5.117   0.145   0.784
12868TIP3    H138545   5.159   0.111   0.863
12868TIP3    H238546   5.182   0.204   0.745
12869TIP3   OH238547   1.207   2.686   0.235
12869TIP3    H138548   1.188   2.654   0.147
12869TIP3    H238549   1.296   2.719   0.230
12870TIP3   OH238550   5.777   2.091   5.348
12870TIP3    H138551   5.824   2.174   5.346
12870TIP3    H238552   5.811   2.047   5.426
12871TIP3   OH238553   5.853   5.798   6.742
12871TIP3    H138554   5.766   5.809   6.704
12871TIP3    H238555   5.856   5.862   6.814
12872TIP3   OH238556   6.419   7.654   1.615
12872TIP3    H138557   6.368   7.574   1.625
12872TIP3    H238558   6.454   7.671   1.703
12873TIP3   OH238559   6.556   1.976   3.794
12873TIP3    H138560   6.582   1.894   3.753
12873TIP3    H238561   6.617   1.987   3.867
12874TIP3   OH238562   2.264   0.939   1.104
12874TIP3    H138563   2.232   0.866   1.156
12874TIP3    H238564   2.212   1.014   1.134
12875TIP3   OH238565   7.468   2.111   3.623
12875TIP3    H138566   7.522   2.060   3.683
12875TIP3    H238567   7.531   2.157   3.567
12876TIP3   OH238568   7.297   0.957   4.942
12876TIP3    H138569   7.370   0.902   4.915
12876TIP3    H238570   7.252   0.907   5.011
12877TIP3   OH238571   0.298   1.373   0.104
12877TIP3    H138572   0.367   1.316   0.139
12877TIP3    H238573   0.263   1.324   0.030
12878TIP3   OH238574   0.377   3.978   0.761
12878TIP3    H138575   0.395   4.050   0.700
12878TIP3    H238576   0.331   4.019   0.834
12879TIP3   OH238577   5.199   1.398   4.744
12879TIP3    H138578   5.187   1.333   4.674
12879TIP3    H238579   5.171   1.481   4.705
12880TIP3   OH238580   5.210   3.367   5.773
12880TIP3    H138581   5.182   3.336   5.687
12880TIP3    H238582   5.149   3.326   5.835
12881TIP3   OH238583   1.192   6.124   4.965
12881TIP3    H138584   1.242   6.134   5.046
12881TIP3    H238585   1.234   6.052   4.920
12882TIP3   OH238586   3.852   1.703   1.638
12882TIP3    H138587   3.771   1.651   1.633
12882TIP3    H238588   3.922   1.638   1.636
12883TIP3   OH238589   0.276   0.147   5.211
12883TIP3    H138590   0.355   0.155   5.157
12883TIP3    H238591   0.297   0.197   5.290
12884TIP3   OH238592   2.919   2.643   4.658
12884TIP3    H138593   2.984   2.573   4.658
12884TIP3    H238594   2.919   2.676   4.568
12885TIP3   OH238595   0.754   5.781   1.611
12885TIP3    H138596   0.734   5.760   1.703
12885TIP3    H238597   0.687   5.845   1.587
12886TIP3   OH238598   0.408   3.074   2.038
12886TIP3    H138599   0.321   3.034   2.030
12886TIP3    H238600   0.393   3.167   2.020
12887TIP3   OH238601   2.101   0.087   0.986
12887TIP3    H138602   2.075   0.086   0.894
12887TIP3    H238603   2.165   0.158   0.993
12888TIP3   OH238604   1.401   2.977   2.624
12888TIP3    H138605   1.376   3.069   2.632
12888TIP3    H238606   1.321   2.933   2.597
12889TIP3   OH238607   8.277   5.568   3.372
12889TIP3    H138608   8.350   5.618   3.336
12889TIP3    H238609   8.252   5.615   3.452
12890TIP3   OH238610   4.182   2.017   1.182
12890TIP3    H138611   4.100   1.974   1.210
12890TIP3    H238612   4.219   1.957   1.118
12891TIP3   OH238613   3.030   0.749   5.848
12891TIP3    H138614   3.100   0.685   5.832
12891TIP3    H238615   3.014   0.788   5.762
12892TIP3   OH238616   0.992   3.618   6.544
12892TIP3    H138617   0.970   3.525   6.541
12892TIP3    H238618   1.062   3.628   6.480
12893TIP3   OH238619   5.819   7.318   4.655
12893TIP3    H138620   5.768   7.237   4.649
12893TIP3    H238621   5.879   7.302   4.728
12894TIP3   OH238622   2.908   2.160   3.125
12894TIP3    H138623   2.890   2.078   3.171
12894TIP3    H238624   2.843   2.221   3.159
12895TIP3   OH238625   1.918   4.015   2.639
12895TIP3    H138626   1.834   3.994   2.598
12895TIP3    H238627   1.973   3.939   2.622
12896TIP3   OH238628   1.238   1.958   6.054
12896TIP3    H138629   1.247   1.864   6.037
12896TIP3    H238630   1.185   1.991   5.981
12897TIP3   OH238631   3.173   5.850   2.708
12897TIP3    H138632   3.235   5.792   2.751
12897TIP3    H238633   3.087   5.815   2.732
12898TIP3   OH238634   0.269   5.539   5.100
12898TIP3    H138635   0.301   5.485   5.028
12898TIP3    H238636   0.318   5.622   5.091
12899TIP3   OH238637   6.064   2.573   3.463
12899TIP3    H138638   6.008   2.650   3.469
12899TIP3    H238639   6.153   2.607   3.472
12900TIP3   OH238640   1.861   7.281   1.274
12900TIP3    H138641   1.799   7.215   1.242
12900TIP3    H238642   1.875   7.339   1.200
12901TIP3   OH238643   6.897   6.444   3.379
12901TIP3    H138644   6.937   6.406   3.301
12901TIP3    H238645   6.814   6.396   3.389
12902TIP3   OH238646   3.344   4.128   4.118
12902TIP3    H138647   3.334   4.206   4.064
12902TIP3    H238648   3.434   4.098   4.101
12903TIP3   OH238649   4.163   6.337   1.669
12903TIP3    H138650   4.177   6.247   1.700
12903TIP3    H238651   4.092   6.370   1.724
12904TIP3   OH238652   0.988   7.600   1.930
12904TIP3    H138653   0.906   7.581   1.975
12904TIP3    H238654   0.999   7.528   1.868
12905TIP3   OH238655   7.559   3.755   1.540
12905TIP3    H138656   7.588   3.664   1.545
12905TIP3    H238657   7.579   3.792   1.626
12906TIP3   OH238658   3.168   0.078   4.734
12906TIP3    H138659   3.087   0.037   4.765
12906TIP3    H238660   3.235   0.011   4.747
12907TIP3   OH238661   5.129   7.128   6.850
12907TIP3    H138662   5.070   7.057   6.876
12907TIP3    H238663   5.087   7.207   6.885
12908TIP3   OH238664   5.370   7.285   4.123
12908TIP3    H138665   5.322   7.202   4.119
12908TIP3    H238666   5.301   7.351   4.134
12909TIP3   OH238667   3.468   5.211   3.035
12909TIP3    H138668   3.550   5.260   3.031
12909TIP3    H238669   3.490   5.126   2.997
12910TIP3   OH238670   3.475   0.107   1.673
12910TIP3    H138671   3.384   0.132   1.688
12910TIP3    H238672   3.512   0.097   1.761
12911TIP3   OH238673   1.284   1.283   6.724
12911TIP3    H138674   1.326   1.233   6.654
12911TIP3    H238675   1.205   1.232   6.744
12912TIP3   OH238676   0.056   4.127   2.847
12912TIP3    H138677   0.117   4.117   2.920
12912TIP3    H238678   0.110   4.113   2.769
12913TIP3   OH238679   5.549   6.516   3.128
12913TIP3    H138680   5.549   6.446   3.193
12913TIP3    H238681   5.523   6.472   3.046
12914TIP3   OH238682   0.719   3.844   1.770
12914TIP3    H138683   0.715   3.814   1.679
12914TIP3    H238684   0.807   3.881   1.778
12915TIP3   OH238685   5.991   5.742   3.973
12915TIP3    H138686   6.085   5.724   3.965
12915TIP3    H238687   5.958   5.671   4.027
12916TIP3   OH238688   1.222   1.828   2.505
12916TIP3    H138689   1.136   1.869   2.505
12916TIP3    H238690   1.283   1.902   2.516
12917TIP3   OH238691   4.644   1.866   4.902
12917TIP3    H138692   4.590   1.928   4.952
12917TIP3    H238693   4.663   1.912   4.820
12918TIP3   OH238694   7.516   3.544   6.696
12918TIP3    H138695   7.459   3.483   6.649
12918TIP3    H238696   7.600   3.538   6.650
12919TIP3   OH238697   1.803   0.179   3.016
12919TIP3    H138698   1.773   0.184   2.925
12919TIP3    H238699   1.819   0.086   3.030
12920TIP3   OH238700   2.874   1.019   6.834
12920TIP3    H138701   2.825   1.088   6.789
12920TIP3    H238702   2.943   0.995   6.772
12921TIP3   OH238703   8.202   6.714   5.190
12921TIP3    H138704   8.145   6.787   5.215
12921TIP3    H238705   8.277   6.721   5.248
12922TIP3   OH238706   4.376   3.987   4.670
12922TIP3    H138707   4.381   4.066   4.617
12922TIP3    H238708   4.287   3.986   4.705
12923TIP3   OH238709   2.151   6.676   4.332
12923TIP3    H138710   2.150   6.742   4.401
12923TIP3    H238711   2.195   6.719   4.258
12924TIP3   OH238712   8.102   2.459   5.355
12924TIP3    H138713   8.179   2.512   5.379
12924TIP3    H238714   8.139   2.376   5.325
12925TIP3   OH238715   0.051   1.753   1.313
12925TIP3    H138716   0.135   1.719   1.284
12925TIP3    H238717   0.017   1.686   1.372
12926TIP3   OH238718   1.559   2.066   4.200
12926TIP3    H138719   1.559   2.119   4.279
12926TIP3    H238720   1.477   2.016   4.205
12927TIP3   OH238721   5.601   5.686   3.761
12927TIP3    H138722   5.600   5.734   3.678
12927TIP3    H238723   5.631   5.750   3.826
12928TIP3   OH238724   7.090   2.480   1.500
12928TIP3    H138725   7.036   2.492   1.422
12928TIP3    H238726   7.049   2.408   1.547
12929TIP3   OH238727   1.489   2.711   0.176
12929TIP3    H138728   1.541   2.743   0.102
12929TIP3    H238729   1.483   2.617   0.162
12930TIP3   OH238730   4.585   7.350   1.569
12930TIP3    H138731   4.571   7.416   1.637
12930TIP3    H238732   4.626   7.277   1.616
12931TIP3   OH238733   1.149   7.108   0.012
12931TIP3    H138734   1.111   7.022  -0.005
12931TIP3    H238735   1.235   7.105  -0.029
12932TIP3   OH238736   0.360   3.708   3.216
12932TIP3    H138737   0.276   3.668   3.239
12932TIP3    H238738   0.412   3.635   3.181
12933TIP3   OH238739   2.352   5.481   1.151
12933TIP3    H138740   2.410   5.508   1.221
12933TIP3    H238741   2.310   5.402   1.184
12934TIP3   OH238742   6.901   2.193   4.949
12934TIP3    H138743   6.897   2.130   5.022
12934TIP3    H238744   6.942   2.144   4.878
12935TIP3   OH238745   1.929   5.835   3.697
12935TIP3    H138746   1.882   5.752   3.707
12935TIP3    H238747   1.968   5.851   3.783
12936TIP3   OH238748   3.355   4.095   3.170
12936TIP3    H138749   3.351   4.190   3.159
12936TIP3    H238750   3.444   4.078   3.202
12937TIP3   OH238751   5.569   5.611   4.579
12937TIP3    H138752   5.642   5.659   4.538
12937TIP3    H238753   5.493   5.635   4.526
12938TIP3   OH238754   6.168   6.329   3.331
12938TIP3    H138755   6.151   6.420   3.357
12938TIP3    H238756   6.216   6.292   3.406
12939TIP3   OH238757   1.519   6.255   6.690
12939TIP3    H138758   1.441   6.300   6.656
12939TIP3    H238759   1.528   6.286   6.780
12940TIP3   OH238760   3.313   0.127   3.555
12940TIP3    H138761   3.299   0.107   3.647
12940TIP3    H238762   3.408   0.123   3.543
12941TIP3   OH238763   5.338   2.082   2.672
12941TIP3    H138764   5.388   2.008   2.707
12941TIP3    H238765   5.252   2.046   2.653
12942TIP3   OH238766   7.705   1.163   0.736
12942TIP3    H138767   7.694   1.202   0.822
12942TIP3    H238768   7.623   1.115   0.720
12943TIP3   OH238769   8.201   0.470   4.514
12943TIP3    H138770   8.296   0.481   4.506
12943TIP3    H238771   8.174   0.544   4.569
12944TIP3   OH238772   3.753   3.726   1.317
12944TIP3    H138773   3.658   3.734   1.305
12944TIP3    H238774   3.789   3.738   1.230
12945TIP3   OH238775   1.203   3.143   3.521
12945TIP3    H138776   1.294   3.159   3.497
12945TIP3    H238777   1.173   3.227   3.557
12946TIP3   OH238778   8.174   2.198   6.722
12946TIP3    H138779   8.267   2.215   6.735
12946TIP3    H238780   8.171   2.128   6.656
12947TIP3   OH238781   0.291   7.827   6.218
12947TIP3    H138782   0.347   7.768   6.271
12947TIP3    H238783   0.347   7.852   6.144
12948TIP3   OH238784   6.924   1.329   1.488
12948TIP3    H138785   7.000   1.319   1.430
12948TIP3    H238786   6.962   1.348   1.574
12949TIP3   OH238787   7.089   6.145   3.199
12949TIP3    H138788   7.030   6.081   3.157
12949TIP3    H238789   7.073   6.226   3.152
12950TIP3   OH238790   0.966   5.950   1.243
12950TIP3    H138791   0.937   5.900   1.166
12950TIP3    H238792   1.019   5.888   1.292
12951TIP3   OH238793   5.058   6.602   1.444
12951TIP3    H138794   5.008   6.621   1.365
12951TIP3    H238795   5.100   6.518   1.427
12952TIP3   OH238796   5.661   0.102   1.810
12952TIP3    H138797   5.662   0.156   1.731
12952TIP3    H238798   5.572   0.109   1.843
12953TIP3   OH238799   1.056   6.638   0.767
12953TIP3    H138800   1.120   6.573   0.795
12953TIP3    H238801   1.032   6.612   0.678
12954TIP3   OH238802   5.679   0.679   1.893
12954TIP3    H138803   5.720   0.637   1.968
12954TIP3    H238804   5.585   0.679   1.914
12955TIP3   OH238805   8.396   6.030   3.212
12955TIP3    H138806   8.434   6.026   3.124
12955TIP3    H238807   8.395   5.939   3.242
12956TIP3   OH238808   1.171   2.522   1.401
12956TIP3    H138809   1.093   2.565   1.436
12956TIP3    H238810   1.235   2.528   1.471
12957TIP3   OH238811   4.891   1.091   2.864
12957TIP3    H138812   4.802   1.058   2.875
12957TIP3    H238813   4.919   1.054   2.780
12958TIP3   OH238814   0.701   3.646   4.434
12958TIP3    H138815   0.694   3.729   4.481
12958TIP3    H238816   0.612   3.627   4.405
12959TIP3   OH238817   0.418   0.529   4.932
12959TIP3    H138818   0.336   0.485   4.910
12959TIP3    H238819   0.483   0.459   4.940
12960TIP3   OH238820   0.808   6.244   3.102
12960TIP3    H138821   0.891   6.282   3.073
12960TIP3    H238822   0.816   6.239   3.197
12961TIP3   OH238823   7.932   7.437   2.882
12961TIP3    H138824   8.017   7.414   2.845
12961TIP3    H238825   7.902   7.357   2.926
12962TIP3   OH238826   7.223   2.336   5.092
12962TIP3    H138827   7.144   2.380   5.060
12962TIP3    H238828   7.288   2.406   5.098
12963TIP3   OH238829   2.212   6.396   2.416
12963TIP3    H138830   2.273   6.467   2.433
12963TIP3    H238831   2.150   6.432   2.352
12964TIP3   OH238832   1.646   2.615   2.440
12964TIP3    H138833   1.658   2.583   2.530
12964TIP3    H238834   1.725   2.588   2.394
12965TIP3   OH238835   2.055   6.642   1.640
12965TIP3    H138836   2.131   6.683   1.599
12965TIP3    H238837   2.016   6.712   1.693
12966TIP3   OH238838   5.556   0.537   4.801
12966TIP3    H138839   5.540   0.622   4.759
12966TIP3    H238840   5.563   0.558   4.894
12967TIP3   OH238841   2.571   0.854   1.884
12967TIP3    H138842   2.578   0.917   1.813
12967TIP3    H238843   2.506   0.892   1.944
12968TIP3   OH238844   7.685   3.841   0.554
12968TIP3    H138845   7.679   3.922   0.604
12968TIP3    H238846   7.688   3.869   0.462
12969TIP3   OH238847   3.047   0.340   5.765
12969TIP3    H138848   3.061   0.318   5.673
12969TIP3    H238849   3.082   0.266   5.814
12970TIP3   OH238850   7.441   7.557   4.153
12970TIP3    H138851   7.384   7.550   4.229
12970TIP3    H238852   7.474   7.646   4.155
12971TIP3   OH238853   8.089   2.756   4.351
12971TIP3    H138854   8.082   2.684   4.413
12971TIP3    H238855   8.055   2.720   4.269
12972TIP3   OH238856   1.370   6.640   2.631
12972TIP3    H138857   1.358   6.711   2.568
12972TIP3    H238858   1.310   6.571   2.601
12973TIP3   OH238859   8.350   3.234   6.229
12973TIP3    H138860   8.421   3.203   6.173
12973TIP3    H238861   8.365   3.190   6.313
12974TIP3   OH238862   4.610   4.268   5.610
12974TIP3    H138863   4.638   4.261   5.518
12974TIP3    H238864   4.599   4.177   5.638
12975TIP3   OH238865   6.160   7.104   4.962
12975TIP3    H138866   6.236   7.162   4.956
12975TIP3    H238867   6.129   7.116   5.052
12976TIP3   OH238868   8.345   6.326   2.425
12976TIP3    H138869   8.416   6.320   2.361
12976TIP3    H238870   8.277   6.376   2.381
12977TIP3   OH238871   7.990   6.866   3.999
12977TIP3    H138872   8.001   6.867   4.094
12977TIP3    H238873   7.899   6.890   3.985
12978TIP3   OH238874   4.195   6.899   1.537
12978TIP3    H138875   4.255   6.824   1.533
12978TIP3    H238876   4.188   6.919   1.630
12979TIP3   OH238877   3.334   2.642   2.516
12979TIP3    H138878   3.390   2.629   2.592
12979TIP3    H238879   3.290   2.726   2.532
12980TIP3   OH238880   5.043   1.168   6.028
12980TIP3    H138881   5.033   1.200   5.938
12980TIP3    H238882   4.968   1.205   6.075
12981TIP3   OH238883   7.117   5.487   4.264
12981TIP3    H138884   7.167   5.451   4.336
12981TIP3    H238885   7.121   5.582   4.276
12982TIP3   OH238886   7.364   1.236   6.275
12982TIP3    H138887   7.302   1.191   6.333
12982TIP3    H238888   7.396   1.168   6.216
12983TIP3   OH238889   4.318   6.043   5.256
12983TIP3    H138890   4.327   5.982   5.329
12983TIP3    H238891   4.397   6.029   5.204
12984TIP3   OH238892   5.700   6.291   1.187
12984TIP3    H138893   5.633   6.353   1.213
12984TIP3    H238894   5.713   6.306   1.093
12985TIP3   OH238895   0.258   6.148   4.386
12985TIP3    H138896   0.179   6.158   4.333
12985TIP3    H238897   0.280   6.237   4.413
12986TIP3   OH238898   2.874   2.776   1.706
12986TIP3    H138899   2.811   2.737   1.647
12986TIP3    H238900   2.893   2.708   1.771
12987TIP3   OH238901   5.822   3.930   2.744
12987TIP3    H138902   5.843   4.008   2.693
12987TIP3    H238903   5.845   3.856   2.687
12988TIP3   OH238904   7.514   3.032   6.799
12988TIP3    H138905   7.441   2.998   6.747
12988TIP3    H238906   7.498   3.126   6.804
12989TIP3   OH238907   6.817   5.037   0.109
12989TIP3    H138908   6.763   5.010   0.035
12989TIP3    H238909   6.761   5.023   0.186
12990TIP3   OH238910   6.208   5.299   5.034
12990TIP3    H138911   6.296   5.303   4.997
12990TIP3    H238912   6.185   5.206   5.034
12991TIP3   OH238913   1.649   0.968   1.138
12991TIP3    H138914   1.575   0.974   1.077
12991TIP3    H238915   1.725   0.994   1.087
12992TIP3   OH238916   0.668   2.723   4.494
12992TIP3    H138917   0.740   2.781   4.519
12992TIP3    H238918   0.640   2.683   4.577
12993TIP3   OH238919   5.221   1.557   3.418
12993TIP3    H138920   5.167   1.636   3.410
12993TIP3    H238921   5.183   1.509   3.491
12994TIP3   OH238922   5.243   7.477   3.807
12994TIP3    H138923   5.234   7.556   3.754
12994TIP3    H238924   5.219   7.504   3.896
12995TIP3   OH238925   6.478   5.596   4.023
12995TIP3    H138926   6.538   5.644   3.966
12995TIP3    H238927   6.391   5.624   3.995
12996TIP3   OH238928   0.132   3.350   0.386
12996TIP3    H138929   0.068   3.288   0.420
12996TIP3    H238930   0.144   3.324   0.295
12997TIP3   OH238931   5.120   7.172   0.030
12997TIP3    H138932   5.070   7.120  -0.033
12997TIP3    H238933   5.188   7.215  -0.023
12998TIP3   OH238934   2.553   2.928   5.177
12998TIP3    H138935   2.602   2.849   5.153
12998TIP3    H238936   2.615   2.980   5.228
12999TIP3   OH238937   3.613   0.807   1.935
12999TIP3    H138938   3.624   0.895   1.899
12999TIP3    H238939   3.528   0.778   1.902
13000TIP3   OH238940   0.895   3.838   4.285
13000TIP3    H138941   0.842   3.769   4.245
13000TIP3    H238942   0.978   3.796   4.306
13001TIP3   OH238943   6.601   0.719   3.844
13001TIP3    H138944   6.537   0.744   3.778
13001TIP3    H238945   6.679   0.695   3.794
13002TIP3   OH238946   2.040   5.001   3.023
13002TIP3    H138947   1.947   5.012   3.041
13002TIP3    H238948   2.050   5.031   2.932
13003TIP3   OH238949   5.296   7.357   0.479
13003TIP3    H138950   5.392   7.350   0.484
13003TIP3    H238951   5.280   7.452   0.484
13004TIP3   OH238952   3.571   0.289   4.270
13004TIP3    H138953   3.514   0.315   4.342
13004TIP3    H238954   3.602   0.202   4.295
13005TIP3   OH238955   0.071   3.661   2.114
13005TIP3    H138956   0.073   3.756   2.101
13005TIP3    H238957   0.117   3.625   2.038
13006TIP3   OH238958   6.504   1.391   1.265
13006TIP3    H138959   6.465   1.304   1.251
13006TIP3    H238960   6.430   1.445   1.294
13007TIP3   OH238961   6.851   4.802   1.776
13007TIP3    H138962   6.878   4.849   1.697
13007TIP3    H238963   6.765   4.766   1.754
13008TIP3   OH238964   0.549   7.549   3.386
13008TIP3    H138965   0.481   7.486   3.363
13008TIP3    H238966   0.505   7.613   3.442
13009TIP3   OH238967   8.161   1.862   3.652
13009TIP3    H138968   8.134   1.868   3.560
13009TIP3    H238969   8.130   1.944   3.691
13010TIP3   OH238970   0.076   7.197   1.355
13010TIP3    H138971   0.008   7.203   1.422
13010TIP3    H238972   0.044   7.252   1.284
13011TIP3   OH238973   2.548   4.337   5.158
13011TIP3    H138974   2.575   4.245   5.162
13011TIP3    H238975   2.560   4.370   5.247
13012TIP3   OH238976   0.303   7.137   3.206
13012TIP3    H138977   0.337   7.118   3.293
13012TIP3    H238978   0.339   7.069   3.150
13013TIP3   OH238979   4.993   6.697   4.516
13013TIP3    H138980   4.980   6.621   4.574
13013TIP3    H238981   5.088   6.706   4.510
13014TIP3   OH238982   2.004   6.894   0.175
13014TIP3    H138983   1.970   6.849   0.252
13014TIP3    H238984   1.927   6.906   0.118
13015TIP3   OH238985   0.156   4.539   3.769
13015TIP3    H138986   0.128   4.518   3.859
13015TIP3    H238987   0.166   4.453   3.727
13016TIP3   OH238988   1.313   5.189   2.539
13016TIP3    H138989   1.360   5.125   2.485
13016TIP3    H238990   1.271   5.136   2.607
13017TIP3   OH238991   6.915   0.623   1.099
13017TIP3    H138992   6.916   0.718   1.108
13017TIP3    H238993   6.896   0.591   1.187
13018TIP3   OH238994   0.195   3.905   2.307
13018TIP3    H138995   0.138   3.914   2.231
13018TIP3    H238996   0.277   3.870   2.271
13019TIP3   OH238997   0.236   2.574   6.652
13019TIP3    H138998   0.175   2.613   6.589
13019TIP3    H238999   0.196   2.591   6.737
13020TIP3   OH239000   2.246   5.747   4.629
13020TIP3    H139001   2.244   5.675   4.566
13020TIP3    H239002   2.252   5.826   4.575
13021TIP3   OH239003   5.840   1.018   5.488
13021TIP3    H139004   5.859   1.105   5.453
13021TIP3    H239005   5.809   1.035   5.577
13022TIP3   OH239006   3.122   2.649   2.154
13022TIP3    H139007   3.200   2.629   2.206
13022TIP3    H239008   3.107   2.571   2.101
13023TIP3   OH239009   7.950   2.346   5.562
13023TIP3    H139010   7.951   2.405   5.638
13023TIP3    H239011   8.011   2.387   5.500
13024TIP3   OH239012   4.080   6.953   1.816
13024TIP3    H139013   4.016   7.007   1.862
13024TIP3    H239014   4.165   6.992   1.840
13025TIP3   OH239015   0.869   3.281   0.029
13025TIP3    H139016   0.854   3.188   0.017
13025TIP3    H239017   0.819   3.304   0.108
13026TIP3   OH239018   1.800   2.061   5.265
13026TIP3    H139019   1.878   2.096   5.307
13026TIP3    H239020   1.736   2.055   5.335
13027TIP3   OH239021   1.405   0.174   1.744
13027TIP3    H139022   1.417   0.257   1.697
13027TIP3    H239023   1.488   0.159   1.788
13028TIP3   OH239024   4.672   5.716   5.389
13028TIP3    H139025   4.745   5.756   5.436
13028TIP3    H239026   4.700   5.718   5.297
13029TIP3   OH239027   2.461   3.444   5.648
13029TIP3    H139028   2.535   3.495   5.616
13029TIP3    H239029   2.389   3.466   5.588
13030TIP3   OH239030   2.721   4.642   4.525
13030TIP3    H139031   2.674   4.569   4.484
13030TIP3    H239032   2.692   4.719   4.476
13031TIP3   OH239033   4.208   2.106   6.591
13031TIP3    H139034   4.304   2.098   6.592
13031TIP3    H239035   4.178   2.030   6.642
13032TIP3   OH239036   5.281   7.260   3.308
13032TIP3    H139037   5.374   7.274   3.327
13032TIP3    H239038   5.248   7.347   3.285
13033TIP3   OH239039   1.229   7.311   1.029
13033TIP3    H139040   1.249   7.271   1.114
13033TIP3    H239041   1.135   7.298   1.018
13034TIP3   OH239042   2.994   3.019   6.206
13034TIP3    H139043   2.929   2.985   6.145
13034TIP3    H239044   2.988   3.114   6.196
13035TIP3   OH239045   5.940   0.735   0.723
13035TIP3    H139046   5.902   0.666   0.669
13035TIP3    H239047   6.012   0.770   0.670
13036TIP3   OH239048   2.284   4.201   5.462
13036TIP3    H139049   2.234   4.275   5.427
13036TIP3    H239050   2.355   4.189   5.399
13037TIP3   OH239051   6.196   1.159   2.206
13037TIP3    H139052   6.129   1.221   2.234
13037TIP3    H239053   6.149   1.099   2.148
13038TIP3   OH239054   3.376   4.928   0.282
13038TIP3    H139055   3.294   4.893   0.246
13038TIP3    H239056   3.351   4.966   0.367
13039TIP3   OH239057   5.806   3.458   0.952
13039TIP3    H139058   5.828   3.522   1.020
13039TIP3    H239059   5.717   3.428   0.975
13040TIP3   OH239060   2.418   1.710   5.704
13040TIP3    H139061   2.374   1.788   5.670
13040TIP3    H239062   2.362   1.681   5.776
13041TIP3   OH239063   6.793   3.051   4.798
13041TIP3    H139064   6.834   3.058   4.712
13041TIP3    H239065   6.716   2.995   4.784
13042TIP3   OH239066   0.193   4.607   3.048
13042TIP3    H139067   0.117   4.651   3.085
13042TIP3    H239068   0.163   4.518   3.029
13043TIP3   OH239069   4.759   1.574   1.797
13043TIP3    H139070   4.730   1.567   1.706
13043TIP3    H239071   4.834   1.634   1.794
13044TIP3   OH239072   7.249   1.741   4.341
13044TIP3    H139073   7.307   1.686   4.289
13044TIP3    H239074   7.212   1.803   4.279
13045TIP3   OH239075   4.913   3.369   5.655
13045TIP3    H139076   4.829   3.339   5.691
13045TIP3    H239077   4.910   3.344   5.563
13046TIP3   OH239078   6.024   4.079   1.836
13046TIP3    H139079   6.061   4.164   1.857
13046TIP3    H239080   5.954   4.097   1.772
13047TIP3   OH239081   5.455   1.298   1.723
13047TIP3    H139082   5.400   1.356   1.776
13047TIP3    H239083   5.399   1.273   1.649
13048TIP3   OH239084   3.646   1.548   5.170
13048TIP3    H139085   3.654   1.642   5.185
13048TIP3    H239086   3.687   1.534   5.085
13049TIP3   OH239087   2.390   0.059   1.792
13049TIP3    H139088   2.366   0.039   1.883
13049TIP3    H239089   2.430   0.146   1.796
13050TIP3   OH239090   1.379   3.314   4.166
13050TIP3    H139091   1.354   3.249   4.100
13050TIP3    H239092   1.458   3.355   4.130
13051TIP3   OH239093   2.356   6.098   2.287
13051TIP3    H139094   2.398   6.165   2.340
13051TIP3    H239095   2.314   6.147   2.216
13052TIP3   OH239096   1.557   5.739   3.411
13052TIP3    H139097   1.519   5.822   3.440
13052TIP3    H239098   1.618   5.764   3.341
13053TIP3   OH239099   1.460   3.661   4.996
13053TIP3    H139100   1.403   3.587   5.019
13053TIP3    H239101   1.532   3.656   5.058
13054TIP3   OH239102   7.404   3.319   6.593
13054TIP3    H139103   7.430   3.249   6.533
13054TIP3    H239104   7.312   3.336   6.572
13055TIP3   OH239105   7.298   6.560   5.375
13055TIP3    H139106   7.379   6.575   5.327
13055TIP3    H239107   7.287   6.465   5.376
13056TIP3   OH239108   1.424   0.873   6.735
13056TIP3    H139109   1.396   0.894   6.646
13056TIP3    H239110   1.383   0.788   6.753
13057TIP3   OH239111   3.024   3.808   6.874
13057TIP3    H139112   2.944   3.798   6.823
13057TIP3    H239113   3.069   3.723   6.865
13058TIP3   OH239114   2.980   2.689   5.119
13058TIP3    H139115   2.943   2.718   5.035
13058TIP3    H239116   3.074   2.705   5.110
13059TIP3   OH239117   2.772   5.350   1.188
13059TIP3    H139118   2.695   5.348   1.245
13059TIP3    H239119   2.740   5.320   1.103
13060TIP3   OH239120   7.691   1.706   4.976
13060TIP3    H139121   7.603   1.743   4.986
13060TIP3    H239122   7.749   1.772   5.016
13061TIP3   OH239123   2.920   0.410   4.097
13061TIP3    H139124   2.899   0.464   4.021
13061TIP3    H239125   2.836   0.396   4.141
13062TIP3   OH239126   0.386   3.391   5.369
13062TIP3    H139127   0.347   3.304   5.370
13062TIP3    H239128   0.323   3.444   5.320
13063TIP3   OH239129   5.700   2.578   1.771
13063TIP3    H139130   5.619   2.533   1.749
13063TIP3    H239131   5.766   2.508   1.775
13064TIP3   OH239132   7.155   1.024   2.642
13064TIP3    H139133   7.096   1.097   2.660
13064TIP3    H239134   7.190   0.999   2.727
13065TIP3   OH239135   1.238   7.877   6.409
13065TIP3    H139136   1.245   7.854   6.316
13065TIP3    H239137   1.231   7.972   6.410
13066TIP3   OH239138   5.832   3.054   6.382
13066TIP3    H139139   5.880   2.982   6.422
13066TIP3    H239140   5.792   3.016   6.304
13067TIP3   OH239141   0.272   4.114   1.870
13067TIP3    H139142   0.351   4.064   1.851
13067TIP3    H239143   0.231   4.129   1.785
13068TIP3   OH239144   5.880   7.168   2.649
13068TIP3    H139145   5.872   7.134   2.560
13068TIP3    H239146   5.939   7.106   2.693
13069TIP3   OH239147   4.716   5.171   5.755
13069TIP3    H139148   4.658   5.099   5.730
13069TIP3    H239149   4.779   5.131   5.816
13070TIP3   OH239150   2.209   6.019   6.752
13070TIP3    H139151   2.271   5.947   6.763
13070TIP3    H239152   2.214   6.041   6.659
13071TIP3   OH239153   1.916   5.169   1.882
13071TIP3    H139154   1.897   5.162   1.976
13071TIP3    H239155   1.860   5.240   1.852
13072TIP3   OH239156   2.115   2.849   5.110
13072TIP3    H139157   2.181   2.897   5.161
13072TIP3    H239158   2.036   2.903   5.117
13073TIP3   OH239159   1.939   1.639   3.995
13073TIP3    H139160   1.869   1.662   4.056
13073TIP3    H239161   2.006   1.597   4.050
13074TIP3   OH239162   6.206   4.572   0.437
13074TIP3    H139163   6.197   4.540   0.347
13074TIP3    H239164   6.284   4.529   0.470
13075TIP3   OH239165   4.815   0.778   6.222
13075TIP3    H139166   4.895   0.782   6.170
13075TIP3    H239167   4.845   0.781   6.312
13076TIP3   OH239168   7.401   7.780   4.733
13076TIP3    H139169   7.451   7.778   4.652
13076TIP3    H239170   7.424   7.698   4.777
13077TIP3   OH239171   3.081   6.921   0.498
13077TIP3    H139172   3.060   6.912   0.405
13077TIP3    H239173   3.173   6.896   0.505
13078TIP3   OH239174   1.342   4.746   6.007
13078TIP3    H139175   1.374   4.775   6.092
13078TIP3    H239176   1.249   4.731   6.021
13079TIP3   OH239177   7.564   3.838   4.651
13079TIP3    H139178   7.568   3.837   4.555
13079TIP3    H239179   7.644   3.883   4.677
13080TIP3   OH239180   3.779   4.402   5.600
13080TIP3    H139181   3.731   4.394   5.683
13080TIP3    H239182   3.812   4.313   5.583
13081TIP3   OH239183   3.463   6.672   6.633
13081TIP3    H139184   3.459   6.642   6.724
13081TIP3    H239185   3.484   6.593   6.582
13082TIP3   OH239186   1.241   3.165   2.027
13082TIP3    H139187   1.298   3.131   2.095
13082TIP3    H239188   1.284   3.245   1.997
13083TIP3   OH239189   6.346   1.760   1.886
13083TIP3    H139190   6.413   1.825   1.867
13083TIP3    H239191   6.395   1.684   1.918
13084TIP3   OH239192   6.720   3.415   4.652
13084TIP3    H139193   6.761   3.335   4.619
13084TIP3    H239194   6.627   3.402   4.636
13085TIP3   OH239195   1.885   2.620   2.184
13085TIP3    H139196   1.805   2.673   2.188
13085TIP3    H239197   1.904   2.613   2.091
13086TIP3   OH239198   5.874   6.170   4.881
13086TIP3    H139199   5.879   6.228   4.957
13086TIP3    H239200   5.958   6.124   4.881
13087TIP3   OH239201   2.298   4.138   4.168
13087TIP3    H139202   2.393   4.151   4.164
13087TIP3    H239203   2.262   4.211   4.116
13088TIP3   OH239204   4.064   5.719   0.642
13088TIP3    H139205   4.157   5.701   0.633
13088TIP3    H239206   4.057   5.814   0.633
13089TIP3   OH239207   0.491   1.354   6.837
13089TIP3    H139208   0.504   1.261   6.856
13089TIP3    H239209   0.434   1.354   6.760
13090TIP3   OH239210   3.565   0.553   2.398
13090TIP3    H139211   3.565   0.458   2.400
13090TIP3    H239212   3.472   0.577   2.396
13091TIP3   OH239213   1.661   7.055   3.321
13091TIP3    H139214   1.630   7.072   3.410
13091TIP3    H239215   1.582   7.061   3.266
13092TIP3   OH239216   1.564   1.404   6.802
13092TIP3    H139217   1.487   1.355   6.832
13092TIP3    H239218   1.531   1.462   6.733
13093TIP3   OH239219   6.081   4.361   6.414
13093TIP3    H139220   6.014   4.357   6.482
13093TIP3    H239221   6.069   4.280   6.364
13094TIP3   OH239222   2.991   1.885   0.818
13094TIP3    H139223   2.951   1.805   0.784
13094TIP3    H239224   2.945   1.901   0.900
13095TIP3   OH239225   0.763  -0.026   0.633
13095TIP3    H139226   0.819   0.025   0.575
13095TIP3    H239227   0.744   0.034   0.706
13096TIP3   OH239228   0.282   4.536   5.608
13096TIP3    H139229   0.199   4.536   5.560
13096TIP3    H239230   0.343   4.584   5.551
13097TIP3   OH239231   1.968   7.123   5.160
13097TIP3    H139232   2.024   7.200   5.172
13097TIP3    H239233   2.000   7.060   5.224
13098TIP3   OH239234   4.863  -0.023   3.802
13098TIP3    H139235   4.905   0.052   3.842
13098TIP3    H239236   4.775  -0.026   3.841
13099TIP3   OH239237   7.955   4.955   4.888
13099TIP3    H139238   8.037   4.906   4.885
13099TIP3    H239239   7.921   4.941   4.977
13100TIP3   OH239240   5.531   4.400   4.090
13100TIP3    H139241   5.511   4.439   4.005
13100TIP3    H239242   5.478   4.321   4.093
13101TIP3   OH239243   0.777   0.233   0.155
13101TIP3    H139244   0.835   0.180   0.100
13101TIP3    H239245   0.709   0.264   0.096
13102TIP3   OH239246   1.522   5.357   2.105
13102TIP3    H139247   1.456   5.419   2.073
13102TIP3    H239248   1.604   5.387   2.065
13103TIP3   OH239249   7.920   3.334   1.822
13103TIP3    H139250   7.837   3.319   1.776
13103TIP3    H239251   7.967   3.251   1.813
13104TIP3   OH239252   3.428   6.011   6.786
13104TIP3    H139253   3.402   5.995   6.695
13104TIP3    H239254   3.452   5.925   6.819
13105TIP3   OH239255   2.073   1.463   2.324
13105TIP3    H139256   2.154   1.472   2.374
13105TIP3    H239257   2.069   1.541   2.270
13106TIP3   OH239258   7.406   6.764   1.351
13106TIP3    H139259   7.409   6.767   1.447
13106TIP3    H239260   7.495   6.736   1.326
13107TIP3   OH239261   7.792   6.468   5.182
13107TIP3    H139262   7.828   6.502   5.100
13107TIP3    H239263   7.851   6.501   5.249
13108TIP3   OH239264   2.749   5.886   3.716
13108TIP3    H139265   2.714   5.943   3.784
13108TIP3    H239266   2.671   5.842   3.680
13109TIP3   OH239267   0.466   1.171   1.583
13109TIP3    H139268   0.536   1.179   1.647
13109TIP3    H239269   0.400   1.234   1.612
13110TIP3   OH239270   6.191   2.163   5.749
13110TIP3    H139271   6.165   2.152   5.840
13110TIP3    H239272   6.115   2.132   5.699
13111TIP3   OH239273   0.427   2.489   6.015
13111TIP3    H139274   0.360   2.421   6.024
13111TIP3    H239275   0.488   2.472   6.088
13112TIP3   OH239276   1.295   5.816   5.989
13112TIP3    H139277   1.270   5.869   6.065
13112TIP3    H239278   1.245   5.853   5.916
13113TIP3   OH239279   5.526   5.721   2.538
13113TIP3    H139280   5.568   5.642   2.571
13113TIP3    H239281   5.564   5.735   2.452
13114TIP3   OH239282   7.938   1.182   5.459
13114TIP3    H139283   7.931   1.086   5.457
13114TIP3    H239284   7.948   1.207   5.367
13115TIP3   OH239285   7.898   7.348   5.310
13115TIP3    H139286   7.863   7.365   5.223
13115TIP3    H239287   7.977   7.296   5.295
13116TIP3   OH239288   6.643   6.174   1.813
13116TIP3    H139289   6.565   6.130   1.849
13116TIP3    H239290   6.625   6.183   1.720
13117TIP3   OH239291   0.384   2.431   0.484
13117TIP3    H139292   0.374   2.515   0.439
13117TIP3    H239293   0.370   2.451   0.576
13118TIP3   OH239294   1.316   7.906   0.989
13118TIP3    H139295   1.257   7.833   0.969
13118TIP3    H239296   1.283   7.940   1.072
13119TIP3   OH239297   0.374   1.141   3.720
13119TIP3    H139298   0.424   1.220   3.740
13119TIP3    H239299   0.417   1.072   3.770
13120TIP3   OH239300   4.335   0.281   2.473
13120TIP3    H139301   4.295   0.197   2.452
13120TIP3    H239302   4.352   0.322   2.388
13121TIP3   OH239303   2.485   4.629   0.200
13121TIP3    H139304   2.509   4.643   0.108
13121TIP3    H239305   2.568   4.618   0.245
13122TIP3   OH239306   5.944   5.218   3.402
13122TIP3    H139307   5.897   5.155   3.347
13122TIP3    H239308   5.926   5.189   3.492
13123TIP3   OH239309   8.270   6.366   3.383
13123TIP3    H139310   8.186   6.375   3.338
13123TIP3    H239311   8.255   6.403   3.470
13124TIP3   OH239312   4.190   7.638   5.867
13124TIP3    H139313   4.173   7.544   5.855
13124TIP3    H239314   4.233   7.665   5.786
13125TIP3   OH239315   6.616   0.434   6.347
13125TIP3    H139316   6.579   0.347   6.363
13125TIP3    H239317   6.541   0.487   6.321
13126TIP3   OH239318   4.636   3.255   6.008
13126TIP3    H139319   4.672   3.171   6.038
13126TIP3    H239320   4.712   3.313   6.002
13127TIP3   OH239321   1.563   2.628   6.620
13127TIP3    H139322   1.556   2.541   6.582
13127TIP3    H239323   1.577   2.687   6.546
13128TIP3   OH239324   6.178   1.985   3.510
13128TIP3    H139325   6.178   1.897   3.547
13128TIP3    H239326   6.244   1.983   3.441
13129TIP3   OH239327   2.092   3.077   6.121
13129TIP3    H139328   2.140   3.013   6.067
13129TIP3    H239329   2.034   3.023   6.174
13130TIP3   OH239330   6.868   0.628   2.137
13130TIP3    H139331   6.873   0.662   2.227
13130TIP3    H239332   6.832   0.540   2.146
13131TIP3   OH239333   2.329   4.396   4.435
13131TIP3    H139334   2.328   4.301   4.434
13131TIP3    H239335   2.394   4.420   4.370
13132TIP3   OH239336   6.132   2.601   2.588
13132TIP3    H139337   6.099   2.581   2.500
13132TIP3    H239338   6.145   2.516   2.629
13133TIP3   OH239339   2.551   2.037   3.049
13133TIP3    H139340   2.476   2.016   3.105
13133TIP3    H239341   2.600   1.955   3.043
13134TIP3   OH239342   2.398   7.196   2.209
13134TIP3    H139343   2.357   7.266   2.260
13134TIP3    H239344   2.324   7.151   2.166
13135TIP3   OH239345   7.886   2.758   3.925
13135TIP3    H139346   7.976   2.739   3.950
13135TIP3    H239347   7.856   2.679   3.879
13136TIP3   OH239348   6.878   0.777   3.478
13136TIP3    H139349   6.944   0.724   3.435
13136TIP3    H239350   6.812   0.715   3.509
13137TIP3   OH239351   4.196   1.426   0.994
13137TIP3    H139352   4.257   1.393   1.060
13137TIP3    H239353   4.121   1.456   1.045
13138TIP3   OH239354   6.312   1.490   6.744
13138TIP3    H139355   6.225   1.492   6.784
13138TIP3    H239356   6.327   1.397   6.725
13139TIP3   OH239357   5.097   0.891   4.731
13139TIP3    H139358   5.008   0.879   4.765
13139TIP3    H239359   5.149   0.825   4.777
13140TIP3   OH239360   6.189  -0.003   3.959
13140TIP3    H139361   6.163   0.082   3.923
13140TIP3    H239362   6.119  -0.027   4.019
13141TIP3   OH239363   3.319   0.006   0.973
13141TIP3    H139364   3.229  -0.025   0.978
13141TIP3    H239365   3.317   0.093   1.015
13142TIP3   OH239366   5.519   4.919   5.277
13142TIP3    H139367   5.572   4.950   5.203
13142TIP3    H239368   5.543   4.976   5.350
13143TIP3   OH239369   5.947   6.088   5.236
13143TIP3    H139370   5.874   6.085   5.174
13143TIP3    H239371   5.906   6.110   5.320
13144TIP3   OH239372   3.950   6.354   4.449
13144TIP3    H139373   3.883   6.287   4.436
13144TIP3    H239374   3.990   6.332   4.533
13145TIP3   OH239375   0.440   5.122   6.568
13145TIP3    H139376   0.458   5.216   6.563
13145TIP3    H239377   0.460   5.089   6.481
13146TIP3   OH239378   3.369   0.064   5.525
13146TIP3    H139379   3.430   0.045   5.453
13146TIP3    H239380   3.285   0.031   5.494
13147TIP3   OH239381   3.380   1.764   0.326
13147TIP3    H139382   3.419   1.679   0.345
13147TIP3    H239383   3.448   1.812   0.279
13148TIP3   OH239384   6.964   3.739   3.692
13148TIP3    H139385   6.949   3.775   3.604
13148TIP3    H239386   6.919   3.655   3.692
13149TIP3   OH239387   3.735   2.353   2.087
13149TIP3    H139388   3.742   2.274   2.034
13149TIP3    H239389   3.734   2.322   2.178
13150TIP3   OH239390   6.152   1.382   3.430
13150TIP3    H139391   6.172   1.466   3.387
13150TIP3    H239392   6.107   1.407   3.511
13151TIP3   OH239393   7.697   2.199   6.389
13151TIP3    H139394   7.789   2.196   6.414
13151TIP3    H239395   7.694   2.163   6.300
13152TIP3   OH239396   0.687   6.939   1.016
13152TIP3    H139397   0.780   6.930   1.038
13152TIP3    H239398   0.644   6.866   1.061
13153TIP3   OH239399   6.620   4.950   4.784
13153TIP3    H139400   6.693   4.938   4.724
13153TIP3    H239401   6.576   4.864   4.787
13154TIP3   OH239402   4.072   6.776   0.613
13154TIP3    H139403   4.070   6.811   0.702
13154TIP3    H239404   3.998   6.716   0.609
13155TIP3   OH239405   4.457   3.005   6.810
13155TIP3    H139406   4.408   3.078   6.847
13155TIP3    H239407   4.472   2.945   6.883
13156TIP3   OH239408   1.278   7.003   6.508
13156TIP3    H139409   1.189   6.982   6.535
13156TIP3    H239410   1.279   7.099   6.502
13157TIP3   OH239411   3.830   7.660   4.042
13157TIP3    H139412   3.740   7.629   4.032
13157TIP3    H239413   3.880   7.582   4.064
13158TIP3   OH239414   3.924   7.733   3.642
13158TIP3    H139415   3.937   7.655   3.697
13158TIP3    H239416   4.008   7.779   3.648
13159TIP3   OH239417   6.831   4.575   1.497
13159TIP3    H139418   6.797   4.557   1.409
13159TIP3    H239419   6.753   4.587   1.551
13160TIP3   OH239420   6.966   4.864   2.979
13160TIP3    H139421   7.016   4.812   3.041
13160TIP3    H239422   7.032   4.908   2.925
13161TIP3   OH239423   0.472   4.523   0.346
13161TIP3    H139424   0.557   4.497   0.310
13161TIP3    H239425   0.445   4.450   0.401
13162TIP3   OH239426   5.826   4.496   4.884
13162TIP3    H139427   5.746   4.457   4.849
13162TIP3    H239428   5.834   4.579   4.838
13163TIP3   OH239429   1.205   5.381   5.649
13163TIP3    H139430   1.215   5.379   5.745
13163TIP3    H239431   1.126   5.331   5.633
13164TIP3   OH239432   1.058   4.682   2.789
13164TIP3    H139433   1.105   4.649   2.712
13164TIP3    H239434   1.032   4.603   2.836
13165TIP3   OH239435   1.420   2.567   0.483
13165TIP3    H139436   1.333   2.529   0.475
13165TIP3    H239437   1.419   2.643   0.425
13166TIP3   OH239438   8.064   5.820   4.207
13166TIP3    H139439   8.115   5.879   4.151
13166TIP3    H239440   8.003   5.878   4.253
13167TIP3   OH239441   2.161   1.881   1.124
13167TIP3    H139442   2.208   1.798   1.134
13167TIP3    H239443   2.095   1.880   1.194
13168TIP3   OH239444   1.681   1.688   5.538
13168TIP3    H139445   1.605   1.735   5.504
13168TIP3    H239446   1.734   1.754   5.582
13169TIP3   OH239447   2.006   1.473   0.985
13169TIP3    H139448   1.962   1.553   1.013
13169TIP3    H239449   2.023   1.486   0.892
13170TIP3   OH239450   7.223   1.133   0.693
13170TIP3    H139451   7.221   1.052   0.743
13170TIP3    H239452   7.132   1.147   0.667
13171TIP3   OH239453   5.887   1.004   2.327
13171TIP3    H139454   5.954   0.959   2.379
13171TIP3    H239455   5.919   0.995   2.237
13172TIP3   OH239456   6.629   7.585   6.310
13172TIP3    H139457   6.662   7.536   6.235
13172TIP3    H239458   6.583   7.520   6.364
13173TIP3   OH239459   6.935   0.157   6.362
13173TIP3    H139460   6.963   0.183   6.274
13173TIP3    H239461   6.919   0.063   6.355
13174TIP3   OH239462   2.312   5.410   0.332
13174TIP3    H139463   2.228   5.430   0.291
13174TIP3    H239464   2.309   5.315   0.347
13175TIP3   OH239465   0.359   3.687   5.004
13175TIP3    H139466   0.413   3.608   5.002
13175TIP3    H239467   0.318   3.690   4.918
13176TIP3   OH239468   4.764   0.549   0.076
13176TIP3    H139469   4.717   0.506   0.148
13176TIP3    H239470   4.757   0.487   0.003
13177TIP3   OH239471   3.941   1.688   5.160
13177TIP3    H139472   3.873   1.719   5.101
13177TIP3    H239473   3.986   1.619   5.111
13178TIP3   OH239474   1.704   6.323   6.000
13178TIP3    H139475   1.688   6.416   5.983
13178TIP3    H239476   1.642   6.278   5.942
13179TIP3   OH239477   3.056   2.106   6.544
13179TIP3    H139478   3.038   2.016   6.570
13179TIP3    H239479   3.151   2.112   6.540
13180TIP3   OH239480   5.255   1.449   5.002
13180TIP3    H139481   5.244   1.444   4.907
13180TIP3    H239482   5.168   1.429   5.037
13181TIP3   OH239483   4.294   1.263   6.319
13181TIP3    H139484   4.318   1.211   6.241
13181TIP3    H239485   4.318   1.207   6.393
13182TIP3   OH239486   1.959   6.226   0.225
13182TIP3    H139487   1.989   6.136   0.238
13182TIP3    H239488   1.956   6.237   0.130
13183TIP3   OH239489   1.382   2.561   2.459
13183TIP3    H139490   1.373   2.474   2.498
13183TIP3    H239491   1.458   2.600   2.505
13184TIP3   OH239492   7.188   0.199   3.713
13184TIP3    H139493   7.186   0.228   3.805
13184TIP3    H239494   7.116   0.247   3.672
13185TIP3   OH239495   5.955   4.779   2.245
13185TIP3    H139496   5.935   4.827   2.325
13185TIP3    H239497   5.935   4.840   2.175
13186TIP3   OH239498   0.802   0.914   3.887
13186TIP3    H139499   0.750   0.895   3.966
13186TIP3    H239500   0.772   1.000   3.858
13187TIP3   OH239501   3.748   7.330   1.783
13187TIP3    H139502   3.686   7.355   1.851
13187TIP3    H239503   3.719   7.243   1.755
13188TIP3   OH239504   0.965   7.055   2.562
13188TIP3    H139505   1.059   7.069   2.554
13188TIP3    H239506   0.927   7.141   2.547
13189TIP3   OH239507   3.922   6.183   3.760
13189TIP3    H139508   3.947   6.141   3.842
13189TIP3    H239509   3.838   6.225   3.779
13190TIP3   OH239510  -0.013   7.348   6.016
13190TIP3    H139511   0.004   7.434   6.054
13190TIP3    H239512   0.033   7.350   5.932
13191TIP3   OH239513   0.775   1.392   6.795
13191TIP3    H139514   0.696   1.370   6.843
13191TIP3    H239515   0.803   1.475   6.832
13192TIP3   OH239516   2.381   5.849   0.006
13192TIP3    H139517   2.331   5.868  -0.074
13192TIP3    H239518   2.348   5.763   0.034
13193TIP3   OH239519   0.113   4.594   2.462
13193TIP3    H139520   0.021   4.586   2.485
13193TIP3    H239521   0.114   4.642   2.379
13194TIP3   OH239522   6.097   3.718   2.841
13194TIP3    H139523   6.090   3.642   2.898
13194TIP3    H239524   6.185   3.713   2.805
13195TIP3   OH239525   0.758   1.247   0.066
13195TIP3    H139526   0.812   1.240   0.145
13195TIP3    H239527   0.760   1.160   0.027
13196TIP3   OH239528   2.359   6.889   0.690
13196TIP3    H139529   2.367   6.956   0.622
13196TIP3    H239530   2.366   6.806   0.643
13197TIP3   OH239531   0.524   3.631   4.222
13197TIP3    H139532   0.443   3.596   4.185
13197TIP3    H239533   0.500   3.717   4.256
13198TIP3   OH239534   7.312   3.271   1.150
13198TIP3    H139535   7.248   3.237   1.087
13198TIP3    H239536   7.298   3.366   1.149
13199TIP3   OH239537   5.605   5.926   3.254
13199TIP3    H139538   5.554   5.904   3.332
13199TIP3    H239539   5.696   5.918   3.283
13200TIP3   OH239540   5.163   7.358   6.619
13200TIP3    H139541   5.174   7.323   6.707
13200TIP3    H239542   5.195   7.447   6.624
13201TIP3   OH239543   0.040   2.447   4.566
13201TIP3    H139544  -0.026   2.385   4.596
13201TIP3    H239545   0.117   2.393   4.549
13202TIP3   OH239546   0.356   3.496   3.804
13202TIP3    H139547   0.390   3.575   3.763
13202TIP3    H239548   0.276   3.476   3.756
13203TIP3   OH239549   1.539   1.958   4.702
13203TIP3    H139550   1.522   1.872   4.743
13203TIP3    H239551   1.634   1.966   4.702
13204TIP3   OH239552   3.151   7.412   6.719
13204TIP3    H139553   3.193   7.489   6.757
13204TIP3    H239554   3.190   7.338   6.765
13205TIP3   OH239555   5.052   4.534   6.697
13205TIP3    H139556   5.087   4.472   6.633
13205TIP3    H239557   5.006   4.600   6.645
13206TIP3   OH239558   3.113   7.781   6.263
13206TIP3    H139559   3.170   7.753   6.335
13206TIP3    H239560   3.082   7.699   6.225
13207TIP3   OH239561   2.537   7.097   5.474
13207TIP3    H139562   2.561   7.082   5.565
13207TIP3    H239563   2.474   7.027   5.454
13208TIP3   OH239564   1.421   2.759   5.151
13208TIP3    H139565   1.497   2.706   5.175
13208TIP3    H239566   1.436   2.843   5.192
13209TIP3   OH239567   7.161   2.500   1.845
13209TIP3    H139568   7.147   2.441   1.919
13209TIP3    H239569   7.073   2.526   1.818
13210TIP3   OH239570   7.388   4.748   5.571
13210TIP3    H139571   7.372   4.688   5.644
13210TIP3    H239572   7.451   4.702   5.516
13211TIP3   OH239573   6.728   7.345   5.770
13211TIP3    H139574   6.637   7.372   5.761
13211TIP3    H239575   6.778   7.424   5.750
13212TIP3   OH239576   4.161   5.036   4.101
13212TIP3    H139577   4.134   5.019   4.011
13212TIP3    H239578   4.191   5.127   4.100
13213TIP3   OH239579   2.773   6.277   6.589
13213TIP3    H139580   2.808   6.193   6.620
13213TIP3    H239581   2.729   6.255   6.507
13214TIP3   OH239582   3.558   7.061   6.347
13214TIP3    H139583   3.527   7.143   6.384
13214TIP3    H239584   3.631   7.087   6.290
13215TIP3   OH239585   1.104   3.698   6.039
13215TIP3    H139586   1.043   3.767   6.065
13215TIP3    H239587   1.180   3.710   6.097
13216TIP3   OH239588   4.688   0.654   6.703
13216TIP3    H139589   4.763   0.714   6.711
13216TIP3    H239590   4.695   0.619   6.614
13217TIP3   OH239591   4.415   1.984   6.342
13217TIP3    H139592   4.419   2.011   6.434
13217TIP3    H239593   4.323   1.965   6.327
13218TIP3   OH239594   1.776   0.331   3.826
13218TIP3    H139595   1.687   0.307   3.852
13218TIP3    H239596   1.768   0.360   3.736
13219TIP3   OH239597   1.821   3.214   4.878
13219TIP3    H139598   1.757   3.143   4.880
13219TIP3    H239599   1.904   3.172   4.900
13220TIP3   OH239600   7.627   3.152   2.961
13220TIP3    H139601   7.534   3.164   2.944
13220TIP3    H239602   7.630   3.119   3.051
13221TIP3   OH239603   6.015   5.246   0.412
13221TIP3    H139604   6.014   5.224   0.319
13221TIP3    H239605   6.087   5.310   0.420
13222TIP3   OH239606   6.208   7.081   0.501
13222TIP3    H139607   6.158   7.019   0.554
13222TIP3    H239608   6.276   7.113   0.561
13223TIP3   OH239609   7.059   3.330   1.342
13223TIP3    H139610   7.045   3.250   1.292
13223TIP3    H239611   7.074   3.398   1.276
13224TIP3   OH239612   2.966   1.179   5.739
13224TIP3    H139613   3.037   1.234   5.708
13224TIP3    H239614   2.975   1.097   5.690
13225TIP3   OH239615   2.644   3.840   4.750
13225TIP3    H139616   2.611   3.765   4.800
13225TIP3    H239617   2.669   3.904   4.817
13226TIP3   OH239618   4.656   0.114  -0.002
13226TIP3    H139619   4.571   0.089  -0.039
13226TIP3    H239620   4.664   0.060   0.077
13227TIP3   OH239621   7.278   6.233   3.964
13227TIP3    H139622   7.298   6.269   4.051
13227TIP3    H239623   7.195   6.187   3.977
13228TIP3   OH239624   2.298   7.630   2.056
13228TIP3    H139625   2.210   7.595   2.076
13228TIP3    H239626   2.330   7.662   2.141
13229TIP3   OH239627   5.683   6.965   4.020
13229TIP3    H139628   5.764   7.006   4.050
13229TIP3    H239629   5.688   6.875   4.054
13230TIP3   OH239630   2.869   3.336   4.761
13230TIP3    H139631   2.871   3.426   4.795
13230TIP3    H239632   2.858   3.282   4.840
13231TIP3   OH239633   6.823   2.502   3.164
13231TIP3    H139634   6.732   2.520   3.141
13231TIP3    H239635   6.863   2.589   3.174
13232TIP3   OH239636   5.561   5.466   3.462
13232TIP3    H139637   5.641   5.431   3.422
13232TIP3    H239638   5.502   5.391   3.467
13233TIP3   OH239639   3.101   4.011   4.135
13233TIP3    H139640   3.059   4.070   4.197
13233TIP3    H239641   3.185   4.053   4.115
13234TIP3   OH239642   4.009   3.329   4.847
13234TIP3    H139643   4.094   3.309   4.807
13234TIP3    H239644   3.971   3.395   4.790
13235TIP3   OH239645   5.897   0.068   4.749
13235TIP3    H139646   5.904   0.163   4.744
13235TIP3    H239647   5.982   0.039   4.783
13236TIP3   OH239648   0.868   3.807   5.075
13236TIP3    H139649   0.829   3.745   5.014
13236TIP3    H239650   0.912   3.753   5.140
13237TIP3   OH239651   0.188   7.453   6.628
13237TIP3    H139652   0.158   7.446   6.538
13237TIP3    H239653   0.282   7.472   6.621
13238TIP3   OH239654   1.204   2.857   4.566
13238TIP3    H139655   1.162   2.935   4.602
13238TIP3    H239656   1.165   2.784   4.615
13239TIP3   OH239657   1.590   3.372   2.186
13239TIP3    H139658   1.525   3.305   2.207
13239TIP3    H239659   1.551   3.454   2.216
13240TIP3   OH239660   6.153   2.353   2.718
13240TIP3    H139661   6.091   2.290   2.681
13240TIP3    H239662   6.218   2.299   2.762
13241TIP3   OH239663   0.644   0.654   3.829
13241TIP3    H139664   0.615   0.563   3.820
13241TIP3    H239665   0.740   0.649   3.832
13242TIP3   OH239666   1.308   2.055   1.039
13242TIP3    H139667   1.220   2.044   1.003
13242TIP3    H239668   1.306   2.010   1.123
13243TIP3   OH239669   4.693   3.898   0.762
13243TIP3    H139670   4.599   3.891   0.748
13243TIP3    H239671   4.702   3.954   0.839
13244TIP3   OH239672   4.784   4.900   0.101
13244TIP3    H139673   4.696   4.906   0.065
13244TIP3    H239674   4.798   4.983   0.147
13245TIP3   OH239675   2.541   6.869   1.886
13245TIP3    H139676   2.585   6.870   1.801
13245TIP3    H239677   2.612   6.877   1.950
13246TIP3   OH239678   3.030   7.195   5.883
13246TIP3    H139679   3.039   7.108   5.842
13246TIP3    H239680   2.947   7.190   5.930
13247TIP3   OH239681   4.180   5.422   6.207
13247TIP3    H139682   4.140   5.484   6.146
13247TIP3    H239683   4.258   5.390   6.161
13248TIP3   OH239684   1.585   1.642   1.434
13248TIP3    H139685   1.669   1.683   1.452
13248TIP3    H239686   1.561   1.674   1.348
13249TIP3   OH239687   5.608   4.144   0.733
13249TIP3    H139688   5.514   4.161   0.738
13249TIP3    H239689   5.646   4.226   0.701
13250TIP3   OH239690   7.812   0.869   1.811
13250TIP3    H139691   7.895   0.896   1.771
13250TIP3    H239692   7.794   0.936   1.877
13251TIP3   OH239693   2.112   3.897   2.074
13251TIP3    H139694   2.036   3.866   2.123
13251TIP3    H239695   2.187   3.869   2.126
13252TIP3   OH239696   7.118   0.985   1.180
13252TIP3    H139697   7.172   0.979   1.259
13252TIP3    H239698   7.056   0.913   1.189
13253TIP3   OH239699   5.145   6.358   4.010
13253TIP3    H139700   5.055   6.355   3.976
13253TIP3    H239701   5.155   6.448   4.041
13254TIP3   OH239702   3.788   6.604   1.283
13254TIP3    H139703   3.727   6.628   1.353
13254TIP3    H239704   3.734   6.558   1.219
13255TIP3   OH239705   3.934   2.214   3.885
13255TIP3    H139706   3.928   2.194   3.792
13255TIP3    H239707   3.971   2.302   3.888
13256TIP3   OH239708   6.428   5.697   5.447
13256TIP3    H139709   6.453   5.719   5.537
13256TIP3    H239710   6.370   5.768   5.420
13257TIP3   OH239711   6.934   1.642   3.182
13257TIP3    H139712   7.008   1.583   3.200
13257TIP3    H239713   6.949   1.718   3.238
13258TIP3   OH239714   6.989   5.746   6.090
13258TIP3    H139715   7.071   5.795   6.095
13258TIP3    H239716   6.996   5.679   6.158
13259TIP3   OH239717   0.105   7.458   2.281
13259TIP3    H139718   0.105   7.438   2.188
13259TIP3    H239719   0.017   7.490   2.300
13260TIP3   OH239720   3.370   6.786   2.559
13260TIP3    H139721   3.313   6.845   2.608
13260TIP3    H239722   3.361   6.701   2.603
13261TIP3   OH239723   8.322   3.214   6.847
13261TIP3    H139724   8.387   3.251   6.907
13261TIP3    H239725   8.308   3.282   6.781
13262TIP3   OH239726   6.391   6.250   5.515
13262TIP3    H139727   6.337   6.261   5.438
13262TIP3    H239728   6.479   6.277   5.487
13263TIP3   OH239729   5.958   3.711   2.623
13263TIP3    H139730   6.013   3.729   2.700
13263TIP3    H239731   5.997   3.633   2.583
13264TIP3   OH239732   6.785   6.100   3.845
13264TIP3    H139733   6.881   6.100   3.843
13264TIP3    H239734   6.759   6.095   3.754
13265TIP3   OH239735   6.596   1.181   0.943
13265TIP3    H139736   6.600   1.276   0.952
13265TIP3    H239737   6.578   1.149   1.031
13266TIP3   OH239738   6.204   5.299   6.708
13266TIP3    H139739   6.282   5.248   6.686
13266TIP3    H239740   6.229   5.349   6.786
13267TIP3   OH239741   3.528   4.771   6.606
13267TIP3    H139742   3.438   4.752   6.577
13267TIP3    H239743   3.565   4.824   6.536
13268TIP3   OH239744   1.790   4.960   1.291
13268TIP3    H139745   1.776   5.028   1.357
13268TIP3    H239746   1.873   4.919   1.316
13269TIP3   OH239747   6.852   0.490   4.378
13269TIP3    H139748   6.900   0.408   4.370
13269TIP3    H239749   6.790   0.475   4.450
13270TIP3   OH239750   3.256   0.712   3.726
13270TIP3    H139751   3.350   0.706   3.712
13270TIP3    H239752   3.223   0.757   3.649
13271TIP3   OH239753   5.825   5.368   2.995
13271TIP3    H139754   5.883   5.292   2.999
13271TIP3    H239755   5.814   5.386   2.902
13272TIP3   OH239756   5.269   7.046   0.760
13272TIP3    H139757   5.354   7.062   0.800
13272TIP3    H239758   5.206   7.084   0.821
13273TIP3   OH239759   1.700   1.204   5.560
13273TIP3    H139760   1.647   1.170   5.633
13273TIP3    H239761   1.733   1.288   5.592
13274TIP3   OH239762   5.915   2.781   4.907
13274TIP3    H139763   5.860   2.711   4.942
13274TIP3    H239764   5.946   2.747   4.823
13275TIP3   OH239765   1.039   1.058   3.929
13275TIP3    H139766   1.004   1.128   3.875
13275TIP3    H239767   0.982   0.983   3.912
13276TIP3   OH239768   7.205   1.002   3.791
13276TIP3    H139769   7.166   1.041   3.869
13276TIP3    H239770   7.196   1.070   3.724
13277TIP3   OH239771   3.149   2.697   6.372
13277TIP3    H139772   3.105   2.775   6.405
13277TIP3    H239773   3.211   2.673   6.440
13278TIP3   OH239774   2.772   0.379   0.847
13278TIP3    H139775   2.843   0.335   0.800
13278TIP3    H239776   2.737   0.441   0.783
13279TIP3   OH239777   2.814   0.900   5.238
13279TIP3    H139778   2.845   0.823   5.189
13279TIP3    H239779   2.795   0.867   5.325
13280TIP3   OH239780   1.020   3.300   6.610
13280TIP3    H139781   1.036   3.217   6.656
13280TIP3    H239782   0.983   3.274   6.526
13281TIP3   OH239783   3.338   5.990   2.408
13281TIP3    H139784   3.419   6.041   2.409
13281TIP3    H239785   3.363   5.908   2.364
13282TIP3   OH239786   7.789   3.619   3.204
13282TIP3    H139787   7.822   3.607   3.293
13282TIP3    H239788   7.772   3.713   3.197
13283TIP3   OH239789   1.471   6.482   1.542
13283TIP3    H139790   1.486   6.516   1.454
13283TIP3    H239791   1.474   6.387   1.532
13284TIP3   OH239792   5.100   7.247   3.030
13284TIP3    H139793   5.094   7.342   3.028
13284TIP3    H239794   5.090   7.220   2.939
13285TIP3   OH239795   8.164   7.742   0.722
13285TIP3    H139796   8.243   7.747   0.668
13285TIP3    H239797   8.096   7.784   0.669
13286TIP3   OH239798   3.806   5.637   5.141
13286TIP3    H139799   3.880   5.696   5.124
13286TIP3    H239800   3.731   5.696   5.148
13287TIP3   OH239801   2.077   3.713   0.464
13287TIP3    H139802   2.037   3.627   0.477
13287TIP3    H239803   2.161   3.694   0.421
13288TIP3   OH239804   0.501   2.478   4.576
13288TIP3    H139805   0.567   2.476   4.506
13288TIP3    H239806   0.419   2.500   4.532
13289TIP3   OH239807   5.430   4.557   3.889
13289TIP3    H139808   5.474   4.637   3.919
13289TIP3    H239809   5.389   4.583   3.806
13290TIP3   OH239810   0.877   0.376   2.116
13290TIP3    H139811   0.902   0.295   2.073
13290TIP3    H239812   0.959   0.423   2.131
13291TIP3   OH239813   3.413   1.301   5.573
13291TIP3    H139814   3.493   1.267   5.612
13291TIP3    H239815   3.438   1.323   5.483
13292TIP3   OH239816   1.464   4.744   3.537
13292TIP3    H139817   1.473   4.669   3.595
13292TIP3    H239818   1.372   4.746   3.513
13293TIP3   OH239819   5.985   4.039   5.639
13293TIP3    H139820   5.969   4.115   5.583
13293TIP3    H239821   6.045   3.985   5.589
13294TIP3   OH239822   1.938   6.843   1.811
13294TIP3    H139823   1.925   6.820   1.903
13294TIP3    H239824   1.997   6.919   1.813
13295TIP3   OH239825   4.431   5.860   5.495
13295TIP3    H139826   4.499   5.816   5.445
13295TIP3    H239827   4.399   5.793   5.557
13296TIP3   OH239828   2.751   4.169   6.320
13296TIP3    H139829   2.726   4.259   6.339
13296TIP3    H239830   2.669   4.126   6.295
13297TIP3   OH239831   2.404   4.124   0.774
13297TIP3    H139832   2.324   4.074   0.786
13297TIP3    H239833   2.410   4.139   0.680
13298TIP3   OH239834   7.200   2.701   4.708
13298TIP3    H139835   7.290   2.670   4.698
13298TIP3    H239836   7.160   2.686   4.623
13299TIP3   OH239837   6.458   3.631   3.543
13299TIP3    H139838   6.506   3.583   3.476
13299TIP3    H239839   6.366   3.606   3.530
13300TIP3   OH239840   8.324   4.023   0.547
13300TIP3    H139841   8.394   4.070   0.501
13300TIP3    H239842   8.245   4.073   0.529
13301TIP3   OH239843   4.013   5.463   1.823
13301TIP3    H139844   4.062   5.543   1.844
13301TIP3    H239845   4.077   5.393   1.829
13302TIP3   OH239846   0.223   2.001   3.916
13302TIP3    H139847   0.171   1.950   3.854
13302TIP3    H239848   0.305   1.952   3.924
13303TIP3   OH239849   4.277   7.771   4.774
13303TIP3    H139850   4.201   7.730   4.732
13303TIP3    H239851   4.332   7.697   4.802
13304TIP3   OH239852   3.625   6.608   0.152
13304TIP3    H139853   3.641   6.531   0.206
13304TIP3    H239854   3.619   6.680   0.214
13305TIP3   OH239855   3.792   4.475   4.968
13305TIP3    H139856   3.723   4.495   5.032
13305TIP3    H239857   3.817   4.560   4.933
13306TIP3   OH239858   3.247   2.068   4.418
13306TIP3    H139859   3.222   2.022   4.497
13306TIP3    H239860   3.171   2.121   4.395
13307TIP3   OH239861   3.440   4.990   4.830
13307TIP3    H139862   3.404   4.994   4.919
13307TIP3    H239863   3.467   5.079   4.811
13308TIP3   OH239864   2.488   1.464   0.147
13308TIP3    H139865   2.499   1.452   0.053
13308TIP3    H239866   2.496   1.558   0.160
13309TIP3   OH239867   7.683   2.760   6.206
13309TIP3    H139868   7.659   2.695   6.273
13309TIP3    H239869   7.757   2.807   6.243
13310TIP3   OH239870   6.796   0.110   4.761
13310TIP3    H139871   6.828   0.097   4.672
13310TIP3    H239872   6.742   0.034   4.780
13311TIP3   OH239873   4.176   5.815   2.402
13311TIP3    H139874   4.081   5.816   2.384
13311TIP3    H239875   4.195   5.904   2.431
13312TIP3   OH239876   0.203   3.697   5.767
13312TIP3    H139877   0.168   3.616   5.731
13312TIP3    H239878   0.125   3.747   5.792
13313TIP3   OH239879   7.396   2.590   3.722
13313TIP3    H139880   7.347   2.514   3.754
13313TIP3    H239881   7.481   2.553   3.696
13314TIP3   OH239882   3.278   6.092   4.632
13314TIP3    H139883   3.343   6.036   4.675
13314TIP3    H239884   3.328   6.139   4.565
13315TIP3   OH239885   5.411   7.388   2.701
13315TIP3    H139886   5.386   7.306   2.743
13315TIP3    H239887   5.500   7.406   2.734
13316TIP3   OH239888   4.230   0.315   5.056
13316TIP3    H139889   4.209   0.235   5.008
13316TIP3    H239890   4.197   0.386   5.001
13317TIP3   OH239891   3.791   6.692   0.633
13317TIP3    H139892   3.775   6.694   0.727
13317TIP3    H239893   3.734   6.623   0.600
13318TIP3   OH239894   3.708   1.012   0.332
13318TIP3    H139895   3.743   0.931   0.368
13318TIP3    H239896   3.745   1.082   0.386
13319TIP3   OH239897   2.868   2.190   5.379
13319TIP3    H139898   2.872   2.135   5.457
13319TIP3    H239899   2.809   2.262   5.403
13320TIP3   OH239900   6.234   1.818   2.128
13320TIP3    H139901   6.167   1.886   2.132
13320TIP3    H239902   6.267   1.821   2.039
13321TIP3   OH239903   0.313   7.396   4.955
13321TIP3    H139904   0.295   7.341   5.031
13321TIP3    H239905   0.362   7.471   4.990
13322TIP3   OH239906   1.803   1.875   2.516
13322TIP3    H139907   1.813   1.779   2.519
13322TIP3    H239908   1.752   1.891   2.437
13323TIP3   OH239909   2.361   4.336   2.714
13323TIP3    H139910   2.418   4.300   2.646
13323TIP3    H239911   2.371   4.276   2.788
13324TIP3   OH239912   4.723   2.589   1.558
13324TIP3    H139913   4.653   2.616   1.499
13324TIP3    H239914   4.751   2.504   1.526
13325TIP3   OH239915   2.492   4.983   0.300
13325TIP3    H139916   2.544   5.049   0.345
13325TIP3    H239917   2.500   5.005   0.207
13326TIP3   OH239918   6.585   5.970   4.813
13326TIP3    H139919   6.580   5.942   4.722
13326TIP3    H239920   6.505   5.937   4.853
13327TIP3   OH239921   3.606   5.460   6.382
13327TIP3    H139922   3.610   5.376   6.428
13327TIP3    H239923   3.682   5.459   6.324
13328TIP3   OH239924   3.068   0.946   6.633
13328TIP3    H139925   3.131   1.016   6.615
13328TIP3    H239926   3.115   0.865   6.612
13329TIP3   OH239927   6.673   3.895   0.009
13329TIP3    H139928   6.744   3.846  -0.034
13329TIP3    H239929   6.716   3.969   0.051
13330TIP3   OH239930   2.391   6.634   5.326
13330TIP3    H139931   2.376   6.647   5.233
13330TIP3    H239932   2.402   6.539   5.336
13331TIP3   OH239933   1.080   5.089  -0.020
13331TIP3    H139934   1.153   5.037   0.012
13331TIP3    H239935   1.054   5.046  -0.102
13332TIP3   OH239936   8.158   3.810   0.322
13332TIP3    H139937   8.145   3.796   0.416
13332TIP3    H239938   8.247   3.843   0.314
13333TIP3   OH239939   5.593   1.014   3.731
13333TIP3    H139940   5.682   1.014   3.767
13333TIP3    H239941   5.589   0.936   3.676
13334TIP3   OH239942   2.444   6.656   0.972
13334TIP3    H139943   2.350   6.678   0.972
13334TIP3    H239944   2.450   6.575   1.021
13335TIP3   OH239945   6.899   6.657   2.119
13335TIP3    H139946   6.820   6.685   2.073
13335TIP3    H239947   6.891   6.561   2.123
13336TIP3   OH239948   6.766   7.097   5.652
13336TIP3    H139949   6.777   7.180   5.699
13336TIP3    H239950   6.674   7.074   5.664
13337TIP3   OH239951   5.404   2.348   2.660
13337TIP3    H139952   5.325   2.402   2.665
13337TIP3    H239953   5.380   2.266   2.702
13338TIP3   OH239954   8.013   4.184   0.227
13338TIP3    H139955   8.087   4.234   0.192
13338TIP3    H239956   7.940   4.245   0.226
13339TIP3   OH239957   7.851   2.013   4.115
13339TIP3    H139958   7.924   2.073   4.101
13339TIP3    H239959   7.883   1.928   4.084
13340TIP3   OH239960   0.531   4.092   0.297
13340TIP3    H139961   0.623   4.117   0.288
13340TIP3    H239962   0.510   4.047   0.216
13341TIP3   OH239963   6.619   2.407   4.316
13341TIP3    H139964   6.679   2.438   4.249
13341TIP3    H239965   6.590   2.321   4.285
13342TIP3   OH239966   8.356   3.907   3.827
13342TIP3    H139967   8.278   3.898   3.881
13342TIP3    H239968   8.356   3.999   3.800
13343TIP3   OH239969   7.780   6.338   0.520
13343TIP3    H139970   7.701   6.303   0.561
13343TIP3    H239971   7.850   6.319   0.583
13344TIP3   OH239972   2.933   1.730   3.399
13344TIP3    H139973   3.027   1.718   3.383
13344TIP3    H239974   2.925   1.726   3.494
13345TIP3   OH239975   2.785   6.674   1.610
13345TIP3    H139976   2.844   6.671   1.535
13345TIP3    H239977   2.758   6.583   1.622
13346TIP3   OH239978   6.964   3.723   3.412
13346TIP3    H139979   6.946   3.684   3.326
13346TIP3    H239980   7.057   3.706   3.427
13347TIP3   OH239981   2.487   0.793   5.244
13347TIP3    H139982   2.545   0.759   5.176
13347TIP3    H239983   2.517   0.750   5.324
13348TIP3   OH239984   0.762   6.036   1.742
13348TIP3    H139985   0.718   5.959   1.779
13348TIP3    H239986   0.746   6.029   1.648
13349TIP3   OH239987   8.170   5.592   4.120
13349TIP3    H139988   8.258   5.594   4.158
13349TIP3    H239989   8.122   5.660   4.168
13350TIP3   OH239990   4.556   0.337   0.154
13350TIP3    H139991   4.471   0.340   0.111
13350TIP3    H239992   4.600   0.262   0.115
13351TIP3   OH239993   2.291   6.320   6.673
13351TIP3    H139994   2.319   6.392   6.616
13351TIP3    H239995   2.313   6.241   6.624
13352TIP3   OH239996   1.730   5.939   1.092
13352TIP3    H139997   1.721   6.016   1.036
13352TIP3    H239998   1.747   5.974   1.179
13353TIP3   OH239999   7.875   1.866   5.128
13353TIP3    H140000   7.899   1.958   5.141
13353TIP3    H240001   7.949   1.817   5.164
13354TIP3   OH240002   5.262   3.148   4.694
13354TIP3    H140003   5.228   3.113   4.611
13354TIP3    H240004   5.330   3.209   4.668
13355TIP3   OH240005   0.785   1.034   5.434
13355TIP3    H140006   0.740   1.083   5.365
13355TIP3    H240007   0.866   1.004   5.392
13356TIP3   OH240008   6.692   5.409   1.082
13356TIP3    H140009   6.659   5.496   1.063
13356TIP3    H240010   6.651   5.385   1.165
13357TIP3   OH240011   4.411   7.917   6.584
13357TIP3    H140012   4.481   7.893   6.645
13357TIP3    H240013   4.453   7.972   6.518
13358TIP3   OH240014   4.472   5.962   6.787
13358TIP3    H140015   4.392   5.952   6.736
13358TIP3    H240016   4.471   5.888   6.848
13359TIP3   OH240017   7.983   0.173   6.023
13359TIP3    H140018   8.021   0.098   5.976
13359TIP3    H240019   7.891   0.175   5.995
13360TIP3   OH240020   0.093   6.216   3.380
13360TIP3    H140021   0.002   6.242   3.390
13360TIP3    H240022   0.090   6.144   3.316
13361TIP3   OH240023   5.335   2.224   6.612
13361TIP3    H140024   5.341   2.130   6.596
13361TIP3    H240025   5.297   2.231   6.699
13362TIP3   OH240026   4.745   2.702   6.556
13362TIP3    H140027   4.720   2.674   6.468
13362TIP3    H240028   4.816   2.643   6.580
13363TIP3   OH240029   0.601   0.396   5.325
13363TIP3    H140030   0.622   0.413   5.233
13363TIP3    H240031   0.629   0.475   5.371
13364TIP3   OH240032   7.198   0.882   1.626
13364TIP3    H140033   7.155   0.943   1.687
13364TIP3    H240034   7.132   0.815   1.610
13365TIP3   OH240035   7.938   4.713   0.150
13365TIP3    H140036   7.997   4.695   0.077
13365TIP3    H240037   7.917   4.806   0.141
13366TIP3   OH240038   4.611   7.326   3.749
13366TIP3    H140039   4.700   7.306   3.720
13366TIP3    H240040   4.557   7.308   3.672
13367TIP3   OH240041   1.558   3.306   3.162
13367TIP3    H140042   1.563   3.401   3.157
13367TIP3    H240043   1.465   3.287   3.172
13368TIP3   OH240044   1.494   5.297   5.890
13368TIP3    H140045   1.399   5.302   5.900
13368TIP3    H240046   1.507   5.281   5.796
13369TIP3   OH240047   2.720   0.002   1.811
13369TIP3    H140048   2.774   0.041   1.880
13369TIP3    H240049   2.693   0.076   1.757
13370TIP3   OH240050   0.575   2.000   2.134
13370TIP3    H140051   0.576   2.024   2.226
13370TIP3    H240052   0.515   1.926   2.128
13371TIP3   OH240053   2.118   4.899   0.115
13371TIP3    H140054   2.165   4.978   0.143
13371TIP3    H240055   2.159   4.875   0.032
13372TIP3   OH240056   1.485   3.011   1.898
13372TIP3    H140057   1.530   3.078   1.949
13372TIP3    H240058   1.420   2.975   1.959
13373TIP3   OH240059   3.981   3.762   2.777
13373TIP3    H140060   3.903   3.725   2.820
13373TIP3    H240061   3.955   3.852   2.757
13374TIP3   OH240062   2.860   1.182   5.414
13374TIP3    H140063   2.814   1.243   5.472
13374TIP3    H240064   2.798   1.110   5.402
13375TIP3   OH240065   3.415   3.379   2.942
13375TIP3    H140066   3.332   3.332   2.947
13375TIP3    H240067   3.440   3.375   2.850
13376TIP3   OH240068   2.607   1.069   5.157
13376TIP3    H140069   2.539   1.008   5.184
13376TIP3    H240070   2.689   1.026   5.180
13377TIP3   OH240071   2.394   5.382   4.269
13377TIP3    H140072   2.467   5.351   4.323
13377TIP3    H240073   2.431   5.453   4.217
13378TIP3   OH240074   0.602   2.002   3.274
13378TIP3    H140075   0.671   1.956   3.321
13378TIP3    H240076   0.560   2.057   3.339
13379TIP3   OH240077   8.451   7.502   3.228
13379TIP3    H140078   8.369   7.551   3.233
13379TIP3    H240079   8.504   7.549   3.164
13380TIP3   OH240080   5.164   4.676   5.212
13380TIP3    H140081   5.079   4.681   5.256
13380TIP3    H240082   5.180   4.766   5.182
13381TIP3   OH240083   2.169   6.215   2.068
13381TIP3    H140084   2.215   6.208   1.984
13381TIP3    H240085   2.076   6.217   2.044
13382TIP3   OH240086   8.337   4.682   1.460
13382TIP3    H140087   8.362   4.682   1.553
13382TIP3    H240088   8.272   4.612   1.453
13383TIP3   OH240089   5.239   3.845   5.077
13383TIP3    H140090   5.293   3.766   5.064
13383TIP3    H240091   5.295   3.903   5.129
13384TIP3   OH240092   2.984   3.261   6.066
13384TIP3    H140093   2.995   3.280   5.973
13384TIP3    H240094   3.060   3.301   6.109
13385TIP3   OH240095   4.989   7.729   0.486
13385TIP3    H140096   4.931   7.661   0.453
13385TIP3    H240097   4.935   7.808   0.486
13386TIP3   OH240098   7.522   3.232   4.048
13386TIP3    H140099   7.459   3.197   4.110
13386TIP3    H240100   7.532   3.163   3.982
13387TIP3   OH240101   7.333   1.213   1.010
13387TIP3    H140102   7.388   1.288   1.028
13387TIP3    H240103   7.267   1.246   0.949
13388TIP3   OH240104   0.246   3.029   3.615
13388TIP3    H140105   0.319   3.016   3.675
13388TIP3    H240106   0.170   3.046   3.671
13389TIP3   OH240107   4.979   1.335   1.982
13389TIP3    H140108   4.923   1.388   2.039
13389TIP3    H240109   4.955   1.361   1.893
13390TIP3   OH240110   8.269   1.719   5.896
13390TIP3    H140111   8.282   1.800   5.944
13390TIP3    H240112   8.181   1.690   5.921
13391TIP3   OH240113   5.844   2.580   3.122
13391TIP3    H140114   5.777   2.523   3.162
13391TIP3    H240115   5.926   2.532   3.133
13392TIP3   OH240116   6.086   3.820   6.255
13392TIP3    H140117   5.990   3.829   6.249
13392TIP3    H240118   6.101   3.726   6.258
13393TIP3   OH240119   7.169   5.816   4.081
13393TIP3    H140120   7.224   5.801   4.157
13393TIP3    H240121   7.162   5.730   4.038
13394TIP3   OH240122   6.324   2.545   0.840
13394TIP3    H140123   6.321   2.478   0.908
13394TIP3    H240124   6.240   2.537   0.795
13395TIP3   OH240125   3.199   4.434   3.313
13395TIP3    H140126   3.226   4.522   3.284
13395TIP3    H240127   3.276   4.400   3.359
13396TIP3   OH240128   7.197   7.567   1.789
13396TIP3    H140129   7.240   7.568   1.703
13396TIP3    H240130   7.193   7.474   1.813
13397TIP3   OH240131   2.091   3.293   3.308
13397TIP3    H140132   2.053   3.368   3.352
13397TIP3    H240133   2.054   3.296   3.219
13398TIP3   OH240134   0.558   2.817   1.032
13398TIP3    H140135   0.633   2.758   1.032
13398TIP3    H240136   0.484   2.761   1.007
13399TIP3   OH240137   7.666   4.083   0.695
13399TIP3    H140138   7.669   4.073   0.790
13399TIP3    H240139   7.575   4.103   0.675
13400TIP3   OH240140   5.346   6.420   4.869
13400TIP3    H140141   5.341   6.504   4.823
13400TIP3    H240142   5.340   6.443   4.962
13401TIP3   OH240143   1.981   4.465   3.892
13401TIP3    H140144   1.894   4.465   3.933
13401TIP3    H240145   1.963   4.450   3.799
13402TIP3   OH240146   1.851   0.978   5.562
13402TIP3    H140147   1.787   1.022   5.506
13402TIP3    H240148   1.882   1.047   5.621
13403TIP3   OH240149   4.987   4.470   3.359
13403TIP3    H140150   5.042   4.543   3.328
13403TIP3    H240151   5.048   4.411   3.403
13404TIP3   OH240152   4.870   2.610   1.801
13404TIP3    H140153   4.824   2.621   1.884
13404TIP3    H240154   4.803   2.625   1.734
13405TIP3   OH240155   0.295   3.268   2.259
13405TIP3    H140156   0.268   3.348   2.304
13405TIP3    H240157   0.362   3.297   2.197
13406TIP3   OH240158   2.994   3.352   5.761
13406TIP3    H140159   3.029   3.289   5.698
13406TIP3    H240160   2.910   3.379   5.723
13407TIP3   OH240161   1.127   6.273   6.385
13407TIP3    H140162   1.088   6.188   6.406
13407TIP3    H240163   1.052   6.330   6.369
13408TIP3   OH240164   7.967   6.177   4.955
13408TIP3    H140165   7.990   6.190   5.047
13408TIP3    H240166   7.875   6.203   4.949
13409TIP3   OH240167   3.465   7.272   0.195
13409TIP3    H140168   3.383   7.275   0.146
13409TIP3    H240169   3.442   7.305   0.282
13410TIP3   OH240170   1.650   7.392   4.410
13410TIP3    H140171   1.582   7.458   4.398
13410TIP3    H240172   1.697   7.420   4.489
13411TIP3   OH240173   0.737   1.432   5.016
13411TIP3    H140174   0.709   1.469   5.100
13411TIP3    H240175   0.669   1.369   4.994
13412TIP3   OH240176   3.072   6.944   3.150
13412TIP3    H140177   3.025   7.006   3.207
13412TIP3    H240178   3.002   6.894   3.107
13413TIP3   OH240179   4.007   2.584   5.609
13413TIP3    H140180   4.067   2.534   5.664
13413TIP3    H240181   4.060   2.657   5.576
13414TIP3   OH240182   3.905   6.027   1.097
13414TIP3    H140183   3.959   5.957   1.060
13414TIP3    H240184   3.943   6.046   1.182
13415TIP3   OH240185   6.550   1.931   1.788
13415TIP3    H140186   6.569   2.009   1.735
13415TIP3    H240187   6.588   1.951   1.874
13416TIP3   OH240188   2.413   0.981   2.071
13416TIP3    H140189   2.430   1.075   2.079
13416TIP3    H240190   2.466   0.941   2.139
13417TIP3   OH240191   6.817   1.288   3.268
13417TIP3    H140192   6.749   1.276   3.335
13417TIP3    H240193   6.793   1.226   3.199
13418TIP3   OH240194   5.217   6.788   1.580
13418TIP3    H140195   5.157   6.724   1.540
13418TIP3    H240196   5.222   6.859   1.516
13419TIP3   OH240197   4.109   0.762   2.296
13419TIP3    H140198   4.117   0.781   2.390
13419TIP3    H240199   4.091   0.848   2.256
13420TIP3   OH240200   5.332   3.532   1.993
13420TIP3    H140201   5.349   3.498   1.905
13420TIP3    H240202   5.260   3.594   1.982
13421TIP3   OH240203   4.735   3.409   3.194
13421TIP3    H140204   4.661   3.459   3.229
13421TIP3    H240205   4.700   3.362   3.119
13422TIP3   OH240206   4.311   1.552   3.665
13422TIP3    H140207   4.244   1.621   3.660
13422TIP3    H240208   4.335   1.549   3.757
13423TIP3   OH240209   3.392   5.014   6.320
13423TIP3    H140210   3.349   4.950   6.376
13423TIP3    H240211   3.481   4.980   6.309
13424TIP3   OH240212   3.530   5.356   5.597
13424TIP3    H140213   3.471   5.418   5.555
13424TIP3    H240214   3.545   5.392   5.684
13425TIP3   OH240215   2.615   5.291   3.677
13425TIP3    H140216   2.617   5.339   3.594
13425TIP3    H240217   2.648   5.204   3.655
13426TIP3   OH240218   6.426   3.766   5.295
13426TIP3    H140219   6.334   3.752   5.274
13426TIP3    H240220   6.467   3.790   5.212
13427TIP3   OH240221   4.554   0.375   4.488
13427TIP3    H140222   4.552   0.422   4.572
13427TIP3    H240223   4.642   0.338   4.483
13428TIP3   OH240224   7.325   7.483   0.484
13428TIP3    H140225   7.296   7.523   0.401
13428TIP3    H240226   7.402   7.433   0.460
13429TIP3   OH240227   5.429   4.226   3.592
13429TIP3    H140228   5.404   4.138   3.566
13429TIP3    H240229   5.357   4.281   3.563
13430TIP3   OH240230   3.865   3.044   1.850
13430TIP3    H140231   3.777   3.073   1.825
13430TIP3    H240232   3.888   3.099   1.925
13431TIP3   OH240233   4.937   5.885   1.269
13431TIP3    H140234   4.876   5.950   1.236
13431TIP3    H240235   4.920   5.807   1.216
13432TIP3   OH240236   1.392   6.031   3.024
13432TIP3    H140237   1.415   6.110   3.073
13432TIP3    H240238   1.363   5.969   3.090
13433TIP3   OH240239   0.427   5.889   3.557
13433TIP3    H140240   0.503   5.858   3.605
13433TIP3    H240241   0.394   5.963   3.609
13434TIP3   OH240242   3.969   5.617   5.635
13434TIP3    H140243   3.883   5.660   5.636
13434TIP3    H240244   3.964   5.554   5.708
13435TIP3   OH240245   1.857   1.954   1.288
13435TIP3    H140246   1.872   2.049   1.290
13435TIP3    H240247   1.772   1.944   1.246
13436TIP3   OH240248   4.560   4.106   2.601
13436TIP3    H140249   4.482   4.124   2.548
13436TIP3    H240250   4.624   4.073   2.539
13437TIP3   OH240251   3.134   4.036   2.996
13437TIP3    H140252   3.152   4.014   2.905
13437TIP3    H240253   3.219   4.057   3.033
13438TIP3   OH240254   1.351   3.758   1.844
13438TIP3    H140255   1.300   3.821   1.895
13438TIP3    H240256   1.340   3.786   1.754
13439TIP3   OH240257   6.671   5.422   2.348
13439TIP3    H140258   6.718   5.360   2.404
13439TIP3    H240259   6.687   5.507   2.388
13440TIP3   OH240260   7.924   1.279   2.273
13440TIP3    H140261   7.842   1.327   2.263
13440TIP3    H240262   7.951   1.297   2.363
13441TIP3   OH240263   0.289   6.442   4.529
13441TIP3    H140264   0.340   6.522   4.539
13441TIP3    H240265   0.198   6.469   4.544
13442TIP3   OH240266   3.706   6.644   5.186
13442TIP3    H140267   3.630   6.637   5.243
13442TIP3    H240268   3.763   6.571   5.212
13443TIP3   OH240269   5.327   6.493   3.390
13443TIP3    H140270   5.411   6.448   3.390
13443TIP3    H240271   5.326   6.542   3.308
13444TIP3   OH240272   6.293   5.311   3.641
13444TIP3    H140273   6.370   5.344   3.595
13444TIP3    H240274   6.220   5.360   3.605
13445TIP3   OH240275   6.402   7.352   2.753
13445TIP3    H140276   6.490   7.373   2.785
13445TIP3    H240277   6.390   7.260   2.777
13446TIP3   OH240278   7.206   1.514   5.724
13446TIP3    H140279   7.265   1.517   5.799
13446TIP3    H240280   7.137   1.577   5.745
13447TIP3   OH240281   4.267   4.122   5.981
13447TIP3    H140282   4.234   4.082   5.901
13447TIP3    H240283   4.220   4.077   6.051
13448TIP3   OH240284   4.406   0.595   5.615
13448TIP3    H140285   4.436   0.517   5.569
13448TIP3    H240286   4.371   0.563   5.698
13449TIP3   OH240287   1.056   3.859   3.057
13449TIP3    H140288   1.034   3.836   2.967
13449TIP3    H240289   0.976   3.843   3.106
13450TIP3   OH240290   5.105   5.318   6.000
13450TIP3    H140291   5.166   5.387   6.025
13450TIP3    H240292   5.030   5.365   5.963
13451TIP3   OH240293   0.161   7.734   5.072
13451TIP3    H140294   0.105   7.656   5.078
13451TIP3    H240295   0.250   7.700   5.075
13452TIP3   OH240296   3.562   3.137   3.073
13452TIP3    H140297   3.599   3.181   3.150
13452TIP3    H240298   3.507   3.204   3.031
13453TIP3   OH240299   5.465   4.626   6.366
13453TIP3    H140300   5.514   4.554   6.406
13453TIP3    H240301   5.406   4.657   6.435
13454TIP3   OH240302   4.609   6.422   3.764
13454TIP3    H140303   4.586   6.335   3.731
13454TIP3    H240304   4.703   6.430   3.746
13455TIP3   OH240305   2.102   2.674   0.095
13455TIP3    H140306   2.128   2.672   0.187
13455TIP3    H240307   2.087   2.582   0.072
13456TIP3   OH240308   7.229   4.597   1.416
13456TIP3    H140309   7.191   4.682   1.439
13456TIP3    H240310   7.228   4.547   1.498
13457TIP3   OH240311   4.227   7.455   5.169
13457TIP3    H140312   4.236   7.483   5.260
13457TIP3    H240313   4.139   7.418   5.164
13458TIP3   OH240314   5.812   3.325   0.333
13458TIP3    H140315   5.883   3.382   0.305
13458TIP3    H240316   5.827   3.243   0.286
13459TIP3   OH240317   4.738   2.634   6.228
13459TIP3    H140318   4.661   2.609   6.176
13459TIP3    H240319   4.750   2.727   6.208
13460TIP3   OH240320   8.379   7.523   0.861
13460TIP3    H140321   8.341   7.605   0.895
13460TIP3    H240322   8.445   7.499   0.927
13461TIP3   OH240323   1.199   3.754   6.395
13461TIP3    H140324   1.262   3.708   6.450
13461TIP3    H240325   1.240   3.756   6.308
13462TIP3   OH240326   5.175   3.621   2.521
13462TIP3    H140327   5.175   3.603   2.427
13462TIP3    H240328   5.125   3.548   2.560
13463TIP3   OH240329   7.483   5.228   1.550
13463TIP3    H140330   7.442   5.211   1.465
13463TIP3    H240331   7.454   5.316   1.574
13464TIP3   OH240332   2.345   2.161   4.559
13464TIP3    H140333   2.402   2.186   4.632
13464TIP3    H240334   2.273   2.113   4.600
13465TIP3   OH240335   0.098   2.402   0.606
13465TIP3    H140336   0.078   2.352   0.685
13465TIP3    H240337   0.190   2.427   0.617
13466TIP3   OH240338   5.038   4.844   2.261
13466TIP3    H140339   4.947   4.823   2.280
13466TIP3    H240340   5.053   4.812   2.172
13467TIP3   OH240341   1.477   1.723   4.019
13467TIP3    H140342   1.499   1.701   3.929
13467TIP3    H240343   1.439   1.811   4.014
13468TIP3   OH240344   2.943   1.541   1.441
13468TIP3    H140345   2.960   1.631   1.470
13468TIP3    H240346   2.959   1.544   1.347
13469TIP3   OH240347   4.927   3.242   2.054
13469TIP3    H140348   5.000   3.212   2.108
13469TIP3    H240349   4.872   3.165   2.043
13470TIP3   OH240350   0.560   7.384   2.727
13470TIP3    H140351   0.636   7.373   2.670
13470TIP3    H240352   0.542   7.478   2.725
13471TIP3   OH240353   6.216   7.071   1.727
13471TIP3    H140354   6.309   7.070   1.703
13471TIP3    H240355   6.217   7.083   1.822
13472TIP3   OH240356   1.541   0.869   1.484
13472TIP3    H140357   1.577   0.849   1.570
13472TIP3    H240358   1.551   0.964   1.475
13473TIP3   OH240359   1.886   2.068   4.345
13473TIP3    H140360   1.825   1.994   4.357
13473TIP3    H240361   1.956   2.051   4.408
13474TIP3   OH240362   1.879   2.218   2.902
13474TIP3    H140363   1.794   2.257   2.880
13474TIP3    H240364   1.895   2.155   2.833
13475TIP3   OH240365   0.786   4.444   4.066
13475TIP3    H140366   0.695   4.427   4.088
13475TIP3    H240367   0.785   4.469   3.974
13476TIP3   OH240368   6.621   5.041   1.316
13476TIP3    H140369   6.568   5.117   1.340
13476TIP3    H240370   6.610   5.034   1.221
13477TIP3   OH240371   1.389   6.980   4.108
13477TIP3    H140372   1.333   6.948   4.178
13477TIP3    H240373   1.474   6.940   4.125
13478TIP3   OH240374   0.234   4.743   1.248
13478TIP3    H140375   0.221   4.833   1.278
13478TIP3    H240376   0.287   4.702   1.316
13479TIP3   OH240377   3.017   0.018   1.477
13479TIP3    H140378   3.005  -0.018   1.565
13479TIP3    H240379   3.025   0.112   1.490
13480TIP3   OH240380   2.307   7.098   6.864
13480TIP3    H140381   2.268   7.178   6.827
13480TIP3    H240382   2.382   7.079   6.809
13481TIP3   OH240383   3.685   3.955   0.012
13481TIP3    H140384   3.639   3.951   0.096
13481TIP3    H240385   3.670   3.868  -0.027
13482TIP3   OH240386   5.077   3.713   5.378
13482TIP3    H140387   5.067   3.646   5.446
13482TIP3    H240388   5.082   3.664   5.297
13483TIP3   OH240389   5.229   2.737   4.262
13483TIP3    H140390   5.176   2.716   4.185
13483TIP3    H240391   5.191   2.683   4.332
13484TIP3   OH240392   6.593   5.124   4.994
13484TIP3    H140393   6.611   5.057   4.927
13484TIP3    H240394   6.571   5.074   5.073
13485TIP3   OH240395   5.770   4.654   3.213
13485TIP3    H140396   5.833   4.706   3.262
13485TIP3    H240397   5.762   4.699   3.129
13486TIP3   OH240398   5.035   7.417   2.053
13486TIP3    H140399   5.046   7.508   2.024
13486TIP3    H240400   4.970   7.422   2.124
13487TIP3   OH240401   1.886   1.120   2.088
13487TIP3    H140402   1.814   1.069   2.051
13487TIP3    H240403   1.958   1.106   2.027
13488TIP3   OH240404   8.080   2.294   1.010
13488TIP3    H140405   8.041   2.207   1.008
13488TIP3    H240406   8.146   2.290   1.079
13489TIP3   OH240407   5.515   0.889   5.046
13489TIP3    H140408   5.530   0.933   4.962
13489TIP3    H240409   5.586   0.825   5.052
13490TIP3   OH240410   2.525   1.006   5.923
13490TIP3    H140411   2.473   0.994   5.843
13490TIP3    H240412   2.603   0.952   5.909
13491TIP3   OH240413   3.355   1.986   2.008
13491TIP3    H140414   3.309   1.974   2.092
13491TIP3    H240415   3.286   2.011   1.947
13492TIP3   OH240416   5.546   4.369   0.229
13492TIP3    H140417   5.603   4.295   0.249
13492TIP3    H240418   5.523   4.358   0.137
13493TIP3   OH240419   7.540   6.471   0.079
13493TIP3    H140420   7.493   6.407   0.025
13493TIP3    H240421   7.600   6.419   0.132
13494TIP3   OH240422   8.288   4.456   4.921
13494TIP3    H140423   8.296   4.481   4.829
13494TIP3    H240424   8.379   4.445   4.951
13495TIP3   OH240425   7.547   5.922   1.916
13495TIP3    H140426   7.580   5.950   2.001
13495TIP3    H240427   7.465   5.969   1.905
13496TIP3   OH240428   3.001   5.265   6.243
13496TIP3    H140429   3.079   5.290   6.292
13496TIP3    H240430   3.010   5.170   6.232
13497TIP3   OH240431   4.164   1.096   5.411
13497TIP3    H140432   4.145   1.176   5.361
13497TIP3    H240433   4.150   1.121   5.502
13498TIP3   OH240434   5.343   2.027   0.358
13498TIP3    H140435   5.316   2.069   0.276
13498TIP3    H240436   5.264   2.028   0.412
13499TIP3   OH240437   2.089   1.866   2.390
13499TIP3    H140438   2.151   1.798   2.366
13499TIP3    H240439   2.016   1.819   2.431
13500TIP3   OH240440   2.949   2.209   3.453
13500TIP3    H140441   2.908   2.231   3.369
13500TIP3    H240442   2.909   2.269   3.516
13501TIP3   OH240443   7.893   3.108   4.444
13501TIP3    H140444   7.897   3.017   4.472
13501TIP3    H240445   7.805   3.118   4.409
13502TIP3   OH240446   8.109   4.859   3.397
13502TIP3    H140447   8.130   4.905   3.316
13502TIP3    H240448   8.138   4.769   3.382
13503TIP3   OH240449   5.370   2.653   5.803
13503TIP3    H140450   5.315   2.582   5.771
13503TIP3    H240451   5.382   2.710   5.727
13504TIP3   OH240452   4.237   2.358   6.740
13504TIP3    H140453   4.219   2.266   6.722
13504TIP3    H240454   4.179   2.406   6.681
13505TIP3   OH240455   5.636   5.178   3.399
13505TIP3    H140456   5.544   5.180   3.427
13505TIP3    H240457   5.641   5.103   3.339
13506TIP3   OH240458   0.712   0.905   2.358
13506TIP3    H140459   0.635   0.858   2.328
13506TIP3    H240460   0.700   0.914   2.453
13507TIP3   OH240461   5.342   3.450   6.147
13507TIP3    H140462   5.325   3.469   6.054
13507TIP3    H240463   5.406   3.378   6.144
13508TIP3   OH240464   6.595   4.517   5.750
13508TIP3    H140465   6.661   4.459   5.714
13508TIP3    H240466   6.631   4.605   5.739
13509TIP3   OH240467   8.415   1.055   3.835
13509TIP3    H140468   8.338   1.031   3.886
13509TIP3    H240469   8.429   0.980   3.777
13510TIP3   OH240470   1.976   4.840   5.992
13510TIP3    H140471   1.888   4.818   6.022
13510TIP3    H240472   1.970   4.933   5.967
13511TIP3   OH240473   8.149   6.987   5.861
13511TIP3    H140474   8.108   6.905   5.888
13511TIP3    H240475   8.177   6.972   5.771
13512TIP3   OH240476   5.448   5.703   0.965
13512TIP3    H140477   5.532   5.720   0.923
13512TIP3    H240478   5.458   5.616   1.004
13513TIP3   OH240479   3.401   1.393   1.522
13513TIP3    H140480   3.407   1.464   1.459
13513TIP3    H240481   3.473   1.334   1.500
13514TIP3   OH240482   0.912   1.613   3.819
13514TIP3    H140483   0.887   1.676   3.751
13514TIP3    H240484   1.005   1.631   3.835
13515TIP3   OH240485   4.587   2.192   4.744
13515TIP3    H140486   4.514   2.192   4.682
13515TIP3    H240487   4.665   2.189   4.689
13516TIP3   OH240488   3.842   0.914   1.741
13516TIP3    H140489   3.756   0.955   1.731
13516TIP3    H240490   3.875   0.908   1.651
13517TIP3   OH240491   7.929   0.852   0.687
13517TIP3    H140492   7.929   0.928   0.629
13517TIP3    H240493   7.938   0.888   0.775
13518TIP3   OH240494   6.502   7.921   1.323
13518TIP3    H140495   6.455   7.863   1.262
13518TIP3    H240496   6.568   7.865   1.363
13519TIP3   OH240497   8.174   3.947   4.427
13519TIP3    H140498   8.246   3.886   4.415
13519TIP3    H240499   8.096   3.896   4.404
13520TIP3   OH240500   6.987   5.731   4.407
13520TIP3    H140501   6.956   5.805   4.459
13520TIP3    H240502   7.079   5.751   4.391
13521TIP3   OH240503   6.195   2.532   1.665
13521TIP3    H140504   6.123   2.542   1.728
13521TIP3    H240505   6.152   2.521   1.581
13522TIP3   OH240506   5.960   5.945   3.035
13522TIP3    H140507   6.024   5.993   2.982
13522TIP3    H240508   5.994   5.856   3.037
13523TIP3   OH240509   1.205   4.097   6.109
13523TIP3    H140510   1.202   4.179   6.061
13523TIP3    H240511   1.120   4.056   6.094
13524TIP3   OH240512   6.943   2.217   1.119
13524TIP3    H140513   6.900   2.132   1.122
13524TIP3    H240514   7.036   2.198   1.130
13525TIP3   OH240515   5.620   2.918   6.106
13525TIP3    H140516   5.561   2.907   6.031
13525TIP3    H240517   5.707   2.920   6.068
13526TIP3   OH240518   3.304   7.399   2.663
13526TIP3    H140519   3.213   7.391   2.690
13526TIP3    H240520   3.328   7.490   2.684
13527TIP3   OH240521   4.034   2.561   4.697
13527TIP3    H140522   3.944   2.531   4.697
13527TIP3    H240523   4.039   2.626   4.767
13528TIP3   OH240524   5.973   3.210   5.176
13528TIP3    H140525   6.038   3.209   5.246
13528TIP3    H240526   5.968   3.120   5.146
13529TIP3   OH240527   1.317   6.918   3.821
13529TIP3    H140528   1.332   6.993   3.878
13529TIP3    H240529   1.343   6.949   3.734
13530TIP3   OH240530   1.957   6.758   5.472
13530TIP3    H140531   1.967   6.663   5.476
13530TIP3    H240532   1.883   6.772   5.412
13531TIP3   OH240533   8.083   3.667   4.549
13531TIP3    H140534   8.036   3.726   4.490
13531TIP3    H240535   8.088   3.584   4.501
13532TIP3   OH240536   0.815   3.323   5.432
13532TIP3    H140537   0.751   3.394   5.433
13532TIP3    H240538   0.872   3.343   5.358
13533TIP3   OH240539   7.542   0.998   1.508
13533TIP3    H140540   7.606   0.928   1.497
13533TIP3    H240541   7.473   0.978   1.444
13534TIP3   OH240542   2.152   5.734   2.678
13534TIP3    H140543   2.112   5.756   2.762
13534TIP3    H240544   2.242   5.765   2.685
13535TIP3   OH240545   5.056   7.507   1.635
13535TIP3    H140546   4.967   7.543   1.630
13535TIP3    H240547   5.087   7.505   1.545
13536TIP3   OH240548   7.613   6.026   2.910
13536TIP3    H140549   7.691   6.006   2.858
13536TIP3    H240550   7.647   6.061   2.992
13537TIP3   OH240551   8.243   2.548   2.838
13537TIP3    H140552   8.186   2.586   2.772
13537TIP3    H240553   8.318   2.607   2.841
13538TIP3   OH240554   7.484   1.025   0.690
13538TIP3    H140555   7.397   1.063   0.695
13538TIP3    H240556   7.474   0.937   0.726
13539TIP3   OH240557   1.870   4.568   4.283
13539TIP3    H140558   1.934   4.614   4.229
13539TIP3    H240559   1.895   4.476   4.275
13540TIP3   OH240560   6.513   2.926   3.434
13540TIP3    H140561   6.456   3.001   3.451
13540TIP3    H240562   6.460   2.868   3.378
13541TIP3   OH240563   5.513   7.910   0.154
13541TIP3    H140564   5.450   7.861   0.207
13541TIP3    H240565   5.531   7.853   0.079
13542TIP3   OH240566   7.016   3.320   4.458
13542TIP3    H140567   6.940   3.270   4.486
13542TIP3    H240568   7.007   3.405   4.502
13543TIP3   OH240569   3.690   6.746   0.905
13543TIP3    H140570   3.727   6.805   0.971
13543TIP3    H240571   3.724   6.660   0.928
13544TIP3   OH240572   3.065   1.908   2.069
13544TIP3    H140573   2.988   1.926   2.122
13544TIP3    H240574   3.128   1.869   2.129
13545TIP3   OH240575   4.660   7.488   2.414
13545TIP3    H140576   4.597   7.416   2.409
13545TIP3    H240577   4.688   7.488   2.506
13546TIP3   OH240578   1.479   0.627   0.692
13546TIP3    H140579   1.508   0.704   0.742
13546TIP3    H240580   1.509   0.644   0.603
13547TIP3   OH240581   7.116   0.238   4.838
13547TIP3    H140582   7.160   0.223   4.921
13547TIP3    H240583   7.165   0.187   4.774
13548TIP3   OH240584   3.918   3.844   0.739
13548TIP3    H140585   3.867   3.921   0.765
13548TIP3    H240586   3.955   3.867   0.654
13549TIP3   OH240587   5.479   6.191   0.745
13549TIP3    H140588   5.560   6.220   0.787
13549TIP3    H240589   5.458   6.261   0.684
13550TIP3   OH240590   1.520   5.397   6.749
13550TIP3    H140591   1.540   5.359   6.664
13550TIP3    H240592   1.567   5.480   6.750
13551TIP3   OH240593   5.552   5.223   4.346
13551TIP3    H140594   5.502   5.299   4.317
13551TIP3    H240595   5.508   5.194   4.426
13552TIP3   OH240596   1.352   4.212   0.226
13552TIP3    H140597   1.425   4.210   0.288
13552TIP3    H240598   1.372   4.143   0.162
13553TIP3   OH240599   1.648   1.458   0.948
13553TIP3    H140600   1.610   1.538   0.913
13553TIP3    H240601   1.717   1.435   0.887
13554TIP3   OH240602   5.032   2.429   1.224
13554TIP3    H140603   5.001   2.519   1.234
13554TIP3    H240604   5.086   2.430   1.145
13555TIP3   OH240605   3.818   0.239   1.731
13555TIP3    H140606   3.834   0.333   1.740
13555TIP3    H240607   3.744   0.222   1.789
13556TIP3   OH240608   0.905   7.696   2.246
13556TIP3    H140609   0.852   7.641   2.189
13556TIP3    H240610   0.941   7.763   2.188
13557TIP3   OH240611   6.457   2.520   5.786
13557TIP3    H140612   6.493   2.433   5.808
13557TIP3    H240613   6.534   2.574   5.771
13558TIP3   OH240614   2.551   2.717   3.104
13558TIP3    H140615   2.547   2.785   3.171
13558TIP3    H240616   2.644   2.700   3.091
13559TIP3   OH240617   7.602   1.986   0.152
13559TIP3    H140618   7.538   2.058   0.148
13559TIP3    H240619   7.550   1.907   0.137
13560TIP3   OH240620   3.121   6.382   2.063
13560TIP3    H140621   3.116   6.392   2.158
13560TIP3    H240622   3.199   6.432   2.038
13561TIP3   OH240623   6.444   2.247   1.877
13561TIP3    H140624   6.447   2.342   1.887
13561TIP3    H240625   6.482   2.231   1.790
13562TIP3   OH240626   3.222   5.007   1.825
13562TIP3    H140627   3.164   5.075   1.792
13562TIP3    H240628   3.310   5.045   1.819
13563TIP3   OH240629   1.221   0.696   6.158
13563TIP3    H140630   1.275   0.651   6.093
13563TIP3    H240631   1.272   0.773   6.182
13564TIP3   OH240632   6.765   4.346   2.845
13564TIP3    H140633   6.691   4.286   2.833
13564TIP3    H240634   6.804   4.354   2.757
13565TIP3   OH240635   3.904   1.976   4.819
13565TIP3    H140636   3.862   2.062   4.809
13565TIP3    H240637   3.991   1.995   4.854
13566TIP3   OH240638   1.708   0.594   1.301
13566TIP3    H140639   1.671   0.657   1.362
13566TIP3    H240640   1.802   0.610   1.304
13567TIP3   OH240641   5.082   4.730   6.050
13567TIP3    H140642   5.150   4.797   6.058
13567TIP3    H240643   5.048   4.741   5.961
13568TIP3   OH240644   3.117   7.267   3.465
13568TIP3    H140645   3.192   7.275   3.407
13568TIP3    H240646   3.150   7.221   3.542
13569TIP3   OH240647   6.712   4.270   5.290
13569TIP3    H140648   6.622   4.266   5.257
13569TIP3    H240649   6.752   4.343   5.242
13570TIP3   OH240650   6.869   4.206   1.261
13570TIP3    H140651   6.864   4.118   1.222
13570TIP3    H240652   6.778   4.235   1.266
13571TIP3   OH240653   0.882   0.642   1.275
13571TIP3    H140654   0.967   0.633   1.319
13571TIP3    H240655   0.896   0.714   1.212
13572TIP3   OH240656   0.655   7.308   5.265
13572TIP3    H140657   0.701   7.224   5.260
13572TIP3    H240658   0.686   7.347   5.347
13573TIP3   OH240659   4.212   5.249   3.828
13573TIP3    H140660   4.202   5.261   3.922
13573TIP3    H240661   4.305   5.231   3.816
13574TIP3   OH240662   2.448   7.349   5.295
13574TIP3    H140663   2.400   7.312   5.221
13574TIP3    H240664   2.401   7.431   5.315
13575TIP3   OH240665   3.271   3.863   5.371
13575TIP3    H140666   3.303   3.863   5.461
13575TIP3    H240667   3.347   3.885   5.318
13576TIP3   OH240668   0.223   1.321   4.873
13576TIP3    H140669   0.316   1.304   4.860
13576TIP3    H240670   0.215   1.416   4.867
13577TIP3   OH240671   7.129   6.258   0.717
13577TIP3    H140672   7.051   6.249   0.662
13577TIP3    H240673   7.098   6.239   0.806
13578TIP3   OH240674   6.624   5.965   2.314
13578TIP3    H140675   6.642   5.902   2.245
13578TIP3    H240676   6.571   6.033   2.271
13579TIP3   OH240677   7.052   0.717   0.794
13579TIP3    H140678   6.978   0.691   0.739
13579TIP3    H240679   7.077   0.636   0.839
13580TIP3   OH240680   5.871   6.356   6.522
13580TIP3    H140681   5.899   6.268   6.496
13580TIP3    H240682   5.891   6.361   6.615
13581TIP3   OH240683   2.772   1.943   4.083
13581TIP3    H140684   2.684   1.963   4.116
13581TIP3    H240685   2.769   1.968   3.991
13582TIP3   OH240686   1.609   1.848   0.747
13582TIP3    H140687   1.601   1.939   0.719
13582TIP3    H240688   1.691   1.817   0.709
13583TIP3   OH240689   2.565   5.970   6.150
13583TIP3    H140690   2.644   5.958   6.203
13583TIP3    H240691   2.583   6.048   6.098
13584TIP3   OH240692   5.907   3.366   1.830
13584TIP3    H140693   5.882   3.431   1.896
13584TIP3    H240694   5.896   3.282   1.874
13585TIP3   OH240695   0.360   3.917   5.140
13585TIP3    H140696   0.369   3.839   5.086
13585TIP3    H240697   0.269   3.944   5.130
13586TIP3   OH240698   2.663   3.651   2.236
13586TIP3    H140699   2.586   3.688   2.279
13586TIP3    H240700   2.629   3.579   2.183
13587TIP3   OH240701   6.689   7.396   1.445
13587TIP3    H140702   6.704   7.352   1.361
13587TIP3    H240703   6.594   7.391   1.458
13588TIP3   OH240704   2.984   0.100   4.982
13588TIP3    H140705   2.900   0.126   4.942
13588TIP3    H240706   2.975   0.006   4.997
13589TIP3   OH240707   5.071   1.944   2.700
13589TIP3    H140708   5.028   1.960   2.616
13589TIP3    H240709   5.046   1.854   2.724
13590TIP3   OH240710   2.583   1.276   0.305
13590TIP3    H140711   2.572   1.185   0.275
13590TIP3    H240712   2.545   1.329   0.235
13591TIP3   OH240713   7.864   3.491   5.408
13591TIP3    H140714   7.859   3.515   5.316
13591TIP3    H240715   7.952   3.517   5.435
13592TIP3   OH240716   8.129   5.655   5.969
13592TIP3    H140717   8.210   5.607   5.985
13592TIP3    H240718   8.152   5.717   5.900
13593TIP3   OH240719   0.518   1.669   6.852
13593TIP3    H140720   0.426   1.684   6.831
13593TIP3    H240721   0.521   1.580   6.886
13594TIP3   OH240722   4.326   6.965   5.636
13594TIP3    H140723   4.357   7.027   5.570
13594TIP3    H240724   4.372   6.991   5.716
13595TIP3   OH240725   0.620   5.873   4.381
13595TIP3    H140726   0.616   5.778   4.388
13595TIP3    H240727   0.676   5.901   4.453
13596TIP3   OH240728   2.384   7.060   4.221
13596TIP3    H140729   2.327   7.037   4.295
13596TIP3    H240730   2.437   6.981   4.206
13597TIP3   OH240731   3.523   3.911   5.258
13597TIP3    H140732   3.576   3.986   5.231
13597TIP3    H240733   3.562   3.836   5.213
13598TIP3   OH240734   8.330   1.313   0.836
13598TIP3    H140735   8.319   1.400   0.874
13598TIP3    H240736   8.390   1.327   0.762
13599TIP3   OH240737   2.556   6.583   2.109
13599TIP3    H140738   2.597   6.582   2.023
13599TIP3    H240739   2.561   6.492   2.139
13600TIP3   OH240740   4.240   5.050   6.329
13600TIP3    H140741   4.294   5.093   6.262
13600TIP3    H240742   4.165   5.017   6.281
13601TIP3   OH240743   3.483   2.985   4.908
13601TIP3    H140744   3.452   2.906   4.953
13601TIP3    H240745   3.553   2.955   4.851
13602TIP3   OH240746   2.406   5.041   6.492
13602TIP3    H140747   2.321   5.009   6.522
13602TIP3    H240748   2.385   5.101   6.420
13603TIP3   OH240749   4.048   7.174   4.576
13603TIP3    H140750   4.120   7.172   4.513
13603TIP3    H240751   4.091   7.190   4.660
13604TIP3   OH240752   6.589   7.376   5.060
13604TIP3    H140753   6.631   7.327   5.131
13604TIP3    H240754   6.622   7.336   4.980
13605TIP3   OH240755   7.483   0.903   1.981
13605TIP3    H140756   7.447   0.857   2.057
13605TIP3    H240757   7.492   0.835   1.914
13606TIP3   OH240758   5.529   5.689   5.337
13606TIP3    H140759   5.517   5.698   5.242
13606TIP3    H240760   5.443   5.662   5.370
13607TIP3   OH240761   1.296   6.912   4.662
13607TIP3    H140762   1.348   6.896   4.740
13607TIP3    H240763   1.216   6.955   4.694
13608TIP3   OH240764   0.991   2.793   5.428
13608TIP3    H140765   1.035   2.872   5.397
13608TIP3    H240766   0.905   2.823   5.457
13609TIP3   OH240767   0.928   3.638   2.314
13609TIP3    H140768   0.992   3.582   2.358
13609TIP3    H240769   0.886   3.581   2.250
13610TIP3   OH240770   5.436   3.174   0.540
13610TIP3    H140771   5.347   3.150   0.513
13610TIP3    H240772   5.484   3.091   0.542
13611TIP3   OH240773   3.160   3.605   6.111
13611TIP3    H140774   3.150   3.688   6.064
13611TIP3    H240775   3.081   3.556   6.089
13612TIP3   OH240776   0.455   4.350   0.558
13612TIP3    H140777   0.419   4.345   0.647
13612TIP3    H240778   0.539   4.304   0.563
13613TIP3   OH240779   1.496   4.599   2.879
13613TIP3    H140780   1.475   4.624   2.969
13613TIP3    H240781   1.591   4.599   2.876
13614TIP3   OH240782   2.915   1.020   3.165
13614TIP3    H140783   2.833   0.971   3.162
13614TIP3    H240784   2.947   1.017   3.075
13615TIP3   OH240785   5.313   7.437   2.020
13615TIP3    H140786   5.365   7.418   1.942
13615TIP3    H240787   5.232   7.387   2.009
13616TIP3   OH240788   7.294   0.961   1.391
13616TIP3    H140789   7.250   0.939   1.473
13616TIP3    H240790   7.296   0.878   1.342
13617TIP3   OH240791   1.309   6.426  -0.007
13617TIP3    H140792   1.374   6.357  -0.016
13617TIP3    H240793   1.330   6.468   0.076
13618TIP3   OH240794   1.681   2.306   6.148
13618TIP3    H140795   1.766   2.265   6.135
13618TIP3    H240796   1.700   2.388   6.194
13619TIP3   OH240797   3.761   5.889   0.526
13619TIP3    H140798   3.847   5.919   0.498
13619TIP3    H240799   3.759   5.904   0.621
13620TIP3   OH240800   4.203   2.202   3.591
13620TIP3    H140801   4.256   2.187   3.513
13620TIP3    H240802   4.223   2.291   3.617
13621TIP3   OH240803   3.547   4.190   1.309
13621TIP3    H140804   3.590   4.261   1.262
13621TIP3    H240805   3.581   4.110   1.269
13622TIP3   OH240806   1.041   4.309   5.302
13622TIP3    H140807   0.977   4.380   5.304
13622TIP3    H240808   1.026   4.262   5.384
13623TIP3   OH240809   8.069   5.050   1.236
13623TIP3    H140810   8.079   4.959   1.210
13623TIP3    H240811   8.106   5.054   1.324
13624TIP3   OH240812   4.710   5.343   5.539
13624TIP3    H140813   4.743   5.272   5.594
13624TIP3    H240814   4.615   5.339   5.549
13625TIP3   OH240815   4.398   2.473   1.411
13625TIP3    H140816   4.341   2.401   1.384
13625TIP3    H240817   4.468   2.475   1.347
13626TIP3   OH240818   8.262   0.066   0.812
13626TIP3    H140819   8.196   0.133   0.830
13626TIP3    H240820   8.281   0.026   0.897
13627TIP3   OH240821   5.946   6.446   4.052
13627TIP3    H140822   6.024   6.426   4.001
13627TIP3    H240823   5.942   6.377   4.118
13628TIP3   OH240824   0.225   7.835   3.753
13628TIP3    H140825   0.209   7.924   3.783
13628TIP3    H240826   0.271   7.793   3.825
13629TIP3   OH240827   2.975   5.019   3.766
13629TIP3    H140828   3.018   5.103   3.748
13629TIP3    H240829   3.035   4.974   3.825
13630TIP3   OH240830   7.339   2.981   2.083
13630TIP3    H140831   7.315   2.888   2.089
13630TIP3    H240832   7.387   2.988   2.001
13631TIP3   OH240833   0.281   6.277   0.556
13631TIP3    H140834   0.189   6.276   0.528
13631TIP3    H240835   0.277   6.293   0.650
13632TIP3   OH240836   0.861   5.745   3.146
13632TIP3    H140837   0.897   5.827   3.112
13632TIP3    H240838   0.924   5.718   3.213
13633TIP3   OH240839   7.974   6.578   4.287
13633TIP3    H140840   8.014   6.552   4.369
13633TIP3    H240841   8.007   6.666   4.270
13634TIP3   OH240842   3.467   4.007   6.769
13634TIP3    H140843   3.420   4.073   6.819
13634TIP3    H240844   3.545   3.988   6.823
13635TIP3   OH240845   0.668   5.898   5.644
13635TIP3    H140846   0.606   5.880   5.715
13635TIP3    H240847   0.703   5.985   5.664
13636TIP3   OH240848   2.472   7.295   0.292
13636TIP3    H140849   2.465   7.239   0.215
13636TIP3    H240850   2.512   7.376   0.260
13637TIP3   OH240851   6.862   6.831   5.044
13637TIP3    H140852   6.785   6.888   5.043
13637TIP3    H240853   6.927   6.879   5.095
13638TIP3   OH240854   0.040   0.261   3.143
13638TIP3    H140855   0.087   0.178   3.151
13638TIP3    H240856  -0.007   0.270   3.225
13639TIP3   OH240857   7.055   4.250   0.152
13639TIP3    H140858   7.111   4.173   0.144
13639TIP3    H240859   7.083   4.291   0.233
13640TIP3   OH240860   0.588   5.257   4.776
13640TIP3    H140861   0.680   5.284   4.771
13640TIP3    H240862   0.545   5.309   4.707
13641TIP3   OH240863   4.358   7.047   4.002
13641TIP3    H140864   4.317   6.962   4.017
13641TIP3    H240865   4.452   7.030   4.013
13642TIP3   OH240866   4.019   1.222   3.534
13642TIP3    H140867   3.981   1.244   3.619
13642TIP3    H240868   4.018   1.304   3.485
13643TIP3   OH240869   3.297   6.985   0.959
13643TIP3    H140870   3.256   6.916   0.906
13643TIP3    H240871   3.294   7.063   0.903
13644TIP3   OH240872   7.949   2.407   4.881
13644TIP3    H140873   7.954   2.329   4.826
13644TIP3    H240874   8.018   2.465   4.848
13645TIP3   OH240875   7.001   1.718   3.746
13645TIP3    H140876   7.012   1.754   3.658
13645TIP3    H240877   6.980   1.625   3.732
13646TIP3   OH240878   5.054   4.710   6.368
13646TIP3    H140879   5.073   4.706   6.275
13646TIP3    H240880   4.965   4.744   6.373
13647TIP3   OH240881   4.804   6.253   0.220
13647TIP3    H140882   4.845   6.200   0.151
13647TIP3    H240883   4.779   6.189   0.286
13648TIP3   OH240884   5.566   6.350   3.353
13648TIP3    H140885   5.559   6.286   3.425
13648TIP3    H240886   5.654   6.387   3.364
13649TIP3   OH240887   5.630   2.139   1.265
13649TIP3    H140888   5.634   2.214   1.205
13649TIP3    H240889   5.689   2.164   1.337
13650TIP3   OH240890   5.511   4.057   1.056
13650TIP3    H140891   5.451   4.101   0.995
13650TIP3    H240892   5.454   4.008   1.115
13651TIP3   OH240893   7.790   7.795   1.152
13651TIP3    H140894   7.885   7.790   1.143
13651TIP3    H240895   7.766   7.874   1.102
13652TIP3   OH240896   4.044   3.781   5.323
13652TIP3    H140897   4.123   3.731   5.303
13652TIP3    H240898   4.022   3.757   5.413
13653TIP3   OH240899   0.660   0.701   0.275
13653TIP3    H140900   0.724   0.728   0.209
13653TIP3    H240901   0.603   0.639   0.228
13654TIP3   OH240902   2.182   0.327   1.395
13654TIP3    H140903   2.120   0.275   1.445
13654TIP3    H240904   2.133   0.406   1.370
13655TIP3   OH240905   2.451   6.764   0.292
13655TIP3    H140906   2.419   6.853   0.303
13655TIP3    H240907   2.374   6.709   0.303
13656TIP3   OH240908   6.462   1.296   4.296
13656TIP3    H140909   6.446   1.205   4.321
13656TIP3    H240910   6.470   1.294   4.201
13657TIP3   OH240911   5.070   0.862   1.373
13657TIP3    H140912   5.110   0.783   1.337
13657TIP3    H240913   5.137   0.898   1.431
13658TIP3   OH240914   5.969   2.484   3.783
13658TIP3    H140915   6.046   2.492   3.727
13658TIP3    H240916   5.996   2.423   3.852
13659TIP3   OH240917   7.367   5.543   4.741
13659TIP3    H140918   7.378   5.480   4.812
13659TIP3    H240919   7.314   5.613   4.779
13660TIP3   OH240920   5.933   7.216   3.413
13660TIP3    H140921   5.850   7.182   3.448
13660TIP3    H240922   5.993   7.214   3.488
13661TIP3   OH240923   8.101   1.409   3.534
13661TIP3    H140924   8.096   1.423   3.440
13661TIP3    H240925   8.124   1.317   3.543
13662TIP3   OH240926   8.166   4.012   5.181
13662TIP3    H140927   8.128   3.978   5.100
13662TIP3    H240928   8.127   4.099   5.191
13663TIP3   OH240929   1.794   0.529   2.387
13663TIP3    H140930   1.889   0.521   2.385
13663TIP3    H240931   1.768   0.534   2.295
13664TIP3   OH240932   7.174   0.934   0.875
13664TIP3    H140933   7.130   0.860   0.832
13664TIP3    H240934   7.121   0.951   0.953
13665TIP3   OH240935   5.034   2.808   4.920
13665TIP3    H140936   5.049   2.714   4.903
13665TIP3    H240937   5.106   2.851   4.874
13666TIP3   OH240938   2.848   7.665   3.718
13666TIP3    H140939   2.763   7.690   3.682
13666TIP3    H240940   2.905   7.655   3.641
13667TIP3   OH240941   5.648   4.951   0.582
13667TIP3    H140942   5.566   4.911   0.610
13667TIP3    H240943   5.674   5.008   0.655
13668TIP3   OH240944   2.893   4.998   1.884
13668TIP3    H140945   2.923   5.077   1.840
13668TIP3    H240946   2.824   5.028   1.943
13669TIP3   OH240947   3.613   1.979   2.146
13669TIP3    H140948   3.557   2.020   2.080
13669TIP3    H240949   3.640   1.896   2.106
13670TIP3   OH240950   0.731   6.248   1.467
13670TIP3    H140951   0.805   6.189   1.455
13670TIP3    H240952   0.734   6.271   1.560
13671TIP3   OH240953   1.256   4.525   1.412
13671TIP3    H140954   1.193   4.568   1.471
13671TIP3    H240955   1.283   4.594   1.352
13672TIP3   OH240956   4.318   3.253   0.423
13672TIP3    H140957   4.328   3.184   0.358
13672TIP3    H240958   4.342   3.334   0.378
13673TIP3   OH240959   6.671   2.235   4.560
13673TIP3    H140960   6.700   2.295   4.629
13673TIP3    H240961   6.616   2.289   4.503
13674TIP3   OH240962   6.941   6.557   0.613
13674TIP3    H140963   6.849   6.583   0.609
13674TIP3    H240964   6.968   6.552   0.521
13675TIP3   OH240965   0.342   0.669   0.504
13675TIP3    H140966   0.308   0.751   0.541
13675TIP3    H240967   0.267   0.612   0.498
13676TIP3   OH240968   1.138   3.723   5.757
13676TIP3    H140969   1.107   3.637   5.729
13676TIP3    H240970   1.135   3.720   5.852
13677TIP3   OH240971   5.487   1.880   4.179
13677TIP3    H140972   5.559   1.851   4.123
13677TIP3    H240973   5.528   1.911   4.259
13678TIP3   OH240974   5.016   7.563   6.064
13678TIP3    H140975   5.054   7.524   6.143
13678TIP3    H240976   4.991   7.651   6.091
13679TIP3   OH240977   4.564   7.046   2.313
13679TIP3    H140978   4.641   7.083   2.271
13679TIP3    H240979   4.567   7.077   2.403
13680TIP3   OH240980   0.991   4.142   2.720
13680TIP3    H140981   0.909   4.120   2.676
13680TIP3    H240982   0.971   4.138   2.813
13681TIP3   OH240983   1.454   1.932   6.641
13681TIP3    H140984   1.387   1.876   6.679
13681TIP3    H240985   1.437   2.019   6.678
13682TIP3   OH240986   4.876   6.217   0.522
13682TIP3    H140987   4.930   6.183   0.593
13682TIP3    H240988   4.928   6.288   0.484
13683TIP3   OH240989   7.538   2.551   6.628
13683TIP3    H140990   7.538   2.593   6.714
13683TIP3    H240991   7.583   2.468   6.642
13684TIP3   OH240992   1.774   4.898   4.667
13684TIP3    H140993   1.730   4.962   4.611
13684TIP3    H240994   1.868   4.914   4.652
13685TIP3   OH240995   6.304   0.546   0.461
13685TIP3    H140996   6.384   0.580   0.500
13685TIP3    H240997   6.270   0.617   0.408
13686TIP3   OH240998   3.804   0.983   6.810
13686TIP3    H140999   3.719   1.026   6.812
13686TIP3    H241000   3.792   0.902   6.861
13687TIP3   OH241001   8.315   2.998   6.540
13687TIP3    H141002   8.356   3.082   6.520
13687TIP3    H241003   8.381   2.950   6.589
13688TIP3   OH241004   3.317   7.753   5.171
13688TIP3    H141005   3.356   7.830   5.128
13688TIP3    H241006   3.223   7.769   5.167
13689TIP3   OH241007   0.937   7.588   0.233
13689TIP3    H141008   1.013   7.533   0.252
13689TIP3    H241009   0.938   7.597   0.138
13690TIP3   OH241010  -0.033   6.189   1.244
13690TIP3    H141011  -0.038   6.100   1.280
13690TIP3    H241012   0.059   6.201   1.222
13691TIP3   OH241013   0.954   6.051   6.786
13691TIP3    H141014   0.915   6.137   6.799
13691TIP3    H241015   1.042   6.058   6.825
13692TIP3   OH241016   1.841   1.328   3.358
13692TIP3    H141017   1.823   1.238   3.387
13692TIP3    H241018   1.913   1.319   3.295
13693TIP3   OH241019   3.471   5.437   4.165
13693TIP3    H141020   3.400   5.374   4.177
13693TIP3    H241021   3.438   5.518   4.205
13694TIP3   OH241022   5.677   4.275   3.423
13694TIP3    H141023   5.600   4.246   3.471
13694TIP3    H241024   5.727   4.196   3.405
13695TIP3   OH241025   5.214   4.085   1.435
13695TIP3    H141026   5.197   4.014   1.498
13695TIP3    H241027   5.128   4.120   1.414
13696TIP3   OH241028   1.390   4.300   5.447
13696TIP3    H141029   1.316   4.243   5.469
13696TIP3    H241030   1.350   4.376   5.405
13697TIP3   OH241031   2.252   4.933   3.577
13697TIP3    H141032   2.345   4.952   3.587
13697TIP3    H241033   2.249   4.855   3.521
13698TIP3   OH241034   5.557   0.473   5.593
13698TIP3    H141035   5.532   0.550   5.642
13698TIP3    H241036   5.642   0.448   5.628
13699TIP3   OH241037   4.999   0.904   2.315
13699TIP3    H141038   5.025   0.833   2.256
13699TIP3    H241039   5.050   0.888   2.395
13700TIP3   OH241040   2.338   2.814   5.573
13700TIP3    H141041   2.428   2.830   5.547
13700TIP3    H241042   2.341   2.812   5.669
13701TIP3   OH241043   7.960   5.238   3.050
13701TIP3    H141044   7.982   5.146   3.065
13701TIP3    H241045   7.864   5.240   3.051
13702TIP3   OH241046   6.576   2.779   5.812
13702TIP3    H141047   6.655   2.751   5.858
13702TIP3    H241048   6.607   2.840   5.745
13703TIP3   OH241049   3.210   3.194   5.149
13703TIP3    H141050   3.153   3.123   5.179
13703TIP3    H241051   3.207   3.259   5.220
13704TIP3   OH241052   5.063   7.450   5.799
13704TIP3    H141053   5.051   7.355   5.808
13704TIP3    H241054   5.058   7.483   5.889
13705TIP3   OH241055   4.355   1.005   0.265
13705TIP3    H141056   4.329   1.019   0.174
13705TIP3    H241057   4.329   1.086   0.310
13706TIP3   OH241058   1.788   1.803   3.414
13706TIP3    H141059   1.821   1.893   3.409
13706TIP3    H241060   1.729   1.795   3.340
13707TIP3   OH241061   1.031   0.633   3.381
13707TIP3    H141062   1.123   0.639   3.356
13707TIP3    H241063   0.983   0.665   3.304
13708TIP3   OH241064   7.593   1.261   4.645
13708TIP3    H141065   7.524   1.232   4.586
13708TIP3    H241066   7.583   1.207   4.724
13709TIP3   OH241067   4.864   0.083   0.713
13709TIP3    H141068   4.954   0.096   0.744
13709TIP3    H241069   4.871   0.091   0.617
13710TIP3   OH241070   7.856   4.218   6.159
13710TIP3    H141071   7.779   4.162   6.158
13710TIP3    H241072   7.839   4.282   6.090
13711TIP3   OH241073   7.150   3.519   6.076
13711TIP3    H141074   7.176   3.429   6.060
13711TIP3    H241075   7.074   3.533   6.019
13712TIP3   OH241076   6.694   4.015   0.923
13712TIP3    H141077   6.646   3.976   0.850
13712TIP3    H241078   6.685   4.109   0.910
13713TIP3   OH241079   5.031   4.700   4.081
13713TIP3    H141080   4.957   4.698   4.142
13713TIP3    H241081   5.035   4.611   4.046
13714TIP3   OH241082   0.790   5.587   6.497
13714TIP3    H141083   0.735   5.664   6.504
13714TIP3    H241084   0.831   5.578   6.584
13715TIP3   OH241085   4.742   3.733   6.323
13715TIP3    H141086   4.807   3.791   6.284
13715TIP3    H241087   4.700   3.690   6.248
13716TIP3   OH241088   8.081   7.802   6.778
13716TIP3    H141089   8.125   7.880   6.746
13716TIP3    H241090   8.147   7.755   6.828
13717TIP3   OH241091   5.406   1.630   5.543
13717TIP3    H141092   5.451   1.550   5.567
13717TIP3    H241093   5.364   1.610   5.459
13718TIP3   OH241094   5.225   4.301   4.256
13718TIP3    H141095   5.276   4.339   4.327
13718TIP3    H241096   5.244   4.208   4.259
13719TIP3   OH241097   5.760   6.661   1.316
13719TIP3    H141098   5.852   6.648   1.337
13719TIP3    H241099   5.752   6.630   1.226
13720TIP3   OH241100   5.845   5.439   1.910
13720TIP3    H141101   5.933   5.404   1.893
13720TIP3    H241102   5.815   5.471   1.825
13721TIP3   OH241103   6.664   3.909   2.506
13721TIP3    H141104   6.735   3.933   2.565
13721TIP3    H241105   6.603   3.859   2.560
13722TIP3   OH241106   3.760   2.600   5.732
13722TIP3    H141107   3.829   2.607   5.666
13722TIP3    H241108   3.772   2.513   5.770
13723TIP3   OH241109   0.295   2.082   6.796
13723TIP3    H141110   0.320   2.173   6.779
13723TIP3    H241111   0.339   2.032   6.727
13724TIP3   OH241112   1.439   3.126   6.242
13724TIP3    H141113   1.441   3.147   6.149
13724TIP3    H241114   1.347   3.105   6.260
13725TIP3   OH241115  -0.056   0.640   3.289
13725TIP3    H141116   0.014   0.652   3.226
13725TIP3    H241117  -0.016   0.591   3.361
13726TIP3   OH241118   1.504   6.977   1.555
13726TIP3    H141119   1.440   6.945   1.618
13726TIP3    H241120   1.583   6.926   1.573
13727TIP3   OH241121   5.168   2.015   0.124
13727TIP3    H141122   5.211   1.978   0.047
13727TIP3    H241123   5.078   1.982   0.120
13728TIP3   OH241124   1.440   5.527   2.913
13728TIP3    H141125   1.452   5.471   2.837
13728TIP3    H241126   1.504   5.598   2.902
13729TIP3   OH241127   3.222   7.877   1.278
13729TIP3    H141128   3.156   7.872   1.208
13729TIP3    H241129   3.223   7.970   1.303
13730TIP3   OH241130   4.556   7.638   0.913
13730TIP3    H141131   4.465   7.659   0.890
13730TIP3    H241132   4.594   7.723   0.939
13731TIP3   OH241133   1.952   5.865   6.355
13731TIP3    H141134   2.036   5.847   6.314
13731TIP3    H241135   1.889   5.861   6.282
13732TIP3   OH241136   5.085   1.679   0.125
13732TIP3    H141137   5.122   1.594   0.149
13732TIP3    H241138   5.053   1.715   0.208
13733TIP3   OH241139   1.173   4.758   3.526
13733TIP3    H141140   1.104   4.706   3.567
13733TIP3    H241141   1.132   4.842   3.509
13734TIP3   OH241142   2.955   5.633   4.320
13734TIP3    H141143   2.882   5.641   4.259
13734TIP3    H241144   2.999   5.718   4.316
13735TIP3   OH241145   7.301   6.685   0.529
13735TIP3    H141146   7.329   6.630   0.456
13735TIP3    H241147   7.369   6.752   0.536
13736TIP3   OH241148   7.111   4.915   4.430
13736TIP3    H141149   7.151   4.973   4.365
13736TIP3    H241150   7.180   4.853   4.452
13737TIP3   OH241151   6.364   7.830   5.152
13737TIP3    H141152   6.305   7.864   5.219
13737TIP3    H241153   6.307   7.812   5.077
13738TIP3   OH241154   1.237   1.592   1.378
13738TIP3    H141155   1.304   1.622   1.316
13738TIP3    H241156   1.155   1.629   1.345
13739TIP3   OH241157   2.772   5.460   5.686
13739TIP3    H141158   2.862   5.458   5.719
13739TIP3    H241159   2.722   5.406   5.747
13740TIP3   OH241160   2.343   3.772   4.464
13740TIP3    H141161   2.415   3.835   4.466
13740TIP3    H241162   2.382   3.691   4.429
13741TIP3   OH241163   0.621   3.604   1.969
13741TIP3    H141164   0.702   3.581   2.014
13741TIP3    H241165   0.649   3.656   1.894
13742TIP3   OH241166   6.738   2.951   6.349
13742TIP3    H141167   6.659   2.966   6.298
13742TIP3    H241168   6.756   2.857   6.339
13743TIP3   OH241169   1.441   2.814   4.863
13743TIP3    H141170   1.482   2.730   4.839
13743TIP3    H241171   1.434   2.811   4.959
13744TIP3   OH241172   1.604   7.758   0.313
13744TIP3    H141173   1.567   7.719   0.393
13744TIP3    H241174   1.570   7.847   0.312
13745TIP3   OH241175   8.328   5.165   4.024
13745TIP3    H141176   8.273   5.089   4.003
13745TIP3    H241177   8.305   5.230   3.958
13746TIP3   OH241178   3.944   4.235   2.360
13746TIP3    H141179   3.943   4.198   2.272
13746TIP3    H241180   3.865   4.288   2.365
13747TIP3   OH241181   2.264   4.864   2.236
13747TIP3    H141182   2.231   4.792   2.290
13747TIP3    H241183   2.256   4.941   2.292
13748TIP3   OH241184   1.876   5.709   1.035
13748TIP3    H141185   1.830   5.788   1.064
13748TIP3    H241186   1.968   5.727   1.053
13749TIP3   OH241187   6.282   4.854   1.303
13749TIP3    H141188   6.192   4.835   1.329
13749TIP3    H241189   6.278   4.942   1.267
13750TIP3   OH241190   8.129   5.157   3.319
13750TIP3    H141191   8.209   5.163   3.371
13750TIP3    H241192   8.058   5.173   3.381
13751TIP3   OH241193   7.106   4.849   2.625
13751TIP3    H141194   7.069   4.848   2.537
13751TIP3    H241195   7.085   4.935   2.659
13752TIP3   OH241196   1.316   6.569   6.322
13752TIP3    H141197   1.351   6.544   6.236
13752TIP3    H241198   1.331   6.663   6.327
13753TIP3   OH241199   0.224   0.609   5.480
13753TIP3    H141200   0.246   0.566   5.563
13753TIP3    H241201   0.304   0.656   5.456
13754TIP3   OH241202   5.353   2.130   4.284
13754TIP3    H141203   5.318   2.063   4.225
13754TIP3    H241204   5.444   2.103   4.299
13755TIP3   OH241205   7.226   4.299   5.736
13755TIP3    H141206   7.202   4.301   5.643
13755TIP3    H241207   7.316   4.264   5.736
13756TIP3   OH241208   2.529   1.652   1.489
13756TIP3    H141209   2.456   1.692   1.442
13756TIP3    H241210   2.557   1.719   1.551
13757TIP3   OH241211   7.910   5.559   5.763
13757TIP3    H141212   7.893   5.482   5.817
13757TIP3    H241213   7.873   5.536   5.677
13758TIP3   OH241214   2.763   0.226   4.884
13758TIP3    H141215   2.702   0.291   4.919
13758TIP3    H241216   2.761   0.239   4.790
13759TIP3   OH241217   2.267   7.931   4.380
13759TIP3    H141218   2.265   7.836   4.367
13759TIP3    H241219   2.211   7.945   4.457
13760TIP3   OH241220   3.514   4.726   3.735
13760TIP3    H141221   3.529   4.799   3.796
13760TIP3    H241222   3.487   4.654   3.792
13761TIP3   OH241223   6.332   0.799   2.893
13761TIP3    H141224   6.424   0.774   2.883
13761TIP3    H241225   6.285   0.716   2.899
13762TIP3   OH241226   4.001   4.318   5.294
13762TIP3    H141227   4.063   4.389   5.309
13762TIP3    H241228   4.055   4.245   5.266
13763TIP3   OH241229   5.100   3.698   4.376
13763TIP3    H141230   5.101   3.723   4.283
13763TIP3    H241231   5.014   3.658   4.389
13764TIP3   OH241232   3.883   2.644   4.936
13764TIP3    H141233   3.901   2.716   4.996
13764TIP3    H241234   3.911   2.566   4.984
13765TIP3   OH241235   1.609   6.404   0.907
13765TIP3    H141236   1.648   6.490   0.923
13765TIP3    H241237   1.517   6.414   0.933
13766TIP3   OH241238   5.603   1.433   2.398
13766TIP3    H141239   5.625   1.340   2.400
13766TIP3    H241240   5.527   1.441   2.456
13767TIP3   OH241241   4.807   6.548   6.573
13767TIP3    H141242   4.834   6.480   6.511
13767TIP3    H241243   4.739   6.505   6.626
13768TIP3   OH241244   6.458   1.426   0.551
13768TIP3    H141245   6.539   1.403   0.597
13768TIP3    H241246   6.486   1.484   0.481
13769TIP3   OH241247   4.237   5.028   6.739
13769TIP3    H141248   4.182   4.962   6.781
13769TIP3    H241249   4.277   5.077   6.811
13770TIP3   OH241250   0.876   4.092   5.017
13770TIP3    H141251   0.794   4.120   5.058
13770TIP3    H241252   0.894   4.006   5.054
13771TIP3   OH241253   7.662   0.885   0.386
13771TIP3    H141254   7.680   0.962   0.440
13771TIP3    H241255   7.700   0.906   0.301
13772TIP3   OH241256   4.856   5.618   2.190
13772TIP3    H141257   4.921   5.665   2.241
13772TIP3    H241258   4.781   5.610   2.250
13773TIP3   OH241259   6.152   3.331   6.329
13773TIP3    H141260   6.247   3.318   6.335
13773TIP3    H241261   6.118   3.302   6.413
13774TIP3   OH241262   3.709   1.396   2.134
13774TIP3    H141263   3.654   1.356   2.066
13774TIP3    H241264   3.712   1.330   2.204
13775TIP3   OH241265   8.324   5.600   0.773
13775TIP3    H141266   8.380   5.541   0.723
13775TIP3    H241267   8.236   5.586   0.738
13776TIP3   OH241268   0.286   7.214   0.112
13776TIP3    H141269   0.320   7.191   0.026
13776TIP3    H241270   0.276   7.130   0.157
13777TIP3   OH241271   0.505   1.436   5.495
13777TIP3    H141272   0.450   1.358   5.496
13777TIP3    H241273   0.446   1.507   5.519
13778TIP3   OH241274   3.096   1.207   0.083
13778TIP3    H141275   3.191   1.206   0.088
13778TIP3    H241276   3.070   1.118   0.106
13779TIP3   OH241277   1.122   0.990   2.755
13779TIP3    H141278   1.195   0.936   2.725
13779TIP3    H241279   1.139   1.076   2.717
13780TIP3   OH241280   4.798   0.396   1.485
13780TIP3    H141281   4.733   0.329   1.464
13780TIP3    H241282   4.806   0.392   1.581
13781TIP3   OH241283   2.715   0.597   3.353
13781TIP3    H141284   2.760   0.546   3.285
13781TIP3    H241285   2.773   0.671   3.370
13782TIP3   OH241286   3.827   2.493   1.855
13782TIP3    H141287   3.903   2.453   1.812
13782TIP3    H241288   3.831   2.461   1.945
13783TIP3   OH241289   6.561   5.782   2.509
13783TIP3    H141290   6.564   5.858   2.451
13783TIP3    H241291   6.542   5.819   2.595
13784TIP3   OH241292   5.713   4.283   1.140
13784TIP3    H141293   5.683   4.271   1.050
13784TIP3    H241294   5.795   4.233   1.145
13785TIP3   OH241295   2.203   5.265   2.724
13785TIP3    H141296   2.208   5.288   2.631
13785TIP3    H241297   2.124   5.212   2.731
13786TIP3   OH241298   4.945   7.372   2.580
13786TIP3    H141299   5.015   7.427   2.545
13786TIP3    H241300   4.879   7.434   2.611
13787TIP3   OH241301   6.144   1.416   3.016
13787TIP3    H141302   6.165   1.348   2.952
13787TIP3    H241303   6.183   1.496   2.980
13788TIP3   OH241304   0.805   5.193   5.202
13788TIP3    H141305   0.742   5.258   5.172
13788TIP3    H241306   0.828   5.144   5.122
13789TIP3   OH241307   1.537   1.114   2.217
13789TIP3    H141308   1.587   1.192   2.242
13789TIP3    H241309   1.575   1.044   2.269
13790TIP3   OH241310   8.219   1.564   5.666
13790TIP3    H141311   8.283   1.612   5.615
13790TIP3    H241312   8.260   1.551   5.751
13791TIP3   OH241313   0.934   2.660   6.753
13791TIP3    H141314   1.013   2.711   6.771
13791TIP3    H241315   0.897   2.644   6.840
13792TIP3   OH241316   6.764   6.596   5.153
13792TIP3    H141317   6.686   6.569   5.106
13792TIP3    H241318   6.783   6.684   5.120
13793TIP3   OH241319   2.051   1.019   5.773
13793TIP3    H141320   2.044   0.938   5.723
13793TIP3    H241321   2.144   1.028   5.792
13794TIP3   OH241322   5.116   6.281   3.455
13794TIP3    H141323   5.064   6.284   3.536
13794TIP3    H241324   5.183   6.348   3.467
13795TIP3   OH241325   1.358   0.873   3.186
13795TIP3    H141326   1.424   0.818   3.144
13795TIP3    H241327   1.279   0.860   3.133
13796TIP3   OH241328   2.561   3.934   4.464
13796TIP3    H141329   2.651   3.919   4.492
13796TIP3    H241330   2.560   4.024   4.431
13797TIP3   OH241331   2.108   1.246   6.265
13797TIP3    H141332   2.093   1.340   6.272
13797TIP3    H241333   2.039   1.207   6.318
13798TIP3   OH241334   3.527   4.875   1.251
13798TIP3    H141335   3.486   4.831   1.177
13798TIP3    H241336   3.499   4.825   1.328
13799TIP3   OH241337   5.466   7.310   3.836
13799TIP3    H141338   5.398   7.377   3.833
13799TIP3    H241339   5.460   7.272   3.923
13800TIP3   OH241340   7.078   3.921   4.499
13800TIP3    H141341   7.125   3.840   4.480
13800TIP3    H241342   6.989   3.905   4.466
13801TIP3   OH241343   1.815   3.331   2.524
13801TIP3    H141344   1.779   3.255   2.571
13801TIP3    H241345   1.863   3.293   2.451
13802TIP3   OH241346   4.626   6.473   4.528
13802TIP3    H141347   4.638   6.387   4.569
13802TIP3    H241348   4.531   6.481   4.517
13803TIP3   OH241349   1.360   6.754   1.333
13803TIP3    H141350   1.431   6.794   1.383
13803TIP3    H241351   1.405   6.702   1.266
13804TIP3   OH241352   2.478   4.173   3.127
13804TIP3    H141353   2.499   4.087   3.163
13804TIP3    H241354   2.396   4.160   3.080
13805TIP3   OH241355   0.976   0.794   6.318
13805TIP3    H141356   1.051   0.750   6.279
13805TIP3    H241357   0.934   0.839   6.245
13806TIP3   OH241358   5.177   2.077   2.430
13806TIP3    H141359   5.182   2.171   2.444
13806TIP3    H241360   5.085   2.060   2.412
13807TIP3   OH241361   4.221   3.343   5.583
13807TIP3    H141362   4.156   3.345   5.513
13807TIP3    H241363   4.254   3.253   5.582
13808TIP3   OH241364   0.374   5.928   2.875
13808TIP3    H141365   0.334   5.995   2.930
13808TIP3    H241366   0.385   5.853   2.934
13809TIP3   OH241367   3.472   3.004   2.846
13809TIP3    H141368   3.525   3.037   2.919
13809TIP3    H241369   3.385   3.039   2.863
13810TIP3   OH241370   0.328   7.898   3.080
13810TIP3    H141371   0.384   7.867   3.151
13810TIP3    H241372   0.264   7.828   3.068
13811TIP3   OH241373   3.680   7.042   3.563
13811TIP3    H141374   3.596   7.007   3.533
13811TIP3    H241375   3.734   6.965   3.579
13812TIP3   OH241376   5.379   5.870   1.662
13812TIP3    H141377   5.322   5.865   1.586
13812TIP3    H241378   5.461   5.830   1.634
13813TIP3   OH241379   7.088   2.847   2.511
13813TIP3    H141380   7.148   2.919   2.489
13813TIP3    H241381   7.089   2.844   2.607
13814TIP3   OH241382   4.010   5.303   2.991
13814TIP3    H141383   4.083   5.313   2.931
13814TIP3    H241384   4.039   5.346   3.072
13815TIP3   OH241385   4.955   3.820   1.423
13815TIP3    H141386   4.953   3.905   1.379
13815TIP3    H241387   4.900   3.764   1.369
13816TIP3   OH241388   7.996   7.350   6.565
13816TIP3    H141389   7.906   7.346   6.598
13816TIP3    H241390   7.992   7.408   6.490
13817TIP3   OH241391   0.671   1.315   1.725
13817TIP3    H141392   0.667   1.261   1.804
13817TIP3    H241393   0.655   1.404   1.755
13818TIP3   OH241394   5.942   2.398   5.875
13818TIP3    H141395   5.893   2.473   5.907
13818TIP3    H241396   6.008   2.435   5.816
13819TIP3   OH241397   8.181   5.344   5.722
13819TIP3    H141398   8.097   5.339   5.767
13819TIP3    H241399   8.159   5.375   5.633
13820TIP3   OH241400   2.093   6.246   6.860
13820TIP3    H141401   2.107   6.155   6.836
13820TIP3    H241402   2.156   6.295   6.807
13821TIP3   OH241403   3.341   6.564   4.512
13821TIP3    H141404   3.428   6.590   4.540
13821TIP3    H241405   3.336   6.589   4.420
13822TIP3   OH241406   7.761   6.738   3.432
13822TIP3    H141407   7.726   6.650   3.442
13822TIP3    H241408   7.715   6.791   3.497
13823TIP3   OH241409   1.766   5.532   2.060
13823TIP3    H141410   1.760   5.571   2.147
13823TIP3    H241411   1.859   5.537   2.038
13824TIP3   OH241412   7.843   3.659   2.053
13824TIP3    H141413   7.938   3.648   2.051
13824TIP3    H241414   7.827   3.712   2.131
13825TIP3   OH241415   5.080   0.802   3.856
13825TIP3    H141416   5.058   0.866   3.788
13825TIP3    H241417   5.124   0.854   3.924
13826TIP3   OH241418   5.846   5.631   2.551
13826TIP3    H141419   5.939   5.654   2.545
13826TIP3    H241420   5.837   5.552   2.498
13827TIP3   OH241421   0.166   5.840   1.970
13827TIP3    H141422   0.201   5.921   2.007
13827TIP3    H241423   0.087   5.822   2.021
13828TIP3   OH241424   1.497   4.869   2.121
13828TIP3    H141425   1.405   4.865   2.146
13828TIP3    H241426   1.498   4.910   2.035
13829TIP3   OH241427   3.385   2.383   3.883
13829TIP3    H141428   3.323   2.407   3.813
13829TIP3    H241429   3.471   2.396   3.843
13830TIP3   OH241430   7.126   2.586   5.814
13830TIP3    H141431   7.150   2.501   5.777
13830TIP3    H241432   7.034   2.577   5.839
13831TIP3   OH241433   5.511   1.396   4.564
13831TIP3    H141434   5.437   1.366   4.617
13831TIP3    H241435   5.562   1.452   4.623
13832TIP3   OH241436   8.032   0.749   5.949
13832TIP3    H141437   8.012   0.768   6.041
13832TIP3    H241438   8.108   0.803   5.929
13833TIP3   OH241439   7.087   3.402   4.766
13833TIP3    H141440   7.162   3.381   4.710
13833TIP3    H241441   7.077   3.497   4.758
13834TIP3   OH241442   2.850   0.375   3.217
13834TIP3    H141443   2.847   0.333   3.130
13834TIP3    H241444   2.943   0.376   3.240
13835TIP3   OH241445   4.636   2.133   6.197
13835TIP3    H141446   4.719   2.094   6.224
13835TIP3    H241447   4.570   2.070   6.224
13836TIP3   OH241448   7.195   0.338   0.625
13836TIP3    H141449   7.133   0.265   0.621
13836TIP3    H241450   7.164   0.399   0.559
13837TIP3   OH241451   2.351   0.254   2.767
13837TIP3    H141452   2.430   0.305   2.750
13837TIP3    H241453   2.350   0.188   2.698
13838TIP3   OH241454   5.849   0.232   6.504
13838TIP3    H141455   5.916   0.165   6.510
13838TIP3    H241456   5.891   0.305   6.458
13839TIP3   OH241457   6.033   6.753   5.404
13839TIP3    H141458   6.118   6.797   5.409
13839TIP3    H241459   6.033   6.712   5.318
13840TIP3   OH241460   3.319   0.776   0.847
13840TIP3    H141461   3.338   0.784   0.753
13840TIP3    H241462   3.290   0.863   0.873
13841TIP3   OH241463   7.397   2.289   1.142
13841TIP3    H141464   7.363   2.238   1.216
13841TIP3    H241465   7.492   2.282   1.151
13842TIP3   OH241466   7.742   4.477   4.995
13842TIP3    H141467   7.827   4.520   4.998
13842TIP3    H241468   7.702   4.507   4.913
13843TIP3   OH241469   7.982   6.026   2.438
13843TIP3    H141470   7.953   5.936   2.427
13843TIP3    H241471   8.078   6.021   2.438
13844TIP3   OH241472   5.583   1.795   3.347
13844TIP3    H141473   5.646   1.807   3.276
13844TIP3    H241474   5.500   1.824   3.310
13845TIP3   OH241475   7.424   5.773   0.683
13845TIP3    H141476   7.372   5.756   0.761
13845TIP3    H241477   7.509   5.801   0.717
13846TIP3   OH241478   7.599   3.678   6.412
13846TIP3    H141479   7.601   3.772   6.431
13846TIP3    H241480   7.675   3.643   6.459
13847TIP3   OH241481   4.908   3.943   5.748
13847TIP3    H141482   4.958   4.000   5.806
13847TIP3    H241483   4.865   3.881   5.807
13848TIP3   OH241484   4.985   6.965   3.803
13848TIP3    H141485   5.017   7.055   3.803
13848TIP3    H241486   4.971   6.944   3.710
13849TIP3   OH241487   2.609   0.601   2.482
13849TIP3    H141488   2.693   0.592   2.436
13849TIP3    H241489   2.559   0.662   2.428
13850TIP3   OH241490   7.868   1.959   5.642
13850TIP3    H141491   7.881   1.866   5.623
13850TIP3    H241492   7.778   1.976   5.614
13851TIP3   OH241493   5.524   1.437   4.304
13851TIP3    H141494   5.519   1.423   4.399
13851TIP3    H241495   5.448   1.390   4.269
13852TIP3   OH241496   6.673   5.716   0.596
13852TIP3    H141497   6.726   5.750   0.523
13852TIP3    H241498   6.590   5.762   0.588
13853TIP3   OH241499   3.529   1.806   4.529
13853TIP3    H141500   3.582   1.753   4.588
13853TIP3    H241501   3.448   1.755   4.517
13854TIP3   OH241502   3.763   5.105   4.623
13854TIP3    H141503   3.732   5.150   4.702
13854TIP3    H241504   3.823   5.167   4.582
13855TIP3   OH241505   5.660   2.786   3.889
13855TIP3    H141506   5.655   2.717   3.956
13855TIP3    H241507   5.729   2.755   3.829
13856TIP3   OH241508   5.002   6.149   0.786
13856TIP3    H141509   5.065   6.211   0.824
13856TIP3    H241510   4.916   6.183   0.812
13857TIP3   OH241511   1.285   2.451   6.639
13857TIP3    H141512   1.210   2.447   6.699
13857TIP3    H241513   1.276   2.537   6.596
13858TIP3   OH241514   7.955   0.070   6.303
13858TIP3    H141515   7.965   0.102   6.213
13858TIP3    H241516   7.861   0.059   6.314
13859TIP3   OH241517   6.914   2.297   5.592
13859TIP3    H141518   6.853   2.275   5.521
13859TIP3    H241519   6.998   2.263   5.562
13860TIP3   OH241520   0.679   3.554   1.502
13860TIP3    H141521   0.632   3.485   1.455
13860TIP3    H241522   0.660   3.538   1.594
13861TIP3   OH241523   5.361   5.041   3.646
13861TIP3    H141524   5.435   5.006   3.696
13861TIP3    H241525   5.324   4.965   3.601
13862TIP3   OH241526   5.248   6.170   2.661
13862TIP3    H141527   5.334   6.162   2.619
13862TIP3    H241528   5.257   6.122   2.743
13863TIP3   OH241529   5.711   7.142   3.197
13863TIP3    H141530   5.643   7.126   3.263
13863TIP3    H241531   5.786   7.091   3.228
13864TIP3   OH241532   5.228   7.601  -0.036
13864TIP3    H141533   5.253   7.567   0.050
13864TIP3    H241534   5.157   7.663  -0.018
13865TIP3   OH241535   3.485   1.714   5.647
13865TIP3    H141536   3.467   1.805   5.626
13865TIP3    H241537   3.466   1.707   5.741
13866TIP3   OH241538   2.099   3.250   4.118
13866TIP3    H141539   2.073   3.218   4.204
13866TIP3    H241540   2.017   3.262   4.071
13867TIP3   OH241541   3.779   2.147   0.432
13867TIP3    H141542   3.783   2.230   0.384
13867TIP3    H241543   3.689   2.142   0.463
13868TIP3   OH241544   6.622   6.968   4.962
13868TIP3    H141545   6.542   6.944   4.915
13868TIP3    H241546   6.657   7.042   4.912
13869TIP3   OH241547   2.038   6.668   1.047
13869TIP3    H141548   2.108   6.659   1.111
13869TIP3    H241549   2.078   6.639   0.964
13870TIP3   OH241550   1.280   4.393   2.222
13870TIP3    H141551   1.191   4.425   2.234
13870TIP3    H241552   1.305   4.425   2.135
13871TIP3   OH241553   5.861   3.121   2.767
13871TIP3    H141554   5.904   3.186   2.711
13871TIP3    H241555   5.918   3.115   2.844
13872TIP3   OH241556   0.598   4.733   1.109
13872TIP3    H141557   0.540   4.804   1.081
13872TIP3    H241558   0.621   4.688   1.028
13873TIP3   OH241559   6.965   6.939   2.619
13873TIP3    H141560   6.969   6.900   2.707
13873TIP3    H241561   6.927   6.871   2.564
13874TIP3   OH241562   6.129   6.363   1.738
13874TIP3    H141563   6.097   6.350   1.827
13874TIP3    H241564   6.117   6.457   1.721
13875TIP3   OH241565   7.468   4.602   0.173
13875TIP3    H141566   7.438   4.692   0.163
13875TIP3    H241567   7.555   4.602   0.132
13876TIP3   OH241568   6.594   3.245   6.604
13876TIP3    H141569   6.660   3.315   6.599
13876TIP3    H241570   6.635   3.171   6.559
13877TIP3   OH241571   7.877   4.466   5.473
13877TIP3    H141572   7.918   4.383   5.449
13877TIP3    H241573   7.830   4.493   5.394
13878TIP3   OH241574   2.695   5.526   2.968
13878TIP3    H141575   2.601   5.540   2.974
13878TIP3    H241576   2.710   5.500   2.877
13879TIP3   OH241577   4.190   1.292   5.965
13879TIP3    H141578   4.258   1.353   5.934
13879TIP3    H241579   4.135   1.346   6.021
13880TIP3   OH241580   0.774   3.667   4.116
13880TIP3    H141581   0.692   3.657   4.165
13880TIP3    H241582   0.778   3.590   4.060
13881TIP3   OH241583   4.074   7.459   6.202
13881TIP3    H141584   4.057   7.480   6.294
13881TIP3    H241585   4.056   7.541   6.155
13882TIP3   OH241586   0.945   7.138   1.968
13882TIP3    H141587   0.971   7.158   2.059
13882TIP3    H241588   0.857   7.101   1.976
13883TIP3   OH241589   2.732   7.106   1.156
13883TIP3    H141590   2.734   7.041   1.085
13883TIP3    H241591   2.700   7.058   1.232
13884TIP3   OH241592   4.627   6.151   2.734
13884TIP3    H141593   4.610   6.101   2.654
13884TIP3    H241594   4.598   6.240   2.713
13885TIP3   OH241595   3.696   0.060   4.355
13885TIP3    H141596   3.792   0.066   4.353
13885TIP3    H241597   3.677  -0.027   4.319
13886TIP3   OH241598   7.440   5.488   1.606
13886TIP3    H141599   7.475   5.550   1.542
13886TIP3    H241600   7.469   5.523   1.691
13887TIP3   OH241601   3.537   3.888   1.992
13887TIP3    H141602   3.549   3.945   1.916
13887TIP3    H241603   3.578   3.805   1.966
13888TIP3   OH241604   4.759   5.593   4.264
13888TIP3    H141605   4.782   5.686   4.265
13888TIP3    H241606   4.669   5.590   4.232
13889TIP3   OH241607   6.436   5.199   1.701
13889TIP3    H141608   6.389   5.117   1.683
13889TIP3    H241609   6.429   5.210   1.796
13890TIP3   OH241610   7.847   0.157   3.954
13890TIP3    H141611   7.937   0.127   3.940
13890TIP3    H241612   7.825   0.130   4.043
13891TIP3   OH241613   7.426   2.981   2.699
13891TIP3    H141614   7.486   2.912   2.727
13891TIP3    H241615   7.414   3.035   2.777
13892TIP3   OH241616   1.969   1.208   6.539
13892TIP3    H141617   2.009   1.123   6.554
13892TIP3    H241618   2.040   1.271   6.556
13893TIP3   OH241619   5.425   4.558   2.605
13893TIP3    H141620   5.442   4.493   2.537
13893TIP3    H241621   5.333   4.546   2.627
13894TIP3   OH241622   1.263   4.690   0.884
13894TIP3    H141623   1.176   4.709   0.848
13894TIP3    H241624   1.299   4.623   0.825
13895TIP3   OH241625   1.209   6.614   2.149
13895TIP3    H141626   1.190   6.582   2.061
13895TIP3    H241627   1.186   6.707   2.147
13896TIP3   OH241628   6.440   3.580   6.214
13896TIP3    H141629   6.508   3.517   6.191
13896TIP3    H241630   6.416   3.558   6.304
13897TIP3   OH241631   4.777   2.896   6.146
13897TIP3    H141632   4.783   2.978   6.196
13897TIP3    H241633   4.741   2.922   6.062
13898TIP3   OH241634   8.092   3.091   0.496
13898TIP3    H141635   8.048   3.019   0.541
13898TIP3    H241636   8.048   3.096   0.411
13899TIP3   OH241637   3.975   2.017   2.193
13899TIP3    H141638   4.020   1.937   2.219
13899TIP3    H241639   4.043   2.085   2.198
13900TIP3   OH241640   5.018   6.337   1.135
13900TIP3    H141641   5.087   6.404   1.134
13900TIP3    H241642   5.055   6.267   1.189
13901TIP3   OH241643   7.666   1.517   0.267
13901TIP3    H141644   7.663   1.555   0.355
13901TIP3    H241645   7.699   1.587   0.211
13902TIP3   OH241646   1.364   2.865   2.098
13902TIP3    H141647   1.390   2.933   2.161
13902TIP3    H241648   1.268   2.860   2.106
13903TIP3   OH241649   7.742   3.239   1.129
13903TIP3    H141650   7.692   3.320   1.135
13903TIP3    H241651   7.690   3.183   1.071
13904TIP3   OH241652   3.139   4.435   6.652
13904TIP3    H141653   3.216   4.420   6.596
13904TIP3    H241654   3.120   4.349   6.689
13905TIP3   OH241655   5.257   6.724   4.413
13905TIP3    H141656   5.256   6.741   4.319
13905TIP3    H241657   5.251   6.811   4.453
13906TIP3   OH241658   4.333   7.705   3.124
13906TIP3    H141659   4.334   7.796   3.154
13906TIP3    H241660   4.243   7.692   3.092
13907TIP3   OH241661   5.762   6.084   2.891
13907TIP3    H141662   5.813   6.019   2.938
13907TIP3    H241663   5.779   6.166   2.937
13908TIP3   OH241664   0.484   6.852   3.347
13908TIP3    H141665   0.427   6.857   3.270
13908TIP3    H241666   0.506   6.943   3.366
13909TIP3   OH241667   3.926   2.767   1.594
13909TIP3    H141668   3.921   2.725   1.508
13909TIP3    H241669   3.957   2.698   1.653
13910TIP3   OH241670   2.304   0.465   6.077
13910TIP3    H141671   2.285   0.465   6.171
13910TIP3    H241672   2.311   0.373   6.053
13911TIP3   OH241673   5.267   7.098   1.138
13911TIP3    H141674   5.213   7.099   1.060
13911TIP3    H241675   5.322   7.176   1.131
13912TIP3   OH241676   6.543   2.643   5.421
13912TIP3    H141677   6.561   2.651   5.328
13912TIP3    H241678   6.490   2.720   5.442
13913TIP3   OH241679   6.584   6.591   2.327
13913TIP3    H141680   6.680   6.587   2.332
13913TIP3    H241681   6.567   6.658   2.261
13914TIP3   OH241682   4.671   4.872   2.960
13914TIP3    H141683   4.579   4.897   2.971
13914TIP3    H241684   4.691   4.822   3.039
13915TIP3   OH241685   0.321   0.244   4.219
13915TIP3    H141686   0.353   0.303   4.288
13915TIP3    H241687   0.285   0.303   4.153
13916TIP3   OH241688   3.242   6.528   4.913
13916TIP3    H141689   3.276   6.554   4.998
13916TIP3    H241690   3.287   6.446   4.893
13917TIP3   OH241691   4.117   1.794   4.687
13917TIP3    H141692   4.045   1.843   4.726
13917TIP3    H241693   4.076   1.718   4.648
13918TIP3   OH241694   7.220   6.212   4.729
13918TIP3    H141695   7.225   6.151   4.655
13918TIP3    H241696   7.149   6.177   4.784
13919TIP3   OH241697   3.606   3.075   0.815
13919TIP3    H141698   3.664   3.001   0.829
13919TIP3    H241699   3.531   3.038   0.767
13920TIP3   OH241700   3.382   7.828   0.129
13920TIP3    H141701   3.376   7.923   0.142
13920TIP3    H241702   3.360   7.791   0.214
13921TIP3   OH241703   7.416   4.048   4.372
13921TIP3    H141704   7.331   4.087   4.393
13921TIP3    H241705   7.398   3.990   4.298
13922TIP3   OH241706   2.304   0.618   1.820
13922TIP3    H141707   2.291   0.702   1.777
13922TIP3    H241708   2.349   0.639   1.902
13923TIP3   OH241709   2.965   4.171   5.646
13923TIP3    H141710   2.935   4.163   5.556
13923TIP3    H241711   2.947   4.085   5.685
13924TIP3   OH241712   3.645   2.533   5.385
13924TIP3    H141713   3.662   2.448   5.426
13924TIP3    H241714   3.732   2.564   5.357
13925TIP3   OH241715   0.156   7.005   0.208
13925TIP3    H141716   0.068   6.966   0.202
13925TIP3    H241717   0.167   7.025   0.301
13926TIP3   OH241718   4.314   1.836   5.336
13926TIP3    H141719   4.223   1.814   5.355
13926TIP3    H241720   4.314   1.863   5.244
13927TIP3   OH241721   4.551   5.860   3.894
13927TIP3    H141722   4.497   5.794   3.850
13927TIP3    H241723   4.635   5.816   3.908
13928TIP3   OH241724   6.276   0.165   3.517
13928TIP3    H141725   6.344   0.111   3.477
13928TIP3    H241726   6.223   0.103   3.568
13929TIP3   OH241727   3.733   1.051   2.125
13929TIP3    H141728   3.713   1.066   2.217
13929TIP3    H241729   3.693   0.966   2.106
13930TIP3   OH241730   0.884   6.548   4.840
13930TIP3    H141731   0.791   6.571   4.830
13930TIP3    H241732   0.892   6.461   4.802
13931TIP3   OH241733   5.066   1.972   2.107
13931TIP3    H141734   5.017   2.004   2.030
13931TIP3    H241735   5.038   2.030   2.178
13932TIP3   OH241736   7.786   0.574   4.997
13932TIP3    H141737   7.821   0.651   4.953
13932TIP3    H241738   7.771   0.511   4.927
13933TIP3   OH241739   3.812   6.242   2.071
13933TIP3    H141740   3.738   6.263   2.014
13933TIP3    H241741   3.811   6.310   2.138
13934TIP3   OH241742   1.084   7.030   5.805
13934TIP3    H141743   1.096   6.942   5.769
13934TIP3    H241744   1.108   7.022   5.897
13935TIP3   OH241745   3.813   5.079   4.147
13935TIP3    H141746   3.725   5.067   4.182
13935TIP3    H241747   3.862   5.119   4.219
13936TIP3   OH241748   2.355   6.131   0.688
13936TIP3    H141749   2.393   6.090   0.610
13936TIP3    H241750   2.262   6.136   0.670
13937TIP3   OH241751   5.612   4.877   6.000
13937TIP3    H141752   5.698   4.918   5.988
13937TIP3    H241753   5.604   4.867   6.095
13938TIP3   OH241754   2.416   2.637   1.670
13938TIP3    H141755   2.510   2.617   1.663
13938TIP3    H241756   2.387   2.648   1.579
13939TIP3   OH241757   2.822   4.690   6.805
13939TIP3    H141758   2.814   4.595   6.801
13939TIP3    H241759   2.858   4.707   6.892
13940TIP3   OH241760   0.401   1.683   5.691
13940TIP3    H141761   0.463   1.749   5.721
13940TIP3    H241762   0.316   1.710   5.727
13941TIP3   OH241763   4.826   5.839   4.801
13941TIP3    H141764   4.873   5.766   4.842
13941TIP3    H241765   4.866   5.847   4.714
13942TIP3   OH241766   6.136   6.290   2.261
13942TIP3    H141767   6.138   6.202   2.297
13942TIP3    H241768   6.222   6.327   2.283
13943TIP3   OH241769   1.148   1.856   0.793
13943TIP3    H141770   1.117   1.921   0.855
13943TIP3    H241771   1.189   1.789   0.847
13944TIP3   OH241772   7.940   5.688   1.962
13944TIP3    H141773   7.987   5.767   1.937
13944TIP3    H241774   7.864   5.720   2.012
13945TIP3   OH241775   6.921   7.038   1.081
13945TIP3    H141776   6.904   7.069   1.170
13945TIP3    H241777   6.888   7.108   1.024
13946TIP3   OH241778   4.035   1.984   4.420
13946TIP3    H141779   4.002   2.060   4.372
13946TIP3    H241780   3.957   1.943   4.457
13947TIP3   OH241781   8.080   0.154   0.110
13947TIP3    H141782   8.125   0.199   0.038
13947TIP3    H241783   8.140   0.084   0.136
13948TIP3   OH241784   6.132   5.083   6.016
13948TIP3    H141785   6.079   5.008   5.988
13948TIP3    H241786   6.119   5.087   6.111
13949TIP3   OH241787   1.885   3.978   2.949
13949TIP3    H141788   1.889   4.031   2.870
13949TIP3    H241789   1.895   3.888   2.919
13950TIP3   OH241790   6.240   5.976   6.379
13950TIP3    H141791   6.211   5.974   6.288
13950TIP3    H241792   6.182   5.914   6.424
13951TIP3   OH241793   4.389   7.808   0.328
13951TIP3    H141794   4.430   7.753   0.394
13951TIP3    H241795   4.458   7.866   0.297
13952TIP3   OH241796   3.209   2.426   1.753
13952TIP3    H141797   3.172   2.432   1.841
13952TIP3    H241798   3.254   2.342   1.752
13953TIP3   OH241799   5.235   7.949   5.658
13953TIP3    H141800   5.316   7.897   5.650
13953TIP3    H241801   5.241   8.014   5.588
13954TIP3   OH241802   3.625   0.234   1.940
13954TIP3    H141803   3.668   0.277   2.014
13954TIP3    H241804   3.598   0.149   1.973
13955TIP3   OH241805   8.236   4.360   3.545
13955TIP3    H141806   8.154   4.370   3.496
13955TIP3    H241807   8.302   4.339   3.479
13956TIP3   OH241808   7.119   0.948   6.188
13956TIP3    H141809   7.030   0.967   6.161
13956TIP3    H241810   7.146   0.875   6.132
13957TIP3   OH241811   7.610   3.066   3.843
13957TIP3    H141812   7.706   3.066   3.837
13957TIP3    H241813   7.589   2.980   3.881
13958TIP3   OH241814   6.935   7.254   1.310
13958TIP3    H141815   6.944   7.189   1.380
13958TIP3    H241816   7.025   7.266   1.277
13959TIP3   OH241817   6.820   2.228   5.278
13959TIP3    H141818   6.733   2.188   5.289
13959TIP3    H241819   6.877   2.154   5.257
13960TIP3   OH241820   1.181   2.577   5.362
13960TIP3    H141821   1.150   2.662   5.332
13960TIP3    H241822   1.124   2.555   5.436
13961TIP3   OH241823   0.439   2.485   4.249
13961TIP3    H141824   0.417   2.572   4.283
13961TIP3    H241825   0.363   2.461   4.195
13962TIP3   OH241826   0.608   4.226   1.641
13962TIP3    H141827   0.659   4.169   1.583
13962TIP3    H241828   0.645   4.211   1.728
13963TIP3   OH241829   3.594   0.704   2.640
13963TIP3    H141830   3.668   0.755   2.672
13963TIP3    H241831   3.621   0.674   2.553
13964TIP3   OH241832   4.417   7.102   3.638
13964TIP3    H141833   4.474   7.036   3.678
13964TIP3    H241834   4.365   7.135   3.711
13965TIP3   OH241835   2.352   0.411   0.057
13965TIP3    H141836   2.267   0.454   0.060
13965TIP3    H241837   2.372   0.403  -0.037
13966TIP3   OH241838   2.115   0.654   2.068
13966TIP3    H141839   2.207   0.667   2.044
13966TIP3    H241840   2.081   0.595   2.001
13967TIP3   OH241841   2.367   5.394   6.549
13967TIP3    H141842   2.439   5.457   6.546
13967TIP3    H241843   2.397   5.321   6.494
13968TIP3   OH241844   0.794   2.975   0.873
13968TIP3    H141845   0.799   3.063   0.909
13968TIP3    H241846   0.795   2.917   0.950
13969TIP3   OH241847   1.054   5.043   1.500
13969TIP3    H141848   1.077   4.960   1.457
13969TIP3    H241849   0.975   5.072   1.454
13970TIP3   OH241850   6.449   0.259   5.498
13970TIP3    H141851   6.475   0.349   5.481
13970TIP3    H241852   6.491   0.237   5.582
13971TIP3   OH241853   0.274   0.980   1.159
13971TIP3    H141854   0.245   0.928   1.234
13971TIP3    H241855   0.334   0.922   1.111
13972TIP3   OH241856   1.694   2.966   4.886
13972TIP3    H141857   1.711   2.948   4.794
13972TIP3    H241858   1.605   2.933   4.901
13973TIP3   OH241859   2.209   7.067   1.856
13973TIP3    H141860   2.228   7.057   1.762
13973TIP3    H241861   2.293   7.089   1.895
13974TIP3   OH241862   3.255   2.107   6.845
13974TIP3    H141863   3.307   2.137   6.919
13974TIP3    H241864   3.191   2.047   6.882
13975TIP3   OH241865   3.684   3.429   2.029
13975TIP3    H141866   3.676   3.358   2.093
13975TIP3    H241867   3.605   3.421   1.975
13976TIP3   OH241868   5.420   7.360   5.647
13976TIP3    H141869   5.335   7.328   5.615
13976TIP3    H241870   5.480   7.288   5.629
13977TIP3   OH241871   1.527   2.223   3.047
13977TIP3    H141872   1.500   2.204   2.958
13977TIP3    H241873   1.477   2.162   3.101
13978TIP3   OH241874   7.885   2.545   6.203
13978TIP3    H141875   7.833   2.566   6.126
13978TIP3    H241876   7.827   2.565   6.277
13979TIP3   OH241877   0.121   1.577   4.632
13979TIP3    H141878   0.065   1.571   4.709
13979TIP3    H241879   0.074   1.633   4.572
13980TIP3   OH241880   6.561   4.979   5.523
13980TIP3    H141881   6.478   5.027   5.525
13980TIP3    H241882   6.565   4.933   5.606
13981TIP3   OH241883   4.847   7.676   1.530
13981TIP3    H141884   4.808   7.721   1.605
13981TIP3    H241885   4.772   7.658   1.472
13982TIP3   OH241886   7.931   0.193   1.496
13982TIP3    H141887   7.851   0.195   1.548
13982TIP3    H241888   7.943   0.100   1.475
13983TIP3   OH241889   3.521   6.007   3.934
13983TIP3    H141890   3.490   6.006   3.843
13983TIP3    H241891   3.500   6.094   3.966
13984TIP3   OH241892   3.807   3.712   2.999
13984TIP3    H141893   3.721   3.751   2.984
13984TIP3    H241894   3.789   3.624   3.033
13985TIP3   OH241895   3.952   4.516   1.709
13985TIP3    H141896   3.974   4.604   1.741
13985TIP3    H241897   4.027   4.462   1.735
13986TIP3   OH241898   1.130   4.680   2.370
13986TIP3    H141899   1.084   4.750   2.416
13986TIP3    H241900   1.172   4.629   2.439
13987TIP3   OH241901   6.834   4.379   5.847
13987TIP3    H141902   6.862   4.457   5.895
13987TIP3    H241903   6.912   4.349   5.801
13988TIP3   OH241904   6.807   4.114   0.128
13988TIP3    H141905   6.889   4.164   0.130
13988TIP3    H241906   6.766   4.133   0.212
13989TIP3   OH241907   1.497   1.524   0.233
13989TIP3    H141908   1.573   1.468   0.248
13989TIP3    H241909   1.466   1.501   0.146
13990TIP3   OH241910   7.199   1.213   3.215
13990TIP3    H141911   7.242   1.128   3.215
13990TIP3    H241912   7.123   1.202   3.158
13991TIP3   OH241913   5.193   6.369   6.364
13991TIP3    H141914   5.146   6.435   6.415
13991TIP3    H241915   5.245   6.420   6.302
13992TIP3   OH241916   7.022   7.456   0.010
13992TIP3    H141917   6.946   7.435   0.064
13992TIP3    H241918   7.084   7.496   0.071
13993TIP3   OH241919   6.962   2.051   0.841
13993TIP3    H141920   6.972   2.053   0.936
13993TIP3    H241921   6.929   2.138   0.818
13994TIP3   OH241922   6.987   0.361   3.638
13994TIP3    H141923   6.905   0.343   3.593
13994TIP3    H241924   6.962   0.419   3.710
13995TIP3   OH241925   4.319   7.100   1.919
13995TIP3    H141926   4.312   7.047   1.999
13995TIP3    H241927   4.407   7.136   1.922
13996TIP3   OH241928   7.856   6.072   5.762
13996TIP3    H141929   7.931   6.065   5.702
13996TIP3    H241930   7.866   5.998   5.821
13997TIP3   OH241931   7.455   6.010   5.570
13997TIP3    H141932   7.412   6.078   5.519
13997TIP3    H241933   7.527   5.979   5.515
13998TIP3   OH241934   3.898   4.011   2.826
13998TIP3    H141935   3.839   3.985   2.897
13998TIP3    H241936   3.859   4.091   2.791
13999TIP3   OH241937   5.163   0.676   4.889
13999TIP3    H141938   5.126   0.612   4.950
13999TIP3    H241939   5.197   0.624   4.817
14000TIP3   OH241940   5.851   5.246   1.110
14000TIP3    H141941   5.876   5.330   1.147
14000TIP3    H241942   5.849   5.261   1.015
14001TIP3   OH241943   2.713   7.793   0.945
14001TIP3    H141944   2.656   7.720   0.922
14001TIP3    H241945   2.765   7.809   0.866
14002TIP3   OH241946   7.758   4.443   1.666
14002TIP3    H141947   7.784   4.373   1.606
14002TIP3    H241948   7.662   4.436   1.670
14003TIP3   OH241949   1.748   3.224   0.737
14003TIP3    H141950   1.705   3.276   0.669
14003TIP3    H241951   1.677   3.193   0.793
14004TIP3   OH241952   5.693   1.178   2.408
14004TIP3    H141953   5.745   1.122   2.351
14004TIP3    H241954   5.726   1.160   2.496
14005TIP3   OH241955   1.223   5.451   0.246
14005TIP3    H141956   1.299   5.469   0.302
14005TIP3    H241957   1.227   5.519   0.179
14006TIP3   OH241958   4.384   0.851   4.068
14006TIP3    H141959   4.358   0.824   4.157
14006TIP3    H241960   4.398   0.945   4.075
14007TIP3   OH241961   2.439   0.055   1.104
14007TIP3    H141962   2.383   0.133   1.100
14007TIP3    H241963   2.512   0.075   1.046
14008TIP3   OH241964   2.607   1.390   2.494
14008TIP3    H141965   2.664   1.318   2.520
14008TIP3    H241966   2.666   1.461   2.468
14009TIP3   OH241967   0.788   4.056   3.334
14009TIP3    H141968   0.732   4.105   3.274
14009TIP3    H241969   0.780   3.965   3.306
14010TIP3   OH241970   4.727   6.956   3.622
14010TIP3    H141971   4.654   6.896   3.638
14010TIP3    H241972   4.803   6.898   3.613
14011TIP3   OH241973   7.604   1.916   3.818
14011TIP3    H141974   7.555   1.835   3.808
14011TIP3    H241975   7.693   1.895   3.790
14012TIP3   OH241976   1.003   6.442   5.164
14012TIP3    H141977   1.025   6.475   5.077
14012TIP3    H241978   0.916   6.403   5.154
14013TIP3   OH241979   1.944   5.291   5.890
14013TIP3    H141980   1.882   5.231   5.849
14013TIP3    H241981   1.910   5.304   5.978
14014TIP3   OH241982   1.185   1.710   4.189
14014TIP3    H141983   1.195   1.723   4.095
14014TIP3    H241984   1.170   1.616   4.199
14015TIP3   OH241985   8.224   6.600   6.550
14015TIP3    H141986   8.229   6.504   6.546
14015TIP3    H241987   8.202   6.626   6.460
14016TIP3   OH241988   4.609   3.601   6.120
14016TIP3    H141989   4.549   3.538   6.160
14016TIP3    H241990   4.553   3.656   6.065
14017TIP3   OH241991   0.306   6.522   3.699
14017TIP3    H141992   0.255   6.465   3.641
14017TIP3    H241993   0.293   6.610   3.662
14018TIP3   OH241994   2.303   3.676   6.303
14018TIP3    H141995   2.307   3.596   6.251
14018TIP3    H241996   2.271   3.647   6.389
14019TIP3   OH241997   3.419   5.603   0.322
14019TIP3    H141998   3.495   5.544   0.323
14019TIP3    H241999   3.352   5.556   0.273
14020TIP3   OH242000   5.707   7.699   2.884
14020TIP3    H142001   5.760   7.697   2.965
14020TIP3    H242002   5.767   7.670   2.816
14021TIP3   OH242003   4.396   0.356   0.575
14021TIP3    H142004   4.480   0.345   0.620
14021TIP3    H242005   4.367   0.267   0.557
14022TIP3   OH242006   3.956   1.081   2.004
14022TIP3    H142007   3.883   1.069   2.066
14022TIP3    H242008   3.930   1.030   1.927
14023TIP3   OH242009   2.666   7.031   5.709
14023TIP3    H142010   2.728   6.964   5.736
14023TIP3    H242011   2.601   7.035   5.779
14024TIP3   OH242012   7.051   5.675   6.737
14024TIP3    H142013   7.097   5.635   6.663
14024TIP3    H242014   6.970   5.708   6.699
14025TIP3   OH242015   2.517   7.092   0.513
14025TIP3    H142016   2.578   7.159   0.541
14025TIP3    H242017   2.469   7.131   0.441
14026TIP3   OH242018   0.063   2.156   4.076
14026TIP3    H142019   0.010   2.191   4.005
14026TIP3    H242020   0.123   2.095   4.033
14027TIP3   OH242021   5.512   6.036   1.029
14027TIP3    H142022   5.526   5.956   0.978
14027TIP3    H242023   5.589   6.089   1.011
14028TIP3   OH242024   7.951   4.937   2.294
14028TIP3    H142025   7.993   4.851   2.284
14028TIP3    H242026   7.913   4.935   2.382
14029TIP3   OH242027   4.286   3.436   5.001
14029TIP3    H142028   4.309   3.357   4.953
14029TIP3    H242029   4.327   3.507   4.952
14030TIP3   OH242030   0.707   0.462   1.378
14030TIP3    H142031   0.767   0.513   1.323
14030TIP3    H242032   0.699   0.513   1.459
14031TIP3   OH242033   6.949   5.473   2.702
14031TIP3    H142034   6.893   5.488   2.778
14031TIP3    H242035   7.029   5.436   2.739
14032TIP3   OH242036   7.632   4.986   6.738
14032TIP3    H142037   7.589   4.903   6.720
14032TIP3    H242038   7.700   4.965   6.803
14033TIP3   OH242039   3.148   1.419   4.361
14033TIP3    H142040   3.224   1.457   4.318
14033TIP3    H242041   3.105   1.367   4.293
14034TIP3   OH242042   1.723   5.453   6.360
14034TIP3    H142043   1.747   5.537   6.399
14034TIP3    H242044   1.725   5.469   6.266
14035TIP3   OH242045   3.712   3.643   2.262
14035TIP3    H142046   3.798   3.682   2.279
14035TIP3    H242047   3.717   3.615   2.170
14036TIP3   OH242048   8.093   6.737   2.065
14036TIP3    H142049   8.057   6.794   1.998
14036TIP3    H242050   8.165   6.788   2.103
14037TIP3   OH242051   5.923   5.537   4.168
14037TIP3    H142052   5.853   5.579   4.218
14037TIP3    H242053   5.883   5.457   4.133
14038TIP3   OH242054   7.650   1.202   1.014
14038TIP3    H142055   7.632   1.177   1.105
14038TIP3    H242056   7.623   1.293   1.007
14039TIP3   OH242057   6.457   4.142   0.772
14039TIP3    H142058   6.383   4.112   0.825
14039TIP3    H242059   6.508   4.198   0.830
14040TIP3   OH242060   4.234   2.880   2.898
14040TIP3    H142061   4.293   2.895   2.824
14040TIP3    H242062   4.195   2.794   2.880
14041TIP3   OH242063   5.225   6.439   2.848
14041TIP3    H142064   5.314   6.412   2.872
14041TIP3    H242065   5.237   6.491   2.769
14042TIP3   OH242066   1.406   5.977   5.306
14042TIP3    H142067   1.465   5.999   5.379
14042TIP3    H242068   1.368   6.061   5.281
14043TIP3   OH242069   6.951   4.789   2.014
14043TIP3    H142070   6.913   4.789   1.926
14043TIP3    H242071   6.945   4.881   2.042
14044TIP3   OH242072   3.371   7.375   0.423
14044TIP3    H142073   3.293   7.430   0.428
14044TIP3    H242074   3.444   7.436   0.432
14045TIP3   OH242075   4.556   6.155   4.496
14045TIP3    H142076   4.594   6.070   4.472
14045TIP3    H242077   4.461   6.142   4.489
14046TIP3   OH242078   1.841   3.269   2.185
14046TIP3    H142079   1.836   3.186   2.234
14046TIP3    H242080   1.754   3.306   2.192
14047TIP3   OH242081   1.810   6.886   6.118
14047TIP3    H142082   1.815   6.967   6.170
14047TIP3    H242083   1.882   6.832   6.152
14048TIP3   OH242084   3.576   6.349   3.432
14048TIP3    H142085   3.672   6.357   3.430
14048TIP3    H242086   3.546   6.425   3.482
14049TIP3   OH242087   4.115   0.548   3.715
14049TIP3    H142088   4.057   0.575   3.786
14049TIP3    H242089   4.108   0.619   3.651
14050TIP3   OH242090   0.321   1.671   4.970
14050TIP3    H142091   0.237   1.708   4.942
14050TIP3    H242092   0.298   1.586   5.008
14051TIP3   OH242093   7.048   6.727   3.753
14051TIP3    H142094   7.127   6.775   3.727
14051TIP3    H242095   6.986   6.742   3.682
14052TIP3   OH242096   6.191   3.887   5.499
14052TIP3    H142097   6.163   3.796   5.513
14052TIP3    H242098   6.279   3.890   5.537
14053TIP3   OH242099   0.427   7.138   2.147
14053TIP3    H142100   0.392   7.049   2.154
14053TIP3    H242101   0.458   7.159   2.235
14054TIP3   OH242102   0.407   5.756   2.128
14054TIP3    H142103   0.471   5.825   2.110
14054TIP3    H242104   0.336   5.773   2.066
14055TIP3   OH242105   4.991   4.567   0.412
14055TIP3    H142106   5.008   4.501   0.345
14055TIP3    H242107   4.938   4.521   0.478
14056TIP3   OH242108   8.277   0.229   2.916
14056TIP3    H142109   8.298   0.260   3.004
14056TIP3    H242110   8.347   0.169   2.894
14057TIP3   OH242111   3.676   1.501   4.067
14057TIP3    H142112   3.763   1.485   4.029
14057TIP3    H242113   3.694   1.525   4.158
14058TIP3   OH242114   6.922   5.622   5.639
14058TIP3    H142115   6.938   5.527   5.642
14058TIP3    H242116   6.935   5.645   5.547
14059TIP3   OH242117   7.127   0.433   5.293
14059TIP3    H142118   7.048   0.480   5.266
14059TIP3    H242119   7.094   0.356   5.340
14060TIP3   OH242120   0.585   0.314   4.949
14060TIP3    H142121   0.548   0.244   5.003
14060TIP3    H242122   0.617   0.269   4.871
14061TIP3   OH242123   0.411   4.299   6.618
14061TIP3    H142124   0.351   4.366   6.651
14061TIP3    H242125   0.391   4.295   6.524
14062TIP3   OH242126   5.043   7.027   2.185
14062TIP3    H142127   5.022   6.970   2.259
14062TIP3    H242128   5.102   7.093   2.221
14063TIP3   OH242129   5.294   0.311   1.103
14063TIP3    H142130   5.286   0.236   1.044
14063TIP3    H242131   5.222   0.369   1.077
14064TIP3   OH242132   8.103   5.451   5.486
14064TIP3    H142133   8.136   5.503   5.413
14064TIP3    H242134   8.009   5.471   5.489
14065TIP3   OH242135   7.392   0.781   0.763
14065TIP3    H142136   7.318   0.822   0.809
14065TIP3    H242137   7.427   0.718   0.827
14066TIP3   OH242138   1.346   2.670   3.388
14066TIP3    H142139   1.380   2.745   3.437
14066TIP3    H242140   1.425   2.625   3.357
14067TIP3   OH242141   7.083   1.624   4.944
14067TIP3    H142142   7.148   1.637   5.013
14067TIP3    H242143   6.999   1.622   4.990
14068TIP3   OH242144   5.681   3.692   2.820
14068TIP3    H142145   5.606   3.710   2.877
14068TIP3    H242146   5.732   3.772   2.821
14069TIP3   OH242147   4.170   6.281   2.902
14069TIP3    H142148   4.257   6.301   2.936
14069TIP3    H242149   4.187   6.228   2.824
14070TIP3   OH242150   6.022   2.208   5.061
14070TIP3    H142151   6.020   2.300   5.087
14070TIP3    H242152   6.095   2.171   5.111
14071TIP3   OH242153   2.238   2.450   6.712
14071TIP3    H142154   2.173   2.448   6.642
14071TIP3    H242155   2.308   2.393   6.681
14072TIP3   OH242156   5.035   2.744   1.024
14072TIP3    H142157   5.011   2.719   1.113
14072TIP3    H242158   4.988   2.681   0.968
14073TIP3   OH242159   8.394   0.471   4.218
14073TIP3    H142160   8.484   0.469   4.184
14073TIP3    H242161   8.343   0.513   4.149
14074TIP3   OH242162   4.693   7.309   4.800
14074TIP3    H142163   4.690   7.215   4.818
14074TIP3    H242164   4.608   7.329   4.761
14075TIP3   OH242165   7.070   1.109   4.933
14075TIP3    H142166   7.155   1.065   4.924
14075TIP3    H242167   7.042   1.127   4.844
14076TIP3   OH242168   1.252   6.418   1.265
14076TIP3    H142169   1.194   6.383   1.333
14076TIP3    H242170   1.232   6.366   1.187
14077TIP3   OH242171   7.673   6.874   2.204
14077TIP3    H142172   7.736   6.843   2.268
14077TIP3    H242173   7.673   6.808   2.136
14078TIP3   OH242174   7.356   2.720   1.293
14078TIP3    H142175   7.335   2.727   1.200
14078TIP3    H242176   7.273   2.701   1.336
14079TIP3   OH242177   2.174   1.384   6.589
14079TIP3    H142178   2.158   1.445   6.661
14079TIP3    H242179   2.267   1.393   6.570
14080TIP3   OH242180   8.283   5.955   5.358
14080TIP3    H142181   8.222   5.998   5.299
14080TIP3    H242182   8.235   5.944   5.440
14081TIP3   OH242183   0.964   6.273   4.801
14081TIP3    H142184   0.905   6.203   4.829
14081TIP3    H242185   1.049   6.249   4.838
14082TIP3   OH242186   1.141   1.674   6.070
14082TIP3    H142187   1.151   1.704   6.161
14082TIP3    H242188   1.055   1.633   6.067
14083TIP3   OH242189   0.332   4.913   5.061
14083TIP3    H142190   0.402   4.972   5.034
14083TIP3    H242191   0.252   4.960   5.039
14084TIP3   OH242192   1.378   4.731   5.724
14084TIP3    H142193   1.409   4.642   5.708
14084TIP3    H242194   1.363   4.736   5.818
14085TIP3   OH242195   1.196   5.844   4.110
14085TIP3    H142196   1.264   5.785   4.144
14085TIP3    H242197   1.206   5.924   4.160
14086TIP3   OH242198   6.217   1.413   0.899
14086TIP3    H142199   6.283   1.350   0.872
14086TIP3    H242200   6.214   1.404   0.995
14087TIP3   OH242201   4.022   1.382   4.300
14087TIP3    H142202   4.080   1.458   4.307
14087TIP3    H242203   4.064   1.315   4.354
14088TIP3   OH242204   4.566   1.400   5.894
14088TIP3    H142205   4.488   1.452   5.875
14088TIP3    H242206   4.545   1.312   5.863
14089TIP3   OH242207   4.431   3.464   6.543
14089TIP3    H142208   4.429   3.548   6.498
14089TIP3    H242209   4.438   3.486   6.636
14090TIP3   OH242210   6.251   0.468   3.830
14090TIP3    H142211   6.309   0.475   3.906
14090TIP3    H242212   6.187   0.538   3.842
14091TIP3   OH242213   3.190   6.468   0.147
14091TIP3    H142214   3.201   6.385   0.194
14091TIP3    H242215   3.245   6.530   0.194
14092TIP3   OH242216   1.238   0.098   1.324
14092TIP3    H142217   1.226   0.140   1.409
14092TIP3    H242218   1.324   0.128   1.295
14093TIP3   OH242219   3.478   2.053   6.191
14093TIP3    H142220   3.418   2.126   6.181
14093TIP3    H242221   3.489   2.019   6.103
14094TIP3   OH242222   5.791   2.633   5.942
14094TIP3    H142223   5.859   2.659   6.005
14094TIP3    H242224   5.743   2.713   5.924
14095TIP3   OH242225   7.417   7.121   3.798
14095TIP3    H142226   7.508   7.151   3.803
14095TIP3    H242227   7.368   7.182   3.853
14096TIP3   OH242228   2.801   6.013   6.277
14096TIP3    H142229   2.889   6.053   6.279
14096TIP3    H242230   2.745   6.077   6.322
14097TIP3   OH242231   7.002   6.771   1.067
14097TIP3    H142232   7.075   6.796   1.010
14097TIP3    H242233   6.944   6.848   1.065
14098TIP3   OH242234   5.324   6.463   2.341
14098TIP3    H142235   5.238   6.421   2.336
14098TIP3    H242236   5.336   6.503   2.255
14099TIP3   OH242237   5.823   1.308   4.070
14099TIP3    H142238   5.916   1.309   4.048
14099TIP3    H242239   5.809   1.387   4.121
14100TIP3   OH242240   3.679   6.817   0.352
14100TIP3    H142241   3.758   6.829   0.405
14100TIP3    H242242   3.607   6.821   0.415
14101TIP3   OH242243   8.426   7.735   1.052
14101TIP3    H142244   8.441   7.729   1.146
14101TIP3    H242245   8.336   7.704   1.040
14102TIP3   OH242246   2.269   3.520   1.139
14102TIP3    H142247   2.347   3.555   1.181
14102TIP3    H242248   2.229   3.463   1.204
14103TIP3   OH242249   0.869   6.360   3.397
14103TIP3    H142250   0.820   6.389   3.474
14103TIP3    H242251   0.858   6.431   3.333
14104TIP3   OH242252   5.590   6.109   1.374
14104TIP3    H142253   5.612   6.159   1.294
14104TIP3    H242254   5.500   6.081   1.360
14105TIP3   OH242255   3.937   0.198   3.377
14105TIP3    H142256   3.943   0.278   3.428
14105TIP3    H242257   3.933   0.128   3.442
14106TIP3   OH242258   2.654   5.773   6.754
14106TIP3    H142259   2.726   5.807   6.806
14106TIP3    H242260   2.688   5.766   6.665
14107TIP3   OH242261   4.914   4.489   1.993
14107TIP3    H142262   4.860   4.506   2.070
14107TIP3    H242263   4.965   4.411   2.015
14108TIP3   OH242264   1.180   5.659   2.954
14108TIP3    H142265   1.258   5.622   2.913
14108TIP3    H242266   1.213   5.717   3.023
14109TIP3   OH242267   1.230   6.238   5.445
14109TIP3    H142268   1.263   6.170   5.504
14109TIP3    H242269   1.187   6.190   5.374
14110TIP3   OH242270   1.906   0.059   5.045
14110TIP3    H142271   1.952   0.120   5.104
14110TIP3    H242272   1.818   0.097   5.037
14111TIP3   OH242273   7.146   2.148   5.571
14111TIP3    H142274   7.188   2.086   5.631
14111TIP3    H242275   7.197   2.142   5.491
14112TIP3   OH242276   6.577   0.952   2.333
14112TIP3    H142277   6.671   0.935   2.345
14112TIP3    H242278   6.570   1.047   2.337
14113TIP3   OH242279   7.946   2.197   4.695
14113TIP3    H142280   7.962   2.217   4.603
14113TIP3    H242281   7.886   2.123   4.694
14114TIP3   OH242282   3.193   3.680   0.692
14114TIP3    H142283   3.198   3.608   0.754
14114TIP3    H242284   3.240   3.649   0.615
14115TIP3   OH242285   6.991   0.808   4.839
14115TIP3    H142286   7.028   0.785   4.924
14115TIP3    H242287   7.047   0.880   4.808
14116TIP3   OH242288   3.433   0.473   5.645
14116TIP3    H142289   3.442   0.545   5.583
14116TIP3    H242290   3.488   0.498   5.719
14117TIP3   OH242291   6.895   5.225   4.785
14117TIP3    H142292   6.942   5.300   4.822
14117TIP3    H242293   6.866   5.175   4.861
14118TIP3   OH242294   4.612   2.661   3.162
14118TIP3    H142295   4.524   2.695   3.148
14118TIP3    H242296   4.600   2.590   3.225
14119TIP3   OH242297   2.485   6.311   2.383
14119TIP3    H142298   2.535   6.306   2.465
14119TIP3    H242299   2.552   6.317   2.315
14120TIP3   OH242300   6.001   0.113   0.990
14120TIP3    H142301   6.085   0.070   1.006
14120TIP3    H242302   5.996   0.181   1.058
14121TIP3   OH242303   2.188   6.757   2.617
14121TIP3    H142304   2.112   6.699   2.608
14121TIP3    H242305   2.263   6.700   2.603
14122TIP3   OH242306   0.279   0.984   1.814
14122TIP3    H142307   0.222   0.935   1.754
14122TIP3    H242308   0.283   1.072   1.777
14123TIP3   OH242309   6.592   4.252   1.347
14123TIP3    H142310   6.559   4.314   1.412
14123TIP3    H242311   6.524   4.184   1.343
14124TIP3   OH242312   7.150   2.526   2.625
14124TIP3    H142313   7.212   2.490   2.562
14124TIP3    H242314   7.179   2.615   2.641
14125TIP3   OH242315   2.150   4.797   1.989
14125TIP3    H142316   2.180   4.710   2.016
14125TIP3    H242317   2.159   4.851   2.067
14126TIP3   OH242318   1.599   0.685   2.073
14126TIP3    H142319   1.541   0.675   2.148
14126TIP3    H242320   1.659   0.611   2.079
14127TIP3   OH242321   6.671   3.025   0.928
14127TIP3    H142322   6.638   2.942   0.961
14127TIP3    H242323   6.718   3.002   0.847
14128TIP3   OH242324   4.485   5.705   2.737
14128TIP3    H142325   4.524   5.735   2.819
14128TIP3    H242326   4.499   5.778   2.676
14129TIP3   OH242327   4.439   2.551   6.653
14129TIP3    H142328   4.384   2.474   6.669
14129TIP3    H242329   4.515   2.517   6.607
14130TIP3   OH242330   0.874   2.417   4.047
14130TIP3    H142331   0.950   2.475   4.059
14130TIP3    H242332   0.799   2.471   4.072
14131TIP3   OH242333   0.259   5.637   4.806
14131TIP3    H142334   0.302   5.556   4.834
14131TIP3    H242335   0.228   5.618   4.717
14132TIP3   OH242336   2.552   3.320   5.383
14132TIP3    H142337   2.498   3.312   5.305
14132TIP3    H242338   2.496   3.365   5.447
14133TIP3   OH242339   4.614   7.221   0.595
14133TIP3    H142340   4.608   7.148   0.657
14133TIP3    H242341   4.557   7.195   0.522
14134TIP3   OH242342   2.407   0.888   4.927
14134TIP3    H142343   2.354   0.946   4.982
14134TIP3    H242344   2.411   0.932   4.842
14135TIP3   OH242345   3.652   0.745   0.103
14135TIP3    H142346   3.674   0.837   0.119
14135TIP3    H242347   3.593   0.722   0.175
14136TIP3   OH242348   4.760   6.134   6.376
14136TIP3    H142349   4.793   6.122   6.465
14136TIP3    H242350   4.791   6.057   6.328
14137TIP3   OH242351   0.330   2.021   0.860
14137TIP3    H142352   0.358   2.112   0.874
14137TIP3    H242353   0.247   2.028   0.813
14138TIP3   OH242354   4.441   2.277   1.032
14138TIP3    H142355   4.507   2.316   0.975
14138TIP3    H242356   4.358   2.292   0.988
14139TIP3   OH242357   5.266   2.803   2.494
14139TIP3    H142358   5.341   2.787   2.438
14139TIP3    H242359   5.303   2.832   2.578
14140TIP3   OH242360   1.952   4.683   1.831
14140TIP3    H142361   1.879   4.736   1.862
14140TIP3    H242362   2.016   4.686   1.902
14141TIP3   OH242363   5.054   1.165   3.065
14141TIP3    H142364   4.991   1.143   2.996
14141TIP3    H242365   5.024   1.249   3.099
14142TIP3   OH242366   4.768   0.990   4.291
14142TIP3    H142367   4.720   0.907   4.301
14142TIP3    H242368   4.809   0.984   4.205
14143TIP3   OH242369   8.093   5.543   1.197
14143TIP3    H142370   8.074   5.470   1.138
14143TIP3    H242371   8.007   5.567   1.233
14144TIP3   OH242372   7.695   5.883   5.447
14144TIP3    H142373   7.762   5.947   5.424
14144TIP3    H242374   7.722   5.802   5.404
14145TIP3   OH242375   4.257   1.868   4.294
14145TIP3    H142376   4.185   1.927   4.313
14145TIP3    H242377   4.278   1.827   4.378
14146TIP3   OH242378   3.281   1.378   2.087
14146TIP3    H142379   3.368   1.406   2.117
14146TIP3    H242380   3.298   1.332   2.005
14147TIP3   OH242381   4.501   5.236   3.946
14147TIP3    H142382   4.526   5.144   3.953
14147TIP3    H242383   4.556   5.281   4.010
14148TIP3   OH242384   6.745   6.119   3.580
14148TIP3    H142385   6.823   6.075   3.545
14148TIP3    H242386   6.717   6.177   3.509
14149TIP3   OH242387   3.503   1.095   3.726
14149TIP3    H142388   3.458   1.026   3.678
14149TIP3    H242389   3.452   1.174   3.709
14150TIP3   OH242390   6.323   2.244   5.380
14150TIP3    H142391   6.258   2.314   5.386
14150TIP3    H242392   6.403   2.282   5.416
14151TIP3   OH242393   5.710   7.189   3.803
14151TIP3    H142394   5.707   7.118   3.867
14151TIP3    H242395   5.625   7.232   3.811
14152TIP3   OH242396   6.080  -0.019   3.416
14152TIP3    H142397   6.018   0.017   3.479
14152TIP3    H242398   6.100   0.055   3.358
14153TIP3   OH242399   2.275   0.026   0.060
14153TIP3    H142400   2.181   0.044   0.051
14153TIP3    H242401   2.311   0.045  -0.027
14154TIP3   OH242402   2.864   4.651   3.158
14154TIP3    H142403   2.843   4.567   3.118
14154TIP3    H242404   2.937   4.685   3.107
14155TIP3   OH242405   4.203   3.147   2.965
14155TIP3    H142406   4.242   3.060   2.976
14155TIP3    H242407   4.234   3.176   2.880
14156TIP3   OH242408   3.814   5.854   6.643
14156TIP3    H142409   3.754   5.785   6.613
14156TIP3    H242410   3.899   5.831   6.606
14157TIP3   OH242411   4.859   7.256   5.551
14157TIP3    H142412   4.869   7.244   5.457
14157TIP3    H242413   4.793   7.326   5.559
14158TIP3   OH242414   5.136   2.702   1.764
14158TIP3    H142415   5.173   2.616   1.744
14158TIP3    H242416   5.044   2.684   1.784
14159TIP3   OH242417   0.279   2.493   3.255
14159TIP3    H142418   0.289   2.448   3.339
14159TIP3    H242419   0.356   2.465   3.204
14160TIP3   OH242420   3.960   6.930   4.558
14160TIP3    H142421   3.968   7.025   4.553
14160TIP3    H242422   3.966   6.901   4.467
14161TIP3   OH242423   6.154   6.631   0.477
14161TIP3    H142424   6.082   6.614   0.416
14161TIP3    H242425   6.112   6.633   0.563
14162TIP3   OH242426   3.068   5.241   1.436
14162TIP3    H142427   3.133   5.301   1.400
14162TIP3    H242428   3.010   5.220   1.362
14163TIP3   OH242429   6.150   1.598   2.654
14163TIP3    H142430   6.195   1.636   2.729
14163TIP3    H242431   6.070   1.560   2.691
14164TIP3   OH242432   0.273   5.980   4.065
14164TIP3    H142433   0.316   5.898   4.089
14164TIP3    H242434   0.215   6.000   4.138
14165TIP3   OH242435   1.031   5.879   5.861
14165TIP3    H142436   1.041   5.784   5.852
14165TIP3    H242437   0.942   5.890   5.894
14166TIP3   OH242438   1.924   4.381   1.796
14166TIP3    H142439   1.926   4.350   1.705
14166TIP3    H242440   1.858   4.326   1.839
14167TIP3   OH242441   7.947   2.637   2.031
14167TIP3    H142442   7.917   2.560   1.983
14167TIP3    H242443   8.014   2.605   2.090
14168TIP3   OH242444   4.153   5.950   3.581
14168TIP3    H142445   4.190   5.879   3.529
14168TIP3    H242446   4.207   6.026   3.558
14169TIP3   OH242447   1.460   5.582   1.368
14169TIP3    H142448   1.438   5.636   1.443
14169TIP3    H242449   1.388   5.596   1.306
14170TIP3   OH242450   0.640   3.716   1.195
14170TIP3    H142451   0.611   3.733   1.106
14170TIP3    H242452   0.706   3.784   1.212
14171TIP3   OH242453   6.727   5.857   0.377
14171TIP3    H142454   6.707   5.800   0.303
14171TIP3    H242455   6.653   5.918   0.381
14172TIP3   OH242456   7.974   0.209   4.974
14172TIP3    H142457   8.005   0.278   5.032
14172TIP3    H242458   7.879   0.220   4.971
14173TIP3   OH242459   0.169   0.734   5.939
14173TIP3    H142460   0.123   0.751   5.857
14173TIP3    H242461   0.101   0.738   6.006
14174TIP3   OH242462   7.579   7.588   6.462
14174TIP3    H142463   7.612   7.676   6.447
14174TIP3    H242464   7.626   7.533   6.398
14175TIP3   OH242465   6.474   6.088   2.110
14175TIP3    H142466   6.469   6.175   2.072
14175TIP3    H242467   6.449   6.029   2.038
14176TIP3   OH242468   0.258   2.638   4.493
14176TIP3    H142469   0.175   2.618   4.536
14176TIP3    H242470   0.289   2.718   4.535
14177TIP3   OH242471   4.413   6.106   5.643
14177TIP3    H142472   4.324   6.122   5.612
14177TIP3    H242473   4.431   6.015   5.618
14178TIP3   OH242474   2.098   5.586   0.758
14178TIP3    H142475   2.083   5.661   0.700
14178TIP3    H242476   2.126   5.516   0.699
14179TIP3   OH242477   5.371   5.550   4.804
14179TIP3    H142478   5.453   5.507   4.777
14179TIP3    H242479   5.304   5.483   4.791
14180TIP3   OH242480   4.576   4.450   1.488
14180TIP3    H142481   4.639   4.509   1.529
14180TIP3    H242482   4.538   4.401   1.561
14181TIP3   OH242483   3.163   1.167   0.469
14181TIP3    H142484   3.071   1.143   0.461
14181TIP3    H242485   3.200   1.146   0.383
14182TIP3   OH242486   1.534   4.035   3.313
14182TIP3    H142487   1.586   4.041   3.233
14182TIP3    H242488   1.456   4.087   3.295
14183TIP3   OH242489   0.473   6.952   2.718
14183TIP3    H142490   0.513   6.865   2.714
14183TIP3    H242491   0.544   7.010   2.745
14184TIP3   OH242492   1.088   1.725   1.808
14184TIP3    H142493   1.008   1.777   1.816
14184TIP3    H242494   1.115   1.706   1.898
14185TIP3   OH242495   3.056   0.723   1.188
14185TIP3    H142496   3.032   0.716   1.096
14185TIP3    H242497   3.122   0.655   1.201
14186TIP3   OH242498   3.989   2.027   0.055
14186TIP3    H142499   4.053   2.077   0.107
14186TIP3    H242500   3.942   2.094   0.005
14187TIP3   OH242501   7.283   5.713   0.434
14187TIP3    H142502   7.321   5.707   0.521
14187TIP3    H242503   7.354   5.689   0.374
14188TIP3   OH242504   6.254   3.091   3.828
14188TIP3    H142505   6.329   3.082   3.888
14188TIP3    H242506   6.246   3.185   3.814
14189TIP3   OH242507   2.501   2.934   3.262
14189TIP3    H142508   2.478   2.897   3.347
14189TIP3    H242509   2.439   3.005   3.249
14190TIP3   OH242510   6.531   0.657   6.690
14190TIP3    H142511   6.606   0.619   6.645
14190TIP3    H242512   6.480   0.581   6.719
14191TIP3   OH242513   6.569   1.196   6.305
14191TIP3    H142514   6.648   1.247   6.283
14191TIP3    H242515   6.549   1.222   6.395
14192TIP3   OH242516   0.996   7.468   3.313
14192TIP3    H142517   1.063   7.412   3.274
14192TIP3    H242518   0.928   7.476   3.245
14193TIP3   OH242519   3.572   1.786   3.353
14193TIP3    H142520   3.559   1.800   3.447
14193TIP3    H242521   3.592   1.693   3.345
14194TIP3   OH242522   4.118   7.262   0.185
14194TIP3    H142523   4.032   7.302   0.191
14194TIP3    H242524   4.175   7.332   0.154
14195TIP3   OH242525   1.500   1.564   5.838
14195TIP3    H142526   1.548   1.637   5.876
14195TIP3    H242527   1.423   1.604   5.798
14196TIP3   OH242528   0.045   7.217   3.121
14196TIP3    H142529   0.134   7.206   3.156
14196TIP3    H242530   0.020   7.305   3.148
14197TIP3   OH242531   1.970   7.851   5.264
14197TIP3    H142532   2.027   7.879   5.336
14197TIP3    H242533   1.940   7.933   5.225
14198TIP3   OH242534  -0.022   1.784   4.163
14198TIP3    H142535  -0.033   1.818   4.074
14198TIP3    H242536   0.062   1.738   4.160
14199TIP3   OH242537   0.779   6.418   2.604
14199TIP3    H142538   0.802   6.325   2.605
14199TIP3    H242539   0.776   6.440   2.511
14200TIP3   OH242540   1.693   3.960   6.047
14200TIP3    H142541   1.603   3.966   6.014
14200TIP3    H242542   1.718   4.051   6.064
14201TIP3   OH242543   0.922   0.707   2.462
14201TIP3    H142544   0.971   0.646   2.407
14201TIP3    H242545   0.868   0.756   2.400
14202TIP3   OH242546   2.700   0.448   6.756
14202TIP3    H142547   2.722   0.541   6.757
14202TIP3    H242548   2.611   0.444   6.792
14203TIP3   OH242549   6.822   5.736   5.403
14203TIP3    H142550   6.742   5.744   5.351
14203TIP3    H242551   6.887   5.787   5.354
14204TIP3   OH242552   7.338   7.943   0.702
14204TIP3    H142553   7.343   7.883   0.776
14204TIP3    H242554   7.331   7.887   0.625
14205TIP3   OH242555   0.879   1.292   2.214
14205TIP3    H142556   0.968   1.285   2.247
14205TIP3    H242557   0.857   1.204   2.183
14206TIP3   OH242558   0.809   1.885   3.380
14206TIP3    H142559   0.862   1.958   3.410
14206TIP3    H242560   0.793   1.833   3.459
14207TIP3   OH242561   3.952   4.400   3.793
14207TIP3    H142562   4.030   4.403   3.847
14207TIP3    H242563   3.902   4.478   3.818
14208TIP3   OH242564   2.389   2.670   1.411
14208TIP3    H142565   2.327   2.675   1.338
14208TIP3    H242566   2.467   2.629   1.373
14209TIP3   OH242567   3.778   0.627   1.366
14209TIP3    H142568   3.799   0.648   1.457
14209TIP3    H242569   3.796   0.534   1.357
14210TIP3   OH242570   3.893   5.134   1.743
14210TIP3    H142571   3.941   5.174   1.671
14210TIP3    H242572   3.952   5.068   1.778
14211TIP3   OH242573   0.623   4.545   3.308
14211TIP3    H142574   0.656   4.471   3.258
14211TIP3    H242575   0.615   4.616   3.244
14212TIP3   OH242576   2.035   0.578   2.969
14212TIP3    H142577   2.038   0.516   2.896
14212TIP3    H242578   2.032   0.664   2.926
14213TIP3   OH242579   4.186   2.132   5.205
14213TIP3    H142580   4.211   2.193   5.137
14213TIP3    H242581   4.160   2.053   5.159
14214TIP3   OH242582   1.576   2.710   0.681
14214TIP3    H142583   1.602   2.670   0.764
14214TIP3    H242584   1.535   2.638   0.632
14215TIP3   OH242585   7.150   5.956   5.529
14215TIP3    H142586   7.173   5.949   5.622
14215TIP3    H242587   7.218   5.906   5.484
14216TIP3   OH242588   4.771   4.320   1.327
14216TIP3    H142589   4.819   4.401   1.346
14216TIP3    H242590   4.691   4.327   1.379
14217TIP3   OH242591   6.681   0.000   2.862
14217TIP3    H142592   6.638  -0.066   2.917
14217TIP3    H242593   6.616   0.071   2.856
14218TIP3   OH242594   4.402   2.165   4.518
14218TIP3    H142595   4.432   2.217   4.444
14218TIP3    H242596   4.310   2.188   4.528
14219TIP3   OH242597   0.620   0.105   3.559
14219TIP3    H142598   0.694   0.045   3.552
14219TIP3    H242599   0.554   0.055   3.606
14220TIP3   OH242600   3.738   0.907   5.778
14220TIP3    H142601   3.647   0.913   5.747
14220TIP3    H242602   3.783   0.857   5.710
14221TIP3   OH242603   2.598   6.383   6.771
14221TIP3    H142604   2.637   6.342   6.694
14221TIP3    H242605   2.560   6.310   6.820
14222TIP3   OH242606   5.078   0.683   0.471
14222TIP3    H142607   5.156   0.694   0.526
14222TIP3    H242608   5.019   0.753   0.498
14223TIP3   OH242609   7.345   7.657   2.182
14223TIP3    H142610   7.279   7.663   2.251
14223TIP3    H242611   7.298   7.675   2.101
14224TIP3   OH242612   8.041   6.163   0.036
14224TIP3    H142613   8.137   6.158   0.032
14224TIP3    H242614   8.021   6.168   0.129
14225TIP3   OH242615   1.278   2.481   3.589
14225TIP3    H142616   1.186   2.461   3.573
14225TIP3    H242617   1.304   2.535   3.515
14226TIP3   OH242618   1.285   7.477   1.508
14226TIP3    H142619   1.219   7.410   1.490
14226TIP3    H242620   1.234   7.554   1.532
14227TIP3   OH242621   0.680   4.672   1.373
14227TIP3    H142622   0.666   4.719   1.291
14227TIP3    H242623   0.599   4.684   1.422
14228TIP3   OH242624   6.750   1.970   4.515
14228TIP3    H142625   6.709   2.057   4.516
14228TIP3    H242626   6.734   1.935   4.603
14229TIP3   OH242627   1.574   7.367   5.981
14229TIP3    H142628   1.577   7.290   5.925
14229TIP3    H242629   1.481   7.375   6.005
14230TIP3   OH242630   5.411   3.178   6.159
14230TIP3    H142631   5.352   3.107   6.134
14230TIP3    H242632   5.496   3.136   6.170
14231TIP3   OH242633   1.397   1.933   0.033
14231TIP3    H142634   1.448   1.856   0.057
14231TIP3    H242635   1.307   1.902   0.027
14232TIP3   OH242636   6.176   7.195   1.404
14232TIP3    H142637   6.149   7.252   1.332
14232TIP3    H242638   6.094   7.159   1.438
14233TIP3   OH242639   3.087   4.782   5.204
14233TIP3    H142640   3.053   4.743   5.124
14233TIP3    H242641   3.177   4.807   5.183
14234TIP3   OH242642   8.393   1.909   6.146
14234TIP3    H142643   8.349   1.827   6.122
14234TIP3    H242644   8.326   1.976   6.133
14235TIP3   OH242645   3.950   4.107  -0.035
14235TIP3    H142646   4.024   4.047  -0.038
14235TIP3    H242647   3.878   4.055   0.000
14236TIP3   OH242648   1.282   6.218   3.700
14236TIP3    H142649   1.214   6.165   3.740
14236TIP3    H242650   1.244   6.306   3.694
14237TIP3   OH242651   4.133   3.859   1.910
14237TIP3    H142652   4.101   3.817   1.830
14237TIP3    H242653   4.227   3.870   1.896
14238TIP3   OH242654   8.207   0.614   4.961
14238TIP3    H142655   8.189   0.523   4.982
14238TIP3    H242656   8.269   0.643   5.029
14239TIP3   OH242657   4.558   0.222   4.160
14239TIP3    H142658   4.498   0.173   4.215
14239TIP3    H242659   4.563   0.308   4.201
14240TIP3   OH242660   1.848   7.835   1.605
14240TIP3    H142661   1.915   7.902   1.592
14240TIP3    H242662   1.879   7.760   1.554
14241TIP3   OH242663   6.963   2.310   3.923
14241TIP3    H142664   7.045   2.357   3.906
14241TIP3    H242665   6.991   2.222   3.949
14242TIP3   OH242666   4.530   6.878   5.885
14242TIP3    H142667   4.580   6.923   5.817
14242TIP3    H242668   4.595   6.823   5.929
14243TIP3   OH242669   3.670   0.284   3.550
14243TIP3    H142670   3.676   0.368   3.504
14243TIP3    H242671   3.661   0.220   3.480
14244TIP3   OH242672   4.896   7.185   3.204
14244TIP3    H142673   4.941   7.202   3.121
14244TIP3    H242674   4.961   7.141   3.258
14245TIP3   OH242675   2.267   5.849   3.207
14245TIP3    H142676   2.201   5.919   3.211
14245TIP3    H242677   2.290   5.843   3.114
14246TIP3   OH242678   8.199   3.099   5.098
14246TIP3    H142679   8.257   3.067   5.029
14246TIP3    H242680   8.111   3.092   5.062
14247TIP3   OH242681   7.620   2.407   3.682
14247TIP3    H142682   7.646   2.338   3.742
14247TIP3    H242683   7.648   2.376   3.596
14248TIP3   OH242684   4.596   0.707   1.799
14248TIP3    H142685   4.650   0.653   1.857
14248TIP3    H242686   4.506   0.685   1.823
14249TIP3   OH242687   1.031   5.412   5.102
14249TIP3    H142688   1.037   5.327   5.145
14249TIP3    H242689   1.068   5.473   5.166
14250TIP3   OH242690   2.357   7.834   3.180
14250TIP3    H142691   2.430   7.771   3.175
14250TIP3    H242692   2.320   7.819   3.267
14251TIP3   OH242693   5.227   4.004   6.703
14251TIP3    H142694   5.179   3.986   6.622
14251TIP3    H242695   5.260   3.918   6.731
14252TIP3   OH242696   3.351   7.351   2.965
14252TIP3    H142697   3.261   7.319   2.959
14252TIP3    H242698   3.403   7.272   2.983
14253TIP3   OH242699   1.676   6.047   4.925
14253TIP3    H142700   1.654   6.139   4.911
14253TIP3    H242701   1.687   6.038   5.020
14254TIP3   OH242702   1.571   3.865   2.213
14254TIP3    H142703   1.535   3.894   2.297
14254TIP3    H242704   1.631   3.936   2.187
14255TIP3   OH242705   3.416   0.329   5.421
14255TIP3    H142706   3.374   0.248   5.450
14255TIP3    H242707   3.446   0.371   5.501
14256TIP3   OH242708   7.945   1.992   3.144
14256TIP3    H142709   7.865   2.011   3.194
14256TIP3    H242710   7.996   2.073   3.150
14257TIP3   OH242711   2.686   1.209   5.688
14257TIP3    H142712   2.653   1.137   5.634
14257TIP3    H242713   2.779   1.190   5.699
14258TIP3   OH242714   4.392   7.564   4.992
14258TIP3    H142715   4.407   7.491   4.931
14258TIP3    H242716   4.323   7.533   5.050
14259TIP3   OH242717   7.177   6.423   6.385
14259TIP3    H142718   7.165   6.369   6.463
14259TIP3    H242719   7.268   6.450   6.388
14260TIP3   OH242720   3.205   6.611   3.999
14260TIP3    H142721   3.132   6.606   3.938
14260TIP3    H242722   3.281   6.631   3.944
14261TIP3   OH242723   4.987   1.223   0.346
14261TIP3    H142724   4.895   1.246   0.364
14261TIP3    H242725   5.011   1.278   0.272
14262TIP3   OH242726   7.876   0.413   2.710
14262TIP3    H142727   7.809   0.440   2.772
14262TIP3    H242728   7.959   0.425   2.758
14263TIP3   OH242729   6.284   3.993   1.775
14263TIP3    H142730   6.275   3.901   1.750
14263TIP3    H242731   6.197   4.020   1.801
14264TIP3   OH242732   4.777   5.708   3.945
14264TIP3    H142733   4.779   5.629   3.998
14264TIP3    H242734   4.863   5.712   3.904
14265TIP3   OH242735   4.773   4.678   0.756
14265TIP3    H142736   4.809   4.763   0.733
14265TIP3    H242737   4.683   4.680   0.721
14266TIP3   OH242738   1.523   0.277   3.983
14266TIP3    H142739   1.438   0.247   4.015
14266TIP3    H242740   1.508   0.369   3.960
14267TIP3   OH242741   8.333   6.561   0.497
14267TIP3    H142742   8.400   6.626   0.477
14267TIP3    H242743   8.257   6.589   0.446
14268TIP3   OH242744   5.922   2.603   5.668
14268TIP3    H142745   5.932   2.690   5.629
14268TIP3    H242746   5.865   2.556   5.607
14269TIP3   OH242747   8.154   1.535   2.339
14269TIP3    H142748   8.065   1.542   2.373
14269TIP3    H242749   8.210   1.543   2.416
14270TIP3   OH242750   4.034   3.628   2.090
14270TIP3    H142751   4.009   3.683   2.165
14270TIP3    H242752   4.074   3.688   2.028
14271TIP3   OH242753   0.209   6.847   5.457
14271TIP3    H142754   0.280   6.783   5.467
14271TIP3    H242755   0.206   6.893   5.540
14272TIP3   OH242756   4.362   5.215   2.416
14272TIP3    H142757   4.301   5.283   2.446
14272TIP3    H242758   4.337   5.137   2.467
14273TIP3   OH242759   8.205   6.876   5.599
14273TIP3    H142760   8.167   6.788   5.601
14273TIP3    H242761   8.294   6.863   5.565
14274TIP3   OH242762   4.678   4.776   4.671
14274TIP3    H142763   4.645   4.815   4.590
14274TIP3    H242764   4.769   4.806   4.677
14275TIP3   OH242765   3.400   5.168   1.363
14275TIP3    H142766   3.348   5.109   1.308
14275TIP3    H242767   3.354   5.252   1.357
14276TIP3   OH242768   2.399   7.488   1.686
14276TIP3    H142769   2.363   7.465   1.771
14276TIP3    H242770   2.390   7.583   1.680
14277TIP3   OH242771   3.804   7.527   6.382
14277TIP3    H142772   3.760   7.466   6.324
14277TIP3    H242773   3.838   7.473   6.453
14278TIP3   OH242774   7.195   2.168   6.210
14278TIP3    H142775   7.200   2.083   6.254
14278TIP3    H242776   7.122   2.160   6.149
14279TIP3   OH242777   4.946   7.053   6.379
14279TIP3    H142778   4.875   7.000   6.343
14279TIP3    H242779   5.004   6.989   6.420
14280TIP3   OH242780   2.753   6.948   2.335
14280TIP3    H142781   2.778   7.019   2.394
14280TIP3    H242782   2.657   6.944   2.342
14281TIP3   OH242783   7.838   3.333   4.642
14281TIP3    H142784   7.749   3.359   4.622
14281TIP3    H242785   7.866   3.284   4.564
14282TIP3   OH242786   6.316   2.181   2.846
14282TIP3    H142787   6.409   2.166   2.862
14282TIP3    H242788   6.272   2.143   2.922
14283TIP3   OH242789   5.102   4.452   6.454
14283TIP3    H142790   5.100   4.417   6.365
14283TIP3    H242791   5.087   4.546   6.444
14284TIP3   OH242792   4.663   6.703   1.088
14284TIP3    H142793   4.637   6.762   1.017
14284TIP3    H242794   4.622   6.740   1.166
14285TIP3   OH242795   6.097   5.402   1.575
14285TIP3    H142796   6.149   5.363   1.646
14285TIP3    H242797   6.025   5.341   1.561
14286TIP3   OH242798   4.718   0.501   3.342
14286TIP3    H142799   4.649   0.498   3.275
14286TIP3    H242800   4.716   0.414   3.382
14287TIP3   OH242801   4.209   2.591   1.608
14287TIP3    H142802   4.249   2.535   1.541
14287TIP3    H242803   4.129   2.544   1.633
14288TIP3   OH242804   7.901   0.751   2.818
14288TIP3    H142805   7.940   0.680   2.869
14288TIP3    H242806   7.929   0.734   2.728
14289TIP3   OH242807   2.174   6.412   4.803
14289TIP3    H142808   2.101   6.366   4.844
14289TIP3    H242809   2.161   6.396   4.709
14290TIP3   OH242810   4.249   1.112   3.409
14290TIP3    H142811   4.326   1.132   3.462
14290TIP3    H242812   4.176   1.154   3.455
14291TIP3   OH242813   6.192   5.560   5.071
14291TIP3    H142814   6.118   5.599   5.023
14291TIP3    H242815   6.188   5.467   5.051
14292TIP3   OH242816   0.949   5.521   2.873
14292TIP3    H142817   0.954   5.460   2.947
14292TIP3    H242818   1.000   5.597   2.900
14293TIP3   OH242819   6.265   1.902   2.790
14293TIP3    H142820   6.221   1.946   2.717
14293TIP3    H242821   6.235   1.948   2.868
14294TIP3   OH242822   5.740   5.749   6.398
14294TIP3    H142823   5.832   5.753   6.421
14294TIP3    H242824   5.736   5.787   6.310
14295TIP3   OH242825   5.626   7.749   2.551
14295TIP3    H142826   5.653   7.839   2.572
14295TIP3    H242827   5.708   7.699   2.553
14296TIP3   OH242828   0.106   3.217   6.519
14296TIP3    H142829   0.196   3.206   6.549
14296TIP3    H242830   0.115   3.261   6.434
14297TIP3   OH242831   0.821   0.246   4.360
14297TIP3    H142832   0.853   0.312   4.422
14297TIP3    H242833   0.897   0.189   4.345
14298TIP3   OH242834   1.094   6.287   1.086
14298TIP3    H142835   1.146   6.257   1.011
14298TIP3    H242836   1.020   6.227   1.089
14299TIP3   OH242837   0.479   2.208   4.119
14299TIP3    H142838   0.451   2.147   4.187
14299TIP3    H242839   0.397   2.241   4.081
14300TIP3   OH242840   8.355   1.825   3.890
14300TIP3    H142841   8.335   1.837   3.798
14300TIP3    H242842   8.384   1.734   3.897
14301TIP3   OH242843   1.244   1.144   2.280
14301TIP3    H142844   1.211   1.055   2.294
14301TIP3    H242845   1.294   1.139   2.198
14302TIP3   OH242846   4.102   5.719   0.338
14302TIP3    H142847   4.172   5.673   0.384
14302TIP3    H242848   4.085   5.664   0.261
14303TIP3   OH242849   4.103   3.549   3.572
14303TIP3    H142850   4.119   3.641   3.594
14303TIP3    H242851   4.032   3.523   3.632
14304TIP3   OH242852   4.765   4.793   6.307
14304TIP3    H142853   4.676   4.829   6.305
14304TIP3    H242854   4.753   4.699   6.290
14305TIP3   OH242855   7.378   6.505   0.321
14305TIP3    H142856   7.397   6.504   0.227
14305TIP3    H242857   7.349   6.416   0.340
14306TIP3   OH242858   0.370   0.175   1.655
14306TIP3    H142859   0.409   0.254   1.692
14306TIP3    H242860   0.279   0.177   1.685
14307TIP3   OH242861   3.710   2.958   1.470
14307TIP3    H142862   3.649   2.885   1.462
14307TIP3    H242863   3.775   2.928   1.533
14308TIP3   OH242864   2.880   6.102   2.234
14308TIP3    H142865   2.872   6.143   2.320
14308TIP3    H242866   2.962   6.051   2.240
14309TIP3   OH242867   7.218   0.879   5.447
14309TIP3    H142868   7.242   0.813   5.381
14309TIP3    H242869   7.125   0.894   5.433
14310TIP3   OH242870   0.331   0.739   4.672
14310TIP3    H142871   0.246   0.752   4.630
14310TIP3    H242872   0.328   0.794   4.750
14311TIP3   OH242873   3.225   1.301   4.618
14311TIP3    H142874   3.237   1.367   4.686
14311TIP3    H242875   3.204   1.351   4.539
14312TIP3   OH242876   1.562   4.869   0.200
14312TIP3    H142877   1.488   4.890   0.142
14312TIP3    H242878   1.535   4.789   0.244
14313TIP3   OH242879   2.599   2.430   3.975
14313TIP3    H142880   2.562   2.358   3.924
14313TIP3    H242881   2.668   2.466   3.919
14314TIP3   OH242882   6.093   6.712   6.675
14314TIP3    H142883   6.126   6.635   6.721
14314TIP3    H242884   6.093   6.781   6.741
14315TIP3   OH242885   2.026   0.462   4.829
14315TIP3    H142886   2.024   0.485   4.922
14315TIP3    H242887   1.973   0.382   4.823
14316TIP3   OH242888   2.744   7.018   4.230
14316TIP3    H142889   2.681   6.948   4.214
14316TIP3    H242890   2.828   6.973   4.239
14317TIP3   OH242891   6.168   3.810   2.333
14317TIP3    H142892   6.174   3.759   2.252
14317TIP3    H242893   6.250   3.791   2.379
14318TIP3   OH242894   0.100   2.851   5.996
14318TIP3    H142895   0.174   2.833   5.938
14318TIP3    H242896   0.024   2.820   5.948
14319TIP3   OH242897   3.070   4.363   0.260
14319TIP3    H142898   2.977   4.383   0.250
14319TIP3    H242899   3.112   4.448   0.274
14320TIP3   OH242900   7.453   3.362   0.748
14320TIP3    H142901   7.459   3.435   0.686
14320TIP3    H242902   7.458   3.403   0.834
14321TIP3   OH242903   6.522   5.877   4.572
14321TIP3    H142904   6.489   5.924   4.495
14321TIP3    H242905   6.516   5.785   4.548
14322TIP3   OH242906   2.038   5.552   0.272
14322TIP3    H142907   2.008   5.633   0.312
14322TIP3    H242908   1.976   5.485   0.302
14323TIP3   OH242909   0.730   1.903   0.159
14323TIP3    H142910   0.810   1.898   0.211
14323TIP3    H242911   0.738   1.830   0.097
14324TIP3   OH242912   6.547   4.390   2.400
14324TIP3    H142913   6.638   4.418   2.397
14324TIP3    H242914   6.530   4.352   2.314
14325TIP3   OH242915   8.251   4.284   0.962
14325TIP3    H142916   8.224   4.374   0.944
14325TIP3    H242917   8.316   4.291   1.031
14326TIP3   OH242918   6.649   0.659   1.311
14326TIP3    H142919   6.677   0.728   1.372
14326TIP3    H242920   6.625   0.706   1.231
14327TIP3   OH242921   0.694   7.006   1.980
14327TIP3    H142922   0.627   6.952   1.938
14327TIP3    H242923   0.710   6.962   2.064
14328TIP3   OH242924   4.478   3.718   1.546
14328TIP3    H142925   4.555   3.686   1.498
14328TIP3    H242926   4.490   3.686   1.635
14329TIP3   OH242927   6.079   0.412   5.916
14329TIP3    H142928   6.001   0.417   5.970
14329TIP3    H242929   6.070   0.483   5.853
14330TIP3   OH242930   6.051   5.291   1.851
14330TIP3    H142931   6.063   5.212   1.799
14330TIP3    H242932   6.116   5.284   1.921
14331TIP3   OH242933   1.835   2.736   3.711
14331TIP3    H142934   1.856   2.695   3.796
14331TIP3    H242935   1.777   2.809   3.733
14332TIP3   OH242936   3.200   2.174   1.431
14332TIP3    H142937   3.152   2.098   1.399
14332TIP3    H242938   3.240   2.212   1.353
14333TIP3   OH242939   1.095   0.678   0.060
14333TIP3    H142940   1.040   0.635   0.125
14333TIP3    H242941   1.159   0.727   0.111
14334TIP3   OH242942   4.487   2.987   0.476
14334TIP3    H142943   4.473   3.003   0.383
14334TIP3    H242944   4.581   2.970   0.484
14335TIP3   OH242945   1.674   6.097   0.643
14335TIP3    H142946   1.678   6.191   0.657
14335TIP3    H242947   1.630   6.062   0.721
14336TIP3   OH242948   7.904   1.857   2.775
14336TIP3    H142949   7.839   1.925   2.792
14336TIP3    H242950   7.939   1.878   2.688
14337TIP3   OH242951   7.313   5.386   1.861
14337TIP3    H142952   7.286   5.389   1.769
14337TIP3    H242953   7.385   5.324   1.863
14338TIP3   OH242954   0.700   7.780   1.234
14338TIP3    H142955   0.693   7.866   1.276
14338TIP3    H242956   0.614   7.741   1.246
14339TIP3   OH242957   5.278   6.379   5.948
14339TIP3    H142958   5.184   6.364   5.947
14339TIP3    H242959   5.296   6.425   5.866
14340TIP3   OH242960   2.295   2.938   1.834
14340TIP3    H142961   2.285   2.930   1.739
14340TIP3    H242962   2.367   2.879   1.856
14341TIP3   OH242963   3.866   5.976   3.293
14341TIP3    H142964   3.884   6.009   3.381
14341TIP3    H242965   3.952   5.969   3.252
14342TIP3   OH242966   0.403   0.887   6.353
14342TIP3    H142967   0.336   0.824   6.325
14342TIP3    H242968   0.476   0.833   6.383
14343TIP3   OH242969   1.118   3.984   5.643
14343TIP3    H142970   1.083   3.903   5.681
14343TIP3    H242971   1.169   3.954   5.568
14344TIP3   OH242972   5.367   5.111   6.381
14344TIP3    H142973   5.395   5.156   6.461
14344TIP3    H242974   5.419   5.151   6.311
14345TIP3   OH242975   6.106   0.873   1.807
14345TIP3    H142976   6.150   0.791   1.784
14345TIP3    H242977   6.018   0.846   1.833
14346TIP3   OH242978   3.478   5.286   3.921
14346TIP3    H142979   3.564   5.261   3.886
14346TIP3    H242980   3.497   5.351   3.988
14347TIP3   OH242981   3.856   0.743   5.159
14347TIP3    H142982   3.933   0.777   5.205
14347TIP3    H242983   3.886   0.662   5.118
14348TIP3   OH242984   1.979   3.751   3.944
14348TIP3    H142985   1.980   3.731   4.038
14348TIP3    H242986   2.016   3.673   3.903
14349TIP3   OH242987   4.654   0.624   0.608
14349TIP3    H142988   4.656   0.702   0.663
14349TIP3    H242989   4.708   0.559   0.655
14350TIP3   OH242990   0.911   6.470   1.503
14350TIP3    H142991   0.941   6.561   1.503
14350TIP3    H242992   0.893   6.450   1.412
14351TIP3   OH242993   6.851   7.330   2.257
14351TIP3    H142994   6.873   7.240   2.236
14351TIP3    H242995   6.910   7.383   2.202
14352TIP3   OH242996   4.829   3.638   4.398
14352TIP3    H142997   4.749   3.685   4.375
14352TIP3    H242998   4.803   3.579   4.469
14353TIP3   OH242999   2.732   7.250   5.271
14353TIP3    H143000   2.789   7.189   5.225
14353TIP3    H243001   2.757   7.336   5.238
14354TIP3   OH243002   2.488   1.995   3.563
14354TIP3    H143003   2.457   1.959   3.646
14354TIP3    H243004   2.547   1.928   3.528
14355TIP3   OH243005   0.344   7.550   2.400
14355TIP3    H143006   0.400   7.566   2.325
14355TIP3    H243007   0.257   7.537   2.363
14356TIP3   OH243008   3.978   5.703   1.267
14356TIP3    H143009   4.063   5.735   1.298
14356TIP3    H243010   3.922   5.707   1.344
14357TIP3   OH243011   8.173   4.775   4.955
14357TIP3    H143012   8.242   4.712   4.931
14357TIP3    H243013   8.172   4.775   5.051
14358TIP3   OH243014   6.202   3.352   2.937
14358TIP3    H143015   6.288   3.318   2.961
14358TIP3    H243016   6.188   3.426   2.996
14359TIP3   OH243017   7.969   3.831   1.432
14359TIP3    H143018   7.901   3.892   1.403
14359TIP3    H243019   8.037   3.836   1.365
14360TIP3   OH243020   1.516   3.061   5.521
14360TIP3    H143021   1.543   3.023   5.437
14360TIP3    H243022   1.438   3.011   5.546
14361TIP3   OH243023   0.191   4.390   1.446
14361TIP3    H143024   0.169   4.417   1.357
14361TIP3    H243025   0.286   4.403   1.452
14362TIP3   OH243026   1.453   1.862   3.033
14362TIP3    H143027   1.424   1.953   3.041
14362TIP3    H243028   1.371   1.812   3.028
14363TIP3   OH243029   3.434   3.624   0.186
14363TIP3    H143030   3.441   3.533   0.160
14363TIP3    H243031   3.357   3.657   0.139
14364TIP3   OH243032   5.490   3.185   5.045
14364TIP3    H143033   5.559   3.173   4.980
14364TIP3    H243034   5.408   3.178   4.996
14365TIP3   OH243035   3.984   1.046   5.113
14365TIP3    H143036   3.940   0.968   5.146
14365TIP3    H243037   4.014   1.092   5.192
14366TIP3   OH243038   0.767   6.468   3.622
14366TIP3    H143039   0.689   6.503   3.579
14366TIP3    H243040   0.784   6.528   3.694
14367TIP3   OH243041   3.783   6.242   0.397
14367TIP3    H143042   3.807   6.275   0.310
14367TIP3    H243043   3.866   6.214   0.436
14368TIP3   OH243044   6.411   6.731   1.588
14368TIP3    H143045   6.385   6.797   1.524
14368TIP3    H243046   6.488   6.768   1.631
14369TIP3   OH243047   7.444   2.398   4.404
14369TIP3    H143048   7.411   2.341   4.474
14369TIP3    H243049   7.389   2.375   4.328
14370TIP3   OH243050   0.330   0.475   0.251
14370TIP3    H143051   0.361   0.461   0.340
14370TIP3    H243052   0.292   0.391   0.225
14371TIP3   OH243053   7.126   7.030   0.704
14371TIP3    H143054   7.138   7.063   0.793
14371TIP3    H243055   7.087   6.943   0.716
14372TIP3   OH243056   6.684   5.305   2.977
14372TIP3    H143057   6.592   5.299   2.952
14372TIP3    H243058   6.714   5.214   2.982
14373TIP3   OH243059   2.820   6.519   1.880
14373TIP3    H143060   2.853   6.510   1.969
14373TIP3    H243061   2.833   6.433   1.840
14374TIP3   OH243062   5.777   5.216   2.101
14374TIP3    H143063   5.712   5.256   2.159
14374TIP3    H243064   5.797   5.285   2.037
14375TIP3   OH243065   5.628   4.159   6.209
14375TIP3    H143066   5.541   4.158   6.170
14375TIP3    H243067   5.687   4.131   6.139
14376TIP3   OH243068   5.754   0.401   1.941
14376TIP3    H143069   5.718   0.355   2.017
14376TIP3    H243070   5.847   0.377   1.941
14377TIP3   OH243071   0.768   4.397   5.230
14377TIP3    H143072   0.687   4.413   5.182
14377TIP3    H243073   0.745   4.409   5.322
14378TIP3   OH243074   0.989   5.197   1.823
14378TIP3    H143075   1.031   5.204   1.737
14378TIP3    H243076   0.925   5.268   1.824
14379TIP3   OH243077   5.171   0.218   3.289
14379TIP3    H143078   5.111   0.191   3.358
14379TIP3    H243079   5.128   0.292   3.248
14380TIP3   OH243080   8.017   5.802   5.353
14380TIP3    H143081   7.961   5.757   5.290
14380TIP3    H243082   7.980   5.890   5.359
14381TIP3   OH243083   0.087   1.848   0.724
14381TIP3    H143084   0.154   1.795   0.682
14381TIP3    H243085   0.069   1.803   0.806
14382TIP3   OH243086   6.529   5.538   4.307
14382TIP3    H143087   6.511   5.565   4.217
14382TIP3    H243088   6.442   5.529   4.347
14383TIP3   OH243089   0.842   0.612   5.481
14383TIP3    H143090   0.860   0.666   5.558
14383TIP3    H243091   0.874   0.525   5.504
14384TIP3   OH243092   6.736   5.761   1.297
14384TIP3    H143093   6.779   5.714   1.369
14384TIP3    H243094   6.731   5.852   1.328
14385TIP3   OH243095   1.618   5.535   1.789
14385TIP3    H143096   1.644   5.551   1.880
14385TIP3    H243097   1.587   5.444   1.789
14386TIP3   OH243098   5.820   6.635   6.618
14386TIP3    H143099   5.903   6.629   6.666
14386TIP3    H243100   5.830   6.574   6.545
14387TIP3   OH243101   4.485   4.150   1.596
14387TIP3    H143102   4.487   4.105   1.680
14387TIP3    H243103   4.419   4.104   1.545
14388TIP3   OH243104   4.165   0.966   4.880
14388TIP3    H143105   4.215   1.043   4.853
14388TIP3    H243106   4.116   0.994   4.957
14389TIP3   OH243107   7.129   3.764   3.049
14389TIP3    H143108   7.217   3.753   3.086
14389TIP3    H243109   7.107   3.856   3.067
14390TIP3   OH243110   5.351   4.472   5.296
14390TIP3    H143111   5.301   4.539   5.249
14390TIP3    H243112   5.355   4.398   5.236
14391TIP3   OH243113   1.236   5.130   5.003
14391TIP3    H143114   1.204   5.043   5.028
14391TIP3    H243115   1.235   5.129   4.907
14392TIP3   OH243116   0.419   5.380   3.115
14392TIP3    H143117   0.422   5.444   3.186
14392TIP3    H243118   0.398   5.297   3.158
14393TIP3   OH243119   3.669   5.192   3.481
14393TIP3    H143120   3.601   5.210   3.416
14393TIP3    H243121   3.749   5.230   3.444
14394TIP3   OH243122   4.154   1.845   1.733
14394TIP3    H143123   4.134   1.853   1.640
14394TIP3    H243124   4.243   1.810   1.736
14395TIP3   OH243125   2.417   6.196   0.941
14395TIP3    H143126   2.396   6.165   0.852
14395TIP3    H243127   2.441   6.116   0.988
14396TIP3   OH243128   7.674   7.567   3.056
14396TIP3    H143129   7.751   7.535   3.010
14396TIP3    H243130   7.692   7.660   3.071
14397TIP3   OH243131   3.862   7.219   5.541
14397TIP3    H143132   3.801   7.171   5.485
14397TIP3    H243133   3.846   7.184   5.628
14398TIP3   OH243134   2.218   5.588   3.702
14398TIP3    H143135   2.159   5.611   3.630
14398TIP3    H243136   2.238   5.495   3.687
14399TIP3   OH243137   3.336   6.356   1.186
14399TIP3    H143138   3.260   6.404   1.219
14399TIP3    H243139   3.334   6.273   1.233
14400TIP3   OH243140   2.599   7.545   1.166
14400TIP3    H143141   2.629   7.526   1.078
14400TIP3    H243142   2.667   7.509   1.223
14401TIP3   OH243143   1.274   5.573   1.177
14401TIP3    H143144   1.250   5.481   1.163
14401TIP3    H243145   1.193   5.614   1.206
14402TIP3   OH243146   8.216   4.015   2.499
14402TIP3    H143147   8.206   3.949   2.430
14402TIP3    H243148   8.137   4.005   2.552
14403TIP3   OH243149   2.981   6.912   4.214
14403TIP3    H143150   3.007   6.906   4.122
14403TIP3    H243151   3.062   6.897   4.263
14404TIP3   OH243152   1.915   1.923   2.110
14404TIP3    H143153   1.991   1.961   2.153
14404TIP3    H243154   1.930   1.938   2.016
14405TIP3   OH243155   5.358   3.503   1.714
14405TIP3    H143156   5.418   3.576   1.732
14405TIP3    H243157   5.381   3.475   1.626
14406TIP3   OH243158   1.855   2.150   5.708
14406TIP3    H143159   1.832   2.064   5.744
14406TIP3    H243160   1.774   2.180   5.667
14407TIP3   OH243161   8.149   5.978   4.900
14407TIP3    H143162   8.244   5.985   4.898
14407TIP3    H243163   8.120   6.063   4.933
14408TIP3   OH243164   1.699   0.653   0.942
14408TIP3    H143165   1.606   0.637   0.925
14408TIP3    H243166   1.703   0.742   0.977
14409TIP3   OH243167   5.387   2.513   2.961
14409TIP3    H143168   5.388   2.550   3.049
14409TIP3    H243169   5.382   2.418   2.975
14410TIP3   OH243170   2.016   3.769   1.797
14410TIP3    H143171   2.022   3.861   1.824
14410TIP3    H243172   2.079   3.723   1.853
14411TIP3   OH243173   7.720   4.376   2.396
14411TIP3    H143174   7.731   4.381   2.301
14411TIP3    H243175   7.625   4.378   2.409
14412TIP3   OH243176   1.361   7.132   1.358
14412TIP3    H143177   1.280   7.169   1.393
14412TIP3    H243178   1.398   7.082   1.431
14413TIP3   OH243179   1.199   3.989   0.907
14413TIP3    H143180   1.166   4.049   0.840
14413TIP3    H243181   1.154   4.015   0.987
14414TIP3   OH243182   6.260   4.418   3.404
14414TIP3    H143183   6.351   4.392   3.393
14414TIP3    H243184   6.265   4.509   3.435
14415TIP3   OH243185   6.629   1.849   6.591
14415TIP3    H143186   6.575   1.875   6.665
14415TIP3    H243187   6.566   1.828   6.522
14416TIP3   OH243188   5.251   5.231   0.325
14416TIP3    H143189   5.295   5.189   0.252
14416TIP3    H243190   5.165   5.189   0.329
14417TIP3   OH243191   5.624   3.386   5.169
14417TIP3    H143192   5.607   3.366   5.261
14417TIP3    H243193   5.629   3.300   5.126
14418TIP3   OH243194   2.552   5.706   3.971
14418TIP3    H143195   2.472   5.749   3.941
14418TIP3    H243196   2.556   5.625   3.920
14419TIP3   OH243197   0.545   6.197   6.818
14419TIP3    H143198   0.626   6.168   6.861
14419TIP3    H243199   0.509   6.117   6.780
14420TIP3   OH243200   3.259   0.151   4.223
14420TIP3    H143201   3.203   0.174   4.149
14420TIP3    H243202   3.279   0.234   4.265
14421TIP3   OH243203   6.588   3.412   4.369
14421TIP3    H143204   6.658   3.453   4.419
14421TIP3    H243205   6.634   3.356   4.305
14422TIP3   OH243206   0.997   6.209   4.495
14422TIP3    H143207   0.965   6.270   4.561
14422TIP3    H243208   1.073   6.252   4.456
14423TIP3   OH243209   0.475   2.998   3.752
14423TIP3    H143210   0.474   3.078   3.805
14423TIP3    H243211   0.519   3.024   3.671
14424TIP3   OH243212   2.005   1.561   5.762
14424TIP3    H143213   2.012   1.505   5.685
14424TIP3    H243214   1.924   1.533   5.805
14425TIP3   OH243215   5.798   3.576   4.590
14425TIP3    H143216   5.740   3.574   4.513
14425TIP3    H243217   5.829   3.486   4.599
14426TIP3   OH243218   7.984   6.484   2.111
14426TIP3    H143219   7.981   6.474   2.016
14426TIP3    H243220   8.053   6.548   2.126
14427TIP3   OH243221   1.739   3.104   2.715
14427TIP3    H143222   1.643   3.095   2.717
14427TIP3    H243223   1.761   3.141   2.800
14428TIP3   OH243224   5.219   6.892   3.112
14428TIP3    H143225   5.149   6.924   3.055
14428TIP3    H243226   5.300   6.915   3.066
14429TIP3   OH243227   5.482   1.888   2.807
14429TIP3    H143228   5.561   1.894   2.754
14429TIP3    H243229   5.445   1.803   2.786
14430TIP3   OH243230   6.281   2.691   2.052
14430TIP3    H143231   6.333   2.768   2.077
14430TIP3    H243232   6.265   2.646   2.135
14431TIP3   OH243233   4.244  -0.004   3.617
14431TIP3    H143234   4.297  -0.030   3.692
14431TIP3    H243235   4.304  -0.010   3.543
14432TIP3   OH243236   1.696   5.369   2.508
14432TIP3    H143237   1.672   5.282   2.477
14432TIP3    H243238   1.637   5.428   2.462
14433TIP3   OH243239   0.563   4.035   4.766
14433TIP3    H143240   0.566   3.984   4.847
14433TIP3    H243241   0.626   4.106   4.780
14434TIP3   OH243242   5.801   1.453   2.156
14434TIP3    H143243   5.800   1.541   2.120
14434TIP3    H243244   5.740   1.456   2.230
14435TIP3   OH243245   4.992   6.693   0.906
14435TIP3    H143246   5.022   6.755   0.973
14435TIP3    H243247   5.066   6.633   0.894
14436TIP3   OH243248   4.595   5.809   3.329
14436TIP3    H143249   4.582   5.764   3.413
14436TIP3    H243250   4.684   5.786   3.303
14437TIP3   OH243251   4.272   7.797   2.282
14437TIP3    H143252   4.271   7.722   2.341
14437TIP3    H243253   4.360   7.797   2.244
14438TIP3   OH243254   7.932   5.430   0.400
14438TIP3    H143255   7.948   5.524   0.414
14438TIP3    H243256   7.913   5.424   0.306
14439TIP3   OH243257   3.419   5.443   6.867
14439TIP3    H143258   3.327   5.416   6.866
14439TIP3    H243259   3.468   5.360   6.864
14440TIP3   OH243260   2.660   6.957   2.943
14440TIP3    H143261   2.616   7.017   2.882
14440TIP3    H243262   2.589   6.924   2.999
14441TIP3   OH243263   5.561   3.235   1.358
14441TIP3    H143264   5.602   3.217   1.442
14441TIP3    H243265   5.589   3.163   1.301
14442TIP3   OH243266   4.111   5.441   0.874
14442TIP3    H143267   4.055   5.517   0.886
14442TIP3    H243268   4.095   5.413   0.784
14443TIP3   OH243269   4.985   3.603   0.193
14443TIP3    H143270   4.963   3.660   0.267
14443TIP3    H243271   4.958   3.653   0.116
14444TIP3   OH243272   5.406   2.290   3.578
14444TIP3    H143273   5.362   2.362   3.533
14444TIP3    H243274   5.491   2.326   3.602
14445TIP3   OH243275   7.537   0.808   6.331
14445TIP3    H143276   7.581   0.869   6.272
14445TIP3    H243277   7.534   0.854   6.415
14446TIP3   OH243278   8.221   3.439   0.433
14446TIP3    H143279   8.256   3.394   0.510
14446TIP3    H243280   8.168   3.510   0.468
14447TIP3   OH243281   6.695   2.791   2.499
14447TIP3    H143282   6.728   2.806   2.588
14447TIP3    H243283   6.719   2.870   2.451
14448TIP3   OH243284   4.627   2.148   5.001
14448TIP3    H143285   4.714   2.186   5.016
14448TIP3    H243286   4.613   2.158   4.907
14449TIP3   OH243287   2.210   2.390   3.531
14449TIP3    H143288   2.289   2.348   3.494
14449TIP3    H243289   2.225   2.390   3.625
14450TIP3   OH243290   6.909   1.984   5.669
14450TIP3    H143291   6.989   2.025   5.700
14450TIP3    H243292   6.886   1.920   5.737
14451TIP3   OH243293   8.220   3.517   0.943
14451TIP3    H143294   8.202   3.425   0.923
14451TIP3    H243295   8.164   3.567   0.884
14452TIP3   OH243296   8.034   1.720   5.296
14452TIP3    H143297   8.014   1.718   5.389
14452TIP3    H243298   8.129   1.706   5.292
14453TIP3   OH243299   8.112   2.382   0.213
14453TIP3    H143300   8.079   2.343   0.294
14453TIP3    H243301   8.193   2.335   0.194
14454TIP3   OH243302   7.989   4.198   0.965
14454TIP3    H143303   8.082   4.220   0.959
14454TIP3    H243304   7.988   4.109   1.000
14455TIP3   OH243305   6.159   1.238   6.643
14455TIP3    H143306   6.190   1.293   6.571
14455TIP3    H243307   6.124   1.301   6.707
14456TIP3   OH243308   3.929   2.254   6.232
14456TIP3    H143309   4.015   2.231   6.267
14456TIP3    H243310   3.868   2.203   6.285
14457TIP3   OH243311   5.577   1.448   6.339
14457TIP3    H143312   5.600   1.423   6.429
14457TIP3    H243313   5.537   1.534   6.348
14458TIP3   OH243314   0.526   0.052   2.420
14458TIP3    H143315   0.603   0.051   2.478
14458TIP3    H243316   0.562   0.036   2.333
14459TIP3   OH243317   5.540   6.534   0.719
14459TIP3    H143318   5.447   6.516   0.732
14459TIP3    H243319   5.585   6.473   0.778
14460TIP3   OH243320   6.172   7.467   4.540
14460TIP3    H143321   6.153   7.545   4.591
14460TIP3    H243322   6.158   7.493   4.449
14461TIP3   OH243323   8.043   2.264   4.061
14461TIP3    H143324   8.050   2.194   3.997
14461TIP3    H243325   7.963   2.311   4.037
14462TIP3   OH243326   0.183   4.182   1.626
14462TIP3    H143327   0.215   4.249   1.567
14462TIP3    H243328   0.088   4.186   1.618
14463TIP3   OH243329   5.717   0.189   4.288
14463TIP3    H143330   5.740   0.273   4.327
14463TIP3    H243331   5.754   0.124   4.347
14464TIP3   OH243332   3.941   3.325   0.283
14464TIP3    H143333   3.893   3.270   0.344
14464TIP3    H243334   3.978   3.264   0.219
14465TIP3   OH243335   3.741   1.159   0.588
14465TIP3    H143336   3.719   1.215   0.513
14465TIP3    H243337   3.780   1.219   0.652
14466TIP3   OH243338   7.079   5.304   2.106
14466TIP3    H143339   7.069   5.399   2.113
14466TIP3    H243340   7.125   5.291   2.022
14467TIP3   OH243341   1.368   1.453   4.403
14467TIP3    H143342   1.419   1.422   4.478
14467TIP3    H243343   1.323   1.375   4.371
14468TIP3   OH243344   5.909   2.342   3.451
14468TIP3    H143345   5.959   2.424   3.458
14468TIP3    H243346   5.903   2.310   3.540
14469TIP3   OH243347   5.302   1.086   5.098
14469TIP3    H143348   5.379   1.143   5.091
14469TIP3    H243349   5.336   0.998   5.085
14470TIP3   OH243350   1.456   0.166   2.242
14470TIP3    H143351   1.412   0.086   2.272
14470TIP3    H243352   1.386   0.223   2.213
14471TIP3   OH243353   3.078   4.933   1.513
14471TIP3    H143354   2.996   4.896   1.479
14471TIP3    H243355   3.065   5.027   1.509
14472TIP3   OH243356   1.252   6.173   0.659
14472TIP3    H143357   1.263   6.238   0.589
14472TIP3    H243358   1.342   6.147   0.681
14473TIP3   OH243359   4.550   3.898   2.798
14473TIP3    H143360   4.562   3.831   2.730
14473TIP3    H243361   4.529   3.978   2.750
14474TIP3   OH243362   4.941   2.403   0.545
14474TIP3    H143363   4.855   2.443   0.559
14474TIP3    H243364   4.923   2.311   0.526
14475TIP3   OH243365   5.070   6.596   0.077
14475TIP3    H143366   5.148   6.602   0.132
14475TIP3    H243367   5.091   6.529   0.013
14476TIP3   OH243368   3.077   4.563   1.490
14476TIP3    H143369   3.143   4.497   1.508
14476TIP3    H243370   3.067   4.562   1.395
14477TIP3   OH243371   2.979   5.737   0.538
14477TIP3    H143372   2.974   5.830   0.561
14477TIP3    H243373   2.908   5.696   0.588
14478TIP3   OH243374   0.736   0.925   2.628
14478TIP3    H143375   0.672   0.900   2.694
14478TIP3    H243376   0.798   0.852   2.625
14479TIP3   OH243377   8.357   7.848   4.069
14479TIP3    H143378   8.299   7.903   4.122
14479TIP3    H243379   8.376   7.902   3.992
14480TIP3   OH243380   1.791   5.488   1.166
14480TIP3    H143381   1.739   5.505   1.244
14480TIP3    H243382   1.800   5.573   1.124
14481TIP3   OH243383   7.737   0.308   5.950
14481TIP3    H143384   7.751   0.287   5.857
14481TIP3    H243385   7.777   0.395   5.961
14482TIP3   OH243386   6.950   2.657   4.842
14482TIP3    H143387   7.028   2.676   4.789
14482TIP3    H243388   6.984   2.613   4.920
14483TIP3   OH243389   3.405   2.188   4.800
14483TIP3    H143390   3.377   2.217   4.713
14483TIP3    H243391   3.383   2.095   4.803
14484TIP3   OH243392   5.810   2.202   1.538
14484TIP3    H143393   5.724   2.231   1.566
14484TIP3    H243394   5.863   2.204   1.618
14485TIP3   OH243395   7.798   0.977   3.346
14485TIP3    H143396   7.888   1.007   3.340
14485TIP3    H243397   7.802   0.882   3.332
14486TIP3   OH243398   2.046   0.283   0.295
14486TIP3    H143399   2.003   0.248   0.372
14486TIP3    H243400   2.041   0.213   0.230
14487TIP3   OH243401   0.013   0.892   6.462
14487TIP3    H143402   0.027   0.975   6.417
14487TIP3    H243403   0.078   0.833   6.423
14488TIP3   OH243404   6.919   0.556   3.805
14488TIP3    H143405   6.925   0.634   3.751
14488TIP3    H243406   6.974   0.574   3.881
14489TIP3   OH243407   3.602   1.853   5.250
14489TIP3    H143408   3.684   1.897   5.267
14489TIP3    H243409   3.542   1.922   5.222
14490TIP3   OH243410   4.206   7.646   3.977
14490TIP3    H143411   4.154   7.725   3.988
14490TIP3    H243412   4.293   7.677   3.952
14491TIP3   OH243413   7.810   6.388   6.470
14491TIP3    H143414   7.847   6.462   6.422
14491TIP3    H243415   7.875   6.318   6.458
14492TIP3   OH243416   3.215   0.558   5.812
14492TIP3    H143417   3.293   0.534   5.762
14492TIP3    H243418   3.151   0.490   5.791
14493TIP3   OH243419   3.225   2.662   1.451
14493TIP3    H143420   3.137   2.644   1.418
14493TIP3    H243421   3.245   2.750   1.420
14494TIP3   OH243422   6.526   4.449   3.033
14494TIP3    H143423   6.511   4.543   3.044
14494TIP3    H243424   6.601   4.430   3.091
14495TIP3   OH243425   7.772   3.267   0.306
14495TIP3    H143426   7.866   3.283   0.311
14495TIP3    H243427   7.744   3.311   0.225
14496TIP3   OH243428   5.984   2.845  -0.014
14496TIP3    H143429   6.036   2.851   0.066
14496TIP3    H243430   5.904   2.800   0.013
14497TIP3   OH243431   8.270   0.946   0.657
14497TIP3    H143432   8.272   0.851   0.659
14497TIP3    H243433   8.325   0.972   0.732
14498TIP3   OH243434   6.754   1.096   4.267
14498TIP3    H143435   6.668   1.067   4.296
14498TIP3    H243436   6.810   1.019   4.278
14499TIP3   OH243437   6.167   2.298   1.909
14499TIP3    H143438   6.175   2.293   2.004
14499TIP3    H243439   6.257   2.310   1.878
14500TIP3   OH243440   1.324   0.023   2.617
14500TIP3    H143441   1.252   0.022   2.680
14500TIP3    H243442   1.316  -0.059   2.569
14501TIP3   OH243443   1.630   6.323   5.489
14501TIP3    H143444   1.552   6.372   5.464
14501TIP3    H243445   1.703   6.377   5.457
14502TIP3   OH243446   5.875   1.119   3.463
14502TIP3    H143447   5.942   1.057   3.436
14502TIP3    H243448   5.869   1.181   3.390
14503TIP3   OH243449   1.841   0.664   0.587
14503TIP3    H143450   1.801   0.624   0.665
14503TIP3    H243451   1.927   0.693   0.617
14504TIP3   OH243452   2.804   3.332   4.489
14504TIP3    H143453   2.823   3.292   4.574
14504TIP3    H243454   2.729   3.390   4.506
14505TIP3   OH243455   1.920   0.804   2.262
14505TIP3    H143456   1.982   0.741   2.225
14505TIP3    H243457   1.971   0.854   2.326
14506TIP3   OH243458   4.499   6.991   4.791
14506TIP3    H143459   4.463   6.925   4.732
14506TIP3    H243460   4.422   7.038   4.824
14507TIP3   OH243461   5.862   3.535   5.507
14507TIP3    H143462   5.795   3.488   5.555
14507TIP3    H243463   5.833   3.627   5.507
14508TIP3   OH243464   0.667   6.373   5.647
14508TIP3    H143465   0.709   6.440   5.594
14508TIP3    H243466   0.575   6.375   5.620
14509TIP3   OH243467   7.684   4.043   3.711
14509TIP3    H143468   7.713   4.135   3.719
14509TIP3    H243469   7.739   3.996   3.773
14510TIP3   OH243470   5.074   6.252   5.489
14510TIP3    H143471   5.019   6.276   5.563
14510TIP3    H243472   5.013   6.243   5.416
14511TIP3   OH243473   4.983   0.611   1.617
14511TIP3    H143474   5.074   0.600   1.644
14511TIP3    H243475   4.987   0.668   1.540
14512TIP3   OH243476   6.148   6.539   1.072
14512TIP3    H143477   6.182   6.472   1.132
14512TIP3    H243478   6.198   6.618   1.095
14513TIP3   OH243479   1.408   4.439   3.255
14513TIP3    H143480   1.362   4.420   3.173
14513TIP3    H243481   1.394   4.360   3.309
14514TIP3   OH243482   6.007   5.936   4.151
14514TIP3    H143483   6.093   5.910   4.186
14514TIP3    H243484   5.995   5.879   4.075
14515TIP3   OH243485   0.886   7.028   0.129
14515TIP3    H143486   0.806   7.078   0.116
14515TIP3    H243487   0.956   7.086   0.098
14516TIP3   OH243488   0.546   0.544   0.097
14516TIP3    H143489   0.466   0.594   0.081
14516TIP3    H243490   0.604   0.568   0.024
14517TIP3   OH243491   4.740   6.462   6.279
14517TIP3    H143492   4.646   6.446   6.287
14517TIP3    H243493   4.774   6.385   6.234
14518TIP3   OH243494   5.509   1.837   0.079
14518TIP3    H143495   5.481   1.813   0.167
14518TIP3    H243496   5.445   1.796   0.021
14519TIP3   OH243497   6.522   3.664   3.249
14519TIP3    H143498   6.468   3.720   3.193
14519TIP3    H243499   6.584   3.724   3.290
14520TIP3   OH243500   2.004   7.201   3.863
14520TIP3    H143501   2.047   7.274   3.819
14520TIP3    H243502   2.075   7.147   3.897
14521TIP3   OH243503   5.284   5.068   2.627
14521TIP3    H143504   5.247   5.061   2.539
14521TIP3    H243505   5.219   5.118   2.677
14522TIP3   OH243506   0.765   5.892   5.247
14522TIP3    H143507   0.739   5.896   5.155
14522TIP3    H243508   0.725   5.970   5.286
14523TIP3   OH243509   3.495   1.261   4.913
14523TIP3    H143510   3.486   1.355   4.927
14523TIP3    H243511   3.412   1.224   4.944
14524TIP3   OH243512   2.698   1.655   2.398
14524TIP3    H143513   2.790   1.675   2.414
14524TIP3    H243514   2.659   1.738   2.372
14525TIP3   OH243515   7.893   2.622   1.687
14525TIP3    H143516   7.800   2.643   1.700
14525TIP3    H243517   7.921   2.677   1.614
14526TIP3   OH243518   2.740   4.922   1.060
14526TIP3    H143519   2.648   4.945   1.055
14526TIP3    H243520   2.785   5.006   1.068
14527TIP3   OH243521   0.771   7.770   3.615
14527TIP3    H143522   0.831   7.782   3.542
14527TIP3    H243523   0.813   7.813   3.689
14528TIP3   OH243524   0.295   6.813   4.332
14528TIP3    H143525   0.215   6.789   4.380
14528TIP3    H243526   0.353   6.738   4.346
14529TIP3   OH243527  -0.014   1.180   6.823
14529TIP3    H143528   0.036   1.220   6.894
14529TIP3    H243529   0.046   1.117   6.784
14530TIP3   OH243530   8.246   2.225   4.632
14530TIP3    H143531   8.163   2.239   4.677
14530TIP3    H243532   8.234   2.144   4.583
14531TIP3   OH243533   1.081   0.426   0.253
14531TIP3    H143534   0.988   0.435   0.230
14531TIP3    H243535   1.115   0.361   0.191
14532TIP3   OH243536   4.504   5.977   5.852
14532TIP3    H143537   4.466   5.968   5.939
14532TIP3    H243538   4.445   6.036   5.805
14533TIP3   OH243539   4.936   2.325   1.901
14533TIP3    H143540   4.934   2.415   1.868
14533TIP3    H243541   4.966   2.333   1.992
14534TIP3   OH243542   4.599   4.270   3.954
14534TIP3    H143543   4.593   4.358   3.917
14534TIP3    H243544   4.681   4.271   4.005
14535TIP3   OH243545   8.132   0.119   3.958
14535TIP3    H143546   8.132   0.065   4.037
14535TIP3    H243547   8.209   0.175   3.967
14536TIP3   OH243548   5.020   1.882   6.634
14536TIP3    H143549   5.066   1.799   6.626
14536TIP3    H243550   5.050   1.919   6.717
14537TIP3   OH243551   3.114   0.378   3.285
14537TIP3    H143552   3.106   0.289   3.321
14537TIP3    H243553   3.208   0.387   3.267
14538TIP3   OH243554   4.905   6.704   1.230
14538TIP3    H143555   4.932   6.793   1.208
14538TIP3    H243556   4.832   6.685   1.171
14539TIP3   OH243557   8.346   2.542   6.716
14539TIP3    H143558   8.345   2.462   6.664
14539TIP3    H243559   8.284   2.525   6.787
14540TIP3   OH243560   5.834   0.255   0.354
14540TIP3    H143561   5.780   0.203   0.294
14540TIP3    H243562   5.876   0.191   0.410
14541TIP3   OH243563   8.256   7.522   3.756
14541TIP3    H143564   8.306   7.455   3.711
14541TIP3    H243565   8.166   7.510   3.725
14542TIP3   OH243566   0.073   6.783   4.479
14542TIP3    H143567   0.073   6.867   4.523
14542TIP3    H243568   0.031   6.723   4.541
14543TIP3   OH243569   2.009   5.928   1.567
14543TIP3    H143570   2.087   5.874   1.557
14543TIP3    H243571   1.978   5.910   1.656
14544TIP3   OH243572   6.933   0.820   1.949
14544TIP3    H143573   6.925   0.736   1.994
14544TIP3    H243574   6.942   0.884   2.019
14545TIP3   OH243575   6.148   1.831   1.716
14545TIP3    H143576   6.221   1.816   1.776
14545TIP3    H243577   6.140   1.749   1.667
14546TIP3   OH243578   6.695   1.120   0.428
14546TIP3    H143579   6.789   1.110   0.444
14546TIP3    H243580   6.658   1.136   0.515
14547TIP3   OH243581   4.302   6.563   6.709
14547TIP3    H143582   4.384   6.546   6.662
14547TIP3    H243583   4.286   6.657   6.695
14548TIP3   OH243584   0.742   2.541   1.341
14548TIP3    H143585   0.785   2.458   1.358
14548TIP3    H243586   0.651   2.526   1.366
14549TIP3   OH243587   4.396   3.978   5.309
14549TIP3    H143588   4.404   3.899   5.363
14549TIP3    H243589   4.477   4.025   5.323
14550TIP3   OH243590   0.974   3.941   6.581
14550TIP3    H143591   0.998   3.853   6.609
14550TIP3    H243592   1.057   3.986   6.568
14551TIP3   OH243593   1.834   5.147   3.835
14551TIP3    H143594   1.877   5.095   3.768
14551TIP3    H243595   1.905   5.176   3.892
14552TIP3   OH243596   5.021   3.318   0.736
14552TIP3    H143597   4.967   3.391   0.708
14552TIP3    H243598   5.080   3.301   0.663
14553TIP3   OH243599   0.821   1.850   6.182
14553TIP3    H143600   0.887   1.876   6.245
14553TIP3    H243601   0.818   1.754   6.188
14554TIP3   OH243602   0.138   3.322   2.985
14554TIP3    H143603   0.123   3.400   3.038
14554TIP3    H243604   0.094   3.339   2.902
14555TIP3   OH243605   1.623   0.346   4.678
14555TIP3    H143606   1.707   0.300   4.676
14555TIP3    H243607   1.565   0.288   4.727
14556TIP3   OH243608   7.476   5.849   2.565
14556TIP3    H143609   7.389   5.873   2.596
14556TIP3    H243610   7.477   5.754   2.566
14557TIP3   OH243611   2.755   1.430   6.159
14557TIP3    H143612   2.704   1.410   6.237
14557TIP3    H243613   2.764   1.345   6.114
14558TIP3   OH243614   2.492   4.295   0.390
14558TIP3    H143615   2.448   4.380   0.379
14558TIP3    H243616   2.552   4.309   0.463
14559TIP3   OH243617   2.040   1.184   3.763
14559TIP3    H143618   2.033   1.280   3.756
14559TIP3    H243619   2.129   1.165   3.733
14560TIP3   OH243620   5.123   6.630   3.492
14560TIP3    H143621   5.187   6.578   3.444
14560TIP3    H243622   5.057   6.654   3.426
14561TIP3   OH243623   3.799   7.783   1.218
14561TIP3    H143624   3.849   7.771   1.137
14561TIP3    H243625   3.861   7.761   1.288
14562TIP3   OH243626   6.364   1.306   5.526
14562TIP3    H143627   6.289   1.247   5.521
14562TIP3    H243628   6.440   1.249   5.516
14563TIP3   OH243629   7.321   5.243   1.334
14563TIP3    H143630   7.279   5.324   1.307
14563TIP3    H243631   7.383   5.223   1.264
14564TIP3   OH243632   6.108   7.329   5.605
14564TIP3    H143633   6.062   7.279   5.672
14564TIP3    H243634   6.051   7.324   5.528
14565TIP3   OH243635   2.576   4.521   4.745
14565TIP3    H143636   2.646   4.522   4.811
14565TIP3    H243637   2.613   4.569   4.671
14566TIP3   OH243638   2.641   7.208   4.852
14566TIP3    H143639   2.602   7.290   4.881
14566TIP3    H243640   2.635   7.210   4.757
14567TIP3   OH243641   6.013   3.706   0.546
14567TIP3    H143642   5.990   3.711   0.454
14567TIP3    H243643   5.979   3.786   0.584
14568TIP3   OH243644   2.228   0.723   0.076
14568TIP3    H143645   2.181   0.668   0.138
14568TIP3    H243646   2.222   0.677  -0.008
14569TIP3   OH243647   6.337   7.310   3.721
14569TIP3    H143648   6.306   7.400   3.722
14569TIP3    H243649   6.328   7.282   3.630
14570TIP3   OH243650   6.692   1.211   3.989
14570TIP3    H143651   6.690   1.177   4.079
14570TIP3    H243652   6.726   1.138   3.937
14571TIP3   OH243653   7.278   6.764   3.333
14571TIP3    H143654   7.336   6.768   3.409
14571TIP3    H243655   7.263   6.670   3.319
14572TIP3   OH243656   7.051   6.387   3.078
14572TIP3    H143657   7.119   6.454   3.088
14572TIP3    H243658   7.066   6.350   2.991
14573TIP3   OH243659   7.719   6.536   2.168
14573TIP3    H143660   7.701   6.579   2.085
14573TIP3    H243661   7.814   6.541   2.178
14574TIP3   OH243662   6.436   7.293   1.837
14574TIP3    H143663   6.363   7.262   1.890
14574TIP3    H243664   6.513   7.283   1.894
14575TIP3   OH243665   0.620   5.777   1.846
14575TIP3    H143666   0.641   5.788   1.939
14575TIP3    H243667   0.537   5.731   1.845
14576TIP3   OH243668   4.594   4.241   4.769
14576TIP3    H143669   4.585   4.272   4.678
14576TIP3    H243670   4.510   4.263   4.810
14577TIP3   OH243671   4.952   5.532   6.184
14577TIP3    H143672   5.001   5.613   6.169
14577TIP3    H243673   4.861   5.561   6.195
14578TIP3   OH243674   2.155   1.574   3.455
14578TIP3    H143675   2.148   1.658   3.409
14578TIP3    H243676   2.072   1.566   3.503
14579TIP3   OH243677   0.446   1.408   3.612
14579TIP3    H143678   0.448   1.428   3.518
14579TIP3    H243679   0.354   1.393   3.631
14580TIP3   OH243680   3.556   6.654   5.851
14580TIP3    H143681   3.649   6.633   5.854
14580TIP3    H243682   3.544   6.721   5.918
14581TIP3   OH243683   7.828   2.859   3.352
14581TIP3    H143684   7.846   2.952   3.367
14581TIP3    H243685   7.855   2.844   3.261
14582TIP3   OH243686   7.708   6.705   5.707
14582TIP3    H143687   7.747   6.737   5.626
14582TIP3    H243688   7.666   6.622   5.683
14583TIP3   OH243689   4.409   3.129   6.568
14583TIP3    H143690   4.361   3.083   6.499
14583TIP3    H243691   4.438   3.060   6.627
14584TIP3   OH243692   5.782   1.629   2.463
14584TIP3    H143693   5.710   1.567   2.455
14584TIP3    H243694   5.849   1.584   2.515
14585TIP3   OH243695   1.675   2.325   3.782
14585TIP3    H143696   1.742   2.282   3.728
14585TIP3    H243697   1.646   2.257   3.842
14586TIP3   OH243698   2.127   6.993   2.776
14586TIP3    H143699   2.069   6.958   2.844
14586TIP3    H243700   2.164   6.916   2.734
14587TIP3   OH243701   5.766   6.293   3.099
14587TIP3    H143702   5.785   6.277   3.191
14587TIP3    H243703   5.784   6.387   3.086
14588TIP3   OH243704   1.676   0.194   1.819
14588TIP3    H143705   1.727   0.120   1.852
14588TIP3    H243706   1.707   0.269   1.871
14589TIP3   OH243707   2.341   4.053   5.691
14589TIP3    H143708   2.262   4.007   5.721
14589TIP3    H243709   2.310   4.109   5.620
14590TIP3   OH243710   2.056   5.197   1.431
14590TIP3    H143711   1.995   5.227   1.498
14590TIP3    H243712   2.130   5.160   1.481
14591TIP3   OH243713   6.426   7.367   1.569
14591TIP3    H143714   6.398   7.282   1.534
14591TIP3    H243715   6.446   7.349   1.661
14592TIP3   OH243716   4.709   2.853   1.660
14592TIP3    H143717   4.631   2.806   1.688
14592TIP3    H243718   4.739   2.805   1.582
14593TIP3   OH243719   1.578   7.682   2.031
14593TIP3    H143720   1.662   7.699   1.988
14593TIP3    H243721   1.602   7.641   2.114
14594TIP3   OH243722   0.962   4.796   4.937
14594TIP3    H143723   0.873   4.765   4.922
14594TIP3    H243724   1.011   4.718   4.964
14595TIP3   OH243725   2.080   1.907   4.519
14595TIP3    H143726   2.158   1.882   4.469
14595TIP3    H243727   2.021   1.833   4.508
14596TIP3   OH243728   2.992   0.267   2.749
14596TIP3    H143729   2.968   0.200   2.685
14596TIP3    H243730   2.917   0.326   2.751
14597TIP3   OH243731   6.220   5.786   4.704
14597TIP3    H143732   6.314   5.767   4.707
14597TIP3    H243733   6.216   5.881   4.687
14598TIP3   OH243734   2.272   6.683   4.834
14598TIP3    H143735   2.264   6.593   4.801
14598TIP3    H243736   2.241   6.678   4.924
14599TIP3   OH243737   5.609   0.266   1.586
14599TIP3    H143738   5.651   0.352   1.582
14599TIP3    H243739   5.605   0.237   1.494
14600TIP3   OH243740   0.611   7.910   0.541
14600TIP3    H143741   0.663   7.990   0.529
14600TIP3    H243742   0.667   7.840   0.510
14601TIP3   OH243743   5.094   1.505   2.439
14601TIP3    H143744   5.032   1.578   2.427
14601TIP3    H243745   5.169   1.528   2.385
14602TIP3   OH243746   1.370   6.244   5.175
14602TIP3    H143747   1.333   6.332   5.188
14602TIP3    H243748   1.452   6.259   5.128
14603TIP3   OH243749   8.320   2.594   0.748
14603TIP3    H143750   8.237   2.548   0.759
14603TIP3    H243751   8.379   2.530   0.709
14604TIP3   OH243752   0.715   7.788   6.348
14604TIP3    H143753   0.779   7.809   6.279
14604TIP3    H243754   0.640   7.844   6.328
14605TIP3   OH243755   4.615   3.266   0.568
14605TIP3    H143756   4.657   3.182   0.549
14605TIP3    H243757   4.662   3.330   0.514
14606TIP3   OH243758   5.511   3.963   2.211
14606TIP3    H143759   5.532   4.012   2.132
14606TIP3    H243760   5.584   3.902   2.221
14607TIP3   OH243761   4.692   2.198   1.868
14607TIP3    H143762   4.776   2.244   1.869
14607TIP3    H243763   4.637   2.250   1.810
14608TIP3   OH243764   4.423   1.746   1.759
14608TIP3    H143765   4.434   1.669   1.703
14608TIP3    H243766   4.446   1.820   1.703
14609TIP3   OH243767   1.931   6.176   6.047
14609TIP3    H143768   1.854   6.229   6.028
14609TIP3    H243769   1.990   6.192   5.974
14610TIP3   OH243770   1.132   0.029   5.673
14610TIP3    H143771   1.051   0.074   5.647
14610TIP3    H243772   1.186   0.031   5.594
14611TIP3   OH243773   3.719   1.942   2.956
14611TIP3    H143774   3.743   1.916   2.867
14611TIP3    H243775   3.794   1.993   2.988
14612TIP3   OH243776   5.614   1.570   3.053
14612TIP3    H143777   5.552   1.532   3.114
14612TIP3    H243778   5.617   1.663   3.076
14613TIP3   OH243779   3.676   5.747   4.588
14613TIP3    H143780   3.618   5.689   4.538
14613TIP3    H243781   3.636   5.834   4.579
14614TIP3   OH243782   7.885   7.705   2.832
14614TIP3    H143783   7.918   7.615   2.836
14614TIP3    H243784   7.963   7.759   2.821
14615TIP3   OH243785   6.722   3.577   6.362
14615TIP3    H143786   6.647   3.626   6.395
14615TIP3    H243787   6.749   3.625   6.283
14616TIP3   OH243788   2.594   7.406   3.604
14616TIP3    H143789   2.663   7.412   3.538
14616TIP3    H243790   2.546   7.326   3.582
14617TIP3   OH243791   1.027   4.350   4.138
14617TIP3    H143792   1.004   4.275   4.193
14617TIP3    H243793   0.943   4.385   4.108
14618TIP3   OH243794   2.447   5.139   4.013
14618TIP3    H143795   2.517   5.075   4.006
14618TIP3    H243796   2.386   5.101   4.076
14619TIP3   OH243797   3.497   6.169   2.959
14619TIP3    H143798   3.488   6.230   3.032
14619TIP3    H243799   3.446   6.208   2.888
14620TIP3   OH243800   8.267   6.620   1.562
14620TIP3    H143801   8.298   6.556   1.498
14620TIP3    H243802   8.280   6.577   1.646
14621TIP3   OH243803   7.902   0.030   1.895
14621TIP3    H143804   7.981   0.018   1.948
14621TIP3    H243805   7.910  -0.034   1.825
14622TIP3   OH243806   5.399   2.195   1.066
14622TIP3    H143807   5.447   2.274   1.094
14622TIP3    H243808   5.467   2.134   1.037
14623TIP3   OH243809   6.205   2.062   3.056
14623TIP3    H143810   6.192   1.979   3.101
14623TIP3    H243811   6.239   2.121   3.123
14624TIP3   OH243812   1.906   2.299   4.994
14624TIP3    H143813   1.913   2.207   5.018
14624TIP3    H243814   1.951   2.305   4.910
14625TIP3   OH243815   7.215   3.279   5.930
14625TIP3    H143816   7.136   3.239   5.965
14625TIP3    H243817   7.242   3.222   5.859
14626TIP3   OH243818   7.491   4.944   0.997
14626TIP3    H143819   7.540   5.002   0.939
14626TIP3    H243820   7.434   4.894   0.938
14627TIP3   OH243821   5.966   2.068   2.816
14627TIP3    H143822   6.018   2.112   2.883
14627TIP3    H243823   5.961   1.977   2.846
14628TIP3   OH243824   5.877   7.521   6.081
14628TIP3    H143825   5.790   7.507   6.045
14628TIP3    H243826   5.918   7.583   6.021
14629TIP3   OH243827   3.601   3.522   5.827
14629TIP3    H143828   3.694   3.540   5.811
14629TIP3    H243829   3.595   3.427   5.827
14630TIP3   OH243830   7.413   1.583   0.190
14630TIP3    H143831   7.488   1.531   0.221
14630TIP3    H243832   7.339   1.522   0.192
14631TIP3   OH243833   4.005   1.536   6.552
14631TIP3    H143834   4.006   1.508   6.643
14631TIP3    H243835   3.923   1.500   6.517
14632TIP3   OH243836   5.598   5.007   4.652
14632TIP3    H143837   5.619   4.968   4.567
14632TIP3    H243838   5.681   5.039   4.685
14633TIP3   OH243839   5.488   1.019   6.615
14633TIP3    H143840   5.564   0.964   6.596
14633TIP3    H243841   5.418   0.985   6.559
14634TIP3   OH243842   5.893   7.532   0.834
14634TIP3    H143843   5.988   7.525   0.836
14634TIP3    H243844   5.877   7.626   0.826
14635TIP3   OH243845   0.343   1.660   5.412
14635TIP3    H143846   0.431   1.688   5.387
14635TIP3    H243847   0.329   1.697   5.499
14636TIP3   OH243848   3.154   2.914   3.128
14636TIP3    H143849   3.126   2.823   3.140
14636TIP3    H243850   3.244   2.916   3.161
14637TIP3   OH243851   4.488   3.232   5.213
14637TIP3    H143852   4.478   3.301   5.148
14637TIP3    H243853   4.515   3.155   5.163
14638TIP3   OH243854   0.737   2.692   5.617
14638TIP3    H143855   0.648   2.700   5.584
14638TIP3    H243856   0.727   2.664   5.708
14639TIP3   OH243857   0.851   5.932   6.176
14639TIP3    H143858   0.908   5.962   6.247
14639TIP3    H243859   0.821   5.845   6.205
14640TIP3   OH243860   4.913   6.533   2.402
14640TIP3    H143861   4.951   6.617   2.378
14640TIP3    H243862   4.899   6.539   2.497
14641TIP3   OH243863   3.111   2.376   6.479
14641TIP3    H143864   3.092   2.415   6.393
14641TIP3    H243865   3.078   2.287   6.473
14642TIP3   OH243866   6.434   5.500   0.567
14642TIP3    H143867   6.425   5.572   0.630
14642TIP3    H243868   6.425   5.541   0.481
14643TIP3   OH243869   6.199   4.562   1.912
14643TIP3    H143870   6.209   4.502   1.986
14643TIP3    H243871   6.202   4.506   1.835
14644TIP3   OH243872   0.605   5.746   1.180
14644TIP3    H143873   0.616   5.692   1.258
14644TIP3    H243874   0.522   5.792   1.195
14645TIP3   OH243875   3.812   4.496   1.461
14645TIP3    H143876   3.875   4.519   1.529
14645TIP3    H243877   3.855   4.520   1.379
14646TIP3   OH243878   8.335   1.385   4.768
14646TIP3    H143879   8.250   1.425   4.749
14646TIP3    H243880   8.346   1.395   4.863
14647TIP3   OH243881   0.512   7.509   1.256
14647TIP3    H143882   0.440   7.559   1.216
14647TIP3    H243883   0.478   7.484   1.342
14648TIP3   OH243884   6.031   3.430   0.215
14648TIP3    H143885   6.065   3.519   0.218
14648TIP3    H243886   6.082   3.387   0.146
14649TIP3   OH243887   2.118   7.338   3.335
14649TIP3    H143888   2.212   7.327   3.350
14649TIP3    H243889   2.100   7.287   3.256
14650TIP3   OH243890   0.419   4.304   1.981
14650TIP3    H143891   0.443   4.251   2.057
14650TIP3    H243892   0.381   4.241   1.920
14651TIP3   OH243893   2.908   5.128   1.236
14651TIP3    H143894   2.831   5.096   1.284
14651TIP3    H243895   2.883   5.217   1.209
14652TIP3   OH243896   3.328   4.666   1.014
14652TIP3    H143897   3.295   4.702   1.097
14652TIP3    H243898   3.252   4.669   0.955
14653TIP3   OH243899   5.574   2.244   6.165
14653TIP3    H143900   5.551   2.332   6.135
14653TIP3    H243901   5.661   2.254   6.202
14654TIP3   OH243902   2.403   5.469   0.610
14654TIP3    H143903   2.382   5.446   0.519
14654TIP3    H243904   2.344   5.416   0.662
14655TIP3   OH243905   7.021   4.360   6.752
14655TIP3    H143906   7.091   4.346   6.689
14655TIP3    H243907   6.950   4.399   6.702
14656TIP3   OH243908   3.736   7.270   2.377
14656TIP3    H143909   3.664   7.302   2.323
14656TIP3    H243910   3.721   7.306   2.464
14657TIP3   OH243911   6.730   7.774   2.799
14657TIP3    H143912   6.688   7.764   2.885
14657TIP3    H243913   6.801   7.710   2.800
14658TIP3   OH243914   3.900   2.901   0.834
14658TIP3    H143915   3.949   2.894   0.752
14658TIP3    H243916   3.899   2.995   0.853
14659TIP3   OH243917   6.063   2.540   1.177
14659TIP3    H143918   6.146   2.584   1.160
14659TIP3    H243919   6.009   2.560   1.100
14660TIP3   OH243920   0.783   1.996   2.735
14660TIP3    H143921   0.723   1.924   2.755
14660TIP3    H243922   0.726   2.072   2.721
14661TIP3   OH243923   3.190   1.644   3.170
14661TIP3    H143924   3.209   1.687   3.253
14661TIP3    H243925   3.239   1.694   3.105
14662TIP3   OH243926   4.990   2.843   6.695
14662TIP3    H143927   4.970   2.749   6.690
14662TIP3    H243928   4.926   2.884   6.636
14663TIP3   OH243929   7.401   4.746   3.608
14663TIP3    H143930   7.318   4.774   3.571
14663TIP3    H243931   7.448   4.707   3.535
14664TIP3   OH243932   5.347   1.325   4.099
14664TIP3    H143933   5.427   1.275   4.086
14664TIP3    H243934   5.359   1.405   4.048
14665TIP3   OH243935   3.909   1.570   2.827
14665TIP3    H143936   3.970   1.625   2.778
14665TIP3    H243937   3.865   1.519   2.760
14666TIP3   OH243938   5.605   0.966   4.217
14666TIP3    H143939   5.692   1.005   4.226
14666TIP3    H243940   5.546   1.032   4.252
14667TIP3   OH243941   3.563   5.926   2.850
14667TIP3    H143942   3.531   6.014   2.869
14667TIP3    H243943   3.623   5.906   2.923
14668TIP3   OH243944   0.199   1.677   2.909
14668TIP3    H143945   0.222   1.763   2.944
14668TIP3    H243946   0.106   1.666   2.929
14669TIP3   OH243947   5.597   6.694   1.541
14669TIP3    H143948   5.657   6.681   1.468
14669TIP3    H243949   5.545   6.771   1.517
14670TIP3   OH243950   0.894   6.438   6.336
14670TIP3    H143951   0.849   6.431   6.420
14670TIP3    H243952   0.932   6.526   6.336
14671TIP3   OH243953   0.449   6.792   4.645
14671TIP3    H143954   0.419   6.882   4.649
14671TIP3    H243955   0.381   6.742   4.690
14672TIP3   OH243956   7.905   2.842   6.656
14672TIP3    H143957   7.836   2.909   6.656
14672TIP3    H243958   7.949   2.853   6.741
14673TIP3   OH243959   6.656   1.284   4.743
14673TIP3    H143960   6.703   1.356   4.701
14673TIP3    H243961   6.720   1.213   4.748
14674TIP3   OH243962   4.122   7.196   2.971
14674TIP3    H143963   4.195   7.246   3.009
14674TIP3    H243964   4.160   7.154   2.894
14675TIP3   OH243965   1.298   0.334   1.060
14675TIP3    H143966   1.342   0.377   1.133
14675TIP3    H243967   1.314   0.241   1.075
14676TIP3   OH243968   6.169   6.469   6.428
14676TIP3    H143969   6.078   6.497   6.418
14676TIP3    H243970   6.193   6.433   6.342
14677TIP3   OH243971   7.115   4.022   5.753
14677TIP3    H143972   7.136   4.022   5.659
14677TIP3    H243973   7.151   4.105   5.786
14678TIP3   OH243974   5.781   4.538   0.057
14678TIP3    H143975   5.809   4.447   0.043
14678TIP3    H243976   5.726   4.559  -0.018
14679TIP3   OH243977   4.399   7.249   5.235
14679TIP3    H143978   4.334   7.319   5.222
14679TIP3    H243979   4.363   7.174   5.188
14680TIP3   OH243980   8.215   5.466   2.057
14680TIP3    H143981   8.126   5.436   2.072
14680TIP3    H243982   8.218   5.553   2.096
14681TIP3   OH243983   6.940   3.800   1.774
14681TIP3    H143984   7.025   3.819   1.813
14681TIP3    H243985   6.935   3.857   1.698
14682TIP3   OH243986   4.898   5.803   3.117
14682TIP3    H143987   4.928   5.749   3.043
14682TIP3    H243988   4.891   5.741   3.190
14683TIP3   OH243989   0.087   4.865   3.921
14683TIP3    H143990   0.026   4.917   3.868
14683TIP3    H243991   0.172   4.905   3.904
14684TIP3   OH243992   7.692   2.796   0.996
14684TIP3    H143993   7.624   2.807   0.930
14684TIP3    H243994   7.676   2.709   1.033
14685TIP3   OH243995   1.861   5.941   4.118
14685TIP3    H143996   1.932   5.978   4.065
14685TIP3    H243997   1.906   5.902   4.193
14686TIP3   OH243998   1.662   5.504   3.490
14686TIP3    H143999   1.726   5.537   3.554
14686TIP3    H244000   1.596   5.573   3.484
14687TIP3   OH244001   6.181   2.879   6.004
14687TIP3    H144002   6.167   2.867   6.098
14687TIP3    H244003   6.259   2.935   5.998
14688TIP3   OH244004   5.075   2.423   1.547
14688TIP3    H144005   5.036   2.498   1.503
14688TIP3    H244006   5.118   2.459   1.625
14689TIP3   OH244007   3.760   5.856   6.127
14689TIP3    H144008   3.681   5.902   6.153
14689TIP3    H244009   3.738   5.763   6.133
14690TIP3   OH244010   0.335   4.947   3.826
14690TIP3    H144011   0.406   5.011   3.823
14690TIP3    H244012   0.366   4.874   3.773
14691TIP3   OH244013   7.182   2.939   3.548
14691TIP3    H144014   7.175   3.034   3.554
14691TIP3    H244015   7.093   2.910   3.527
14692TIP3   OH244016   7.210   5.344   0.155
14692TIP3    H144017   7.253   5.406   0.095
14692TIP3    H244018   7.116   5.358   0.140
14693TIP3   OH244019   1.848   4.593   1.576
14693TIP3    H144020   1.789   4.668   1.582
14693TIP3    H244021   1.893   4.592   1.661
14694TIP3   OH244022   4.662   0.553   5.007
14694TIP3    H144023   4.677   0.599   4.924
14694TIP3    H244024   4.744   0.506   5.023
14695TIP3   OH244025   4.012   0.428   1.391
14695TIP3    H144026   4.095   0.381   1.389
14695TIP3    H244027   3.988   0.437   1.299
14696TIP3   OH244028   3.813   7.581   0.325
14696TIP3    H144029   3.892   7.623   0.358
14696TIP3    H244030   3.837   7.488   0.317
14697TIP3   OH244031   4.305   5.100   0.327
14697TIP3    H144032   4.302   5.196   0.326
14697TIP3    H244033   4.279   5.074   0.239
14698TIP3   OH244034   5.270   2.000   6.358
14698TIP3    H144035   5.316   1.917   6.350
14698TIP3    H244036   5.315   2.059   6.298
14699TIP3   OH244037   6.985   6.639   6.779
14699TIP3    H144038   6.970   6.569   6.715
14699TIP3    H244039   7.050   6.602   6.839
14700TIP3   OH244040   5.028   7.186   5.873
14700TIP3    H144041   4.960   7.143   5.924
14700TIP3    H244042   5.011   7.159   5.783
14701TIP3   OH244043   1.848   3.426   3.074
14701TIP3    H144044   1.921   3.400   3.018
14701TIP3    H244045   1.883   3.495   3.129
14702TIP3   OH244046   6.356   4.377   2.845
14702TIP3    H144047   6.413   4.321   2.791
14702TIP3    H244048   6.415   4.415   2.910
14703TIP3   OH244049   0.927   0.985   1.603
14703TIP3    H144050   0.965   0.994   1.690
14703TIP3    H244051   0.861   0.917   1.613
14704TIP3   OH244052   5.007   0.563   2.965
14704TIP3    H144053   4.942   0.621   2.925
14704TIP3    H244054   5.081   0.563   2.904
14705TIP3   OH244055   0.896   4.287   0.553
14705TIP3    H144056   0.880   4.195   0.537
14705TIP3    H244057   0.818   4.318   0.598
14706TIP3   OH244058   8.411   2.860   0.760
14706TIP3    H144059   8.370   2.780   0.726
14706TIP3    H244060   8.446   2.834   0.846
14707TIP3   OH244061   1.003   5.996   0.672
14707TIP3    H144062   0.977   5.939   0.599
14707TIP3    H244063   1.071   6.053   0.636
14708TIP3   OH244064   7.616   2.120   4.767
14708TIP3    H144065   7.656   2.036   4.746
14708TIP3    H244066   7.538   2.124   4.711
14709TIP3   OH244067   6.172   7.118   6.218
14709TIP3    H144068   6.146   7.195   6.167
14709TIP3    H244069   6.118   7.122   6.296
14710TIP3   OH244070   4.406   4.581   1.137
14710TIP3    H144071   4.378   4.504   1.187
14710TIP3    H244072   4.417   4.548   1.047
14711TIP3   OH244073   1.977   3.631   5.825
14711TIP3    H144074   1.996   3.540   5.849
14711TIP3    H244075   1.978   3.678   5.908
14712TIP3   OH244076   3.381   7.833   1.721
14712TIP3    H144077   3.456   7.779   1.746
14712TIP3    H244078   3.348   7.792   1.641
14713TIP3   OH244079   0.057   6.800   2.115
14713TIP3    H144080   0.101   6.715   2.106
14713TIP3    H244081   0.067   6.841   2.029
14714TIP3   OH244082   2.682   2.937   3.630
14714TIP3    H144083   2.713   2.941   3.721
14714TIP3    H244084   2.762   2.931   3.578
14715TIP3   OH244085   0.288   6.594   0.308
14715TIP3    H144086   0.221   6.662   0.319
14715TIP3    H244087   0.252   6.536   0.242
14716TIP3   OH244088   7.068   3.089   0.498
14716TIP3    H144089   7.062   3.091   0.402
14716TIP3    H244090   7.049   2.999   0.522
14717TIP3   OH244091   5.668   4.846   2.253
14717TIP3    H144092   5.746   4.791   2.240
14717TIP3    H244093   5.619   4.837   2.171
14718TIP3   OH244094   7.795   5.103   3.704
14718TIP3    H144095   7.723   5.142   3.753
14718TIP3    H244096   7.805   5.016   3.740
14719TIP3   OH244097   3.584   6.889   5.971
14719TIP3    H144098   3.615   6.914   6.058
14719TIP3    H244099   3.490   6.906   5.973
14720TIP3   OH244100   4.227   4.207   2.095
14720TIP3    H144101   4.315   4.177   2.072
14720TIP3    H244102   4.238   4.247   2.182
14721TIP3   OH244103   5.041   4.837   3.839
14721TIP3    H144104   5.008   4.811   3.925
14721TIP3    H244105   5.136   4.842   3.850
14722TIP3   OH244106   6.382   1.306   3.080
14722TIP3    H144107   6.297   1.338   3.110
14722TIP3    H244108   6.372   1.211   3.077
14723TIP3   OH244109   7.513   4.653   5.075
14723TIP3    H144110   7.440   4.607   5.116
14723TIP3    H244111   7.591   4.618   5.119
14724TIP3   OH244112   8.047   3.523   6.693
14724TIP3    H144113   8.112   3.466   6.652
14724TIP3    H244114   8.096   3.603   6.715
14725TIP3   OH244115   6.412   0.468   3.504
14725TIP3    H144116   6.461   0.440   3.427
14725TIP3    H244117   6.357   0.392   3.526
14726TIP3   OH244118   1.471   7.954   2.354
14726TIP3    H144119   1.416   7.961   2.276
14726TIP3    H244120   1.468   7.861   2.377
14727TIP3   OH244121   6.430   3.383   1.259
14727TIP3    H144122   6.402   3.395   1.350
14727TIP3    H244123   6.507   3.439   1.251
14728TIP3   OH244124   1.963   1.441   1.273
14728TIP3    H144125   1.898   1.504   1.242
14728TIP3    H244126   1.958   1.369   1.210
14729TIP3   OH244127   4.122   2.832   5.532
14729TIP3    H144128   4.082   2.908   5.575
14729TIP3    H244129   4.107   2.847   5.439
14730TIP3   OH244130   0.845   4.132   3.885
14730TIP3    H144131   0.851   4.093   3.797
14730TIP3    H244132   0.838   4.057   3.944
14731TIP3   OH244133   2.515   4.292   2.260
14731TIP3    H144134   2.514   4.387   2.272
14731TIP3    H244135   2.528   4.280   2.166
14732TIP3   OH244136   2.146   3.238   2.254
14732TIP3    H144137   2.070   3.205   2.206
14732TIP3    H244138   2.108   3.290   2.325
14733TIP3   OH244139   1.379   1.748   0.920
14733TIP3    H144140   1.364   1.673   0.862
14733TIP3    H244141   1.448   1.798   0.877
14734TIP3   OH244142   2.691   5.053   1.423
14734TIP3    H144143   2.675   5.007   1.505
14734TIP3    H244144   2.615   5.032   1.369
14735TIP3   OH244145   4.224   4.239   0.544
14735TIP3    H144146   4.240   4.263   0.636
14735TIP3    H244147   4.310   4.212   0.511
14736TIP3   OH244148   5.219   4.660   3.286
14736TIP3    H144149   5.254   4.583   3.331
14736TIP3    H244150   5.245   4.648   3.195
14737TIP3   OH244151   6.831   4.121   4.891
14737TIP3    H144152   6.775   4.063   4.943
14737TIP3    H244153   6.916   4.078   4.889
14738TIP3   OH244154   5.463   4.368   2.862
14738TIP3    H144155   5.451   4.303   2.793
14738TIP3    H244156   5.409   4.442   2.835
14739TIP3   OH244157   2.504   0.273   0.626
14739TIP3    H144158   2.425   0.276   0.572
14739TIP3    H244159   2.519   0.364   0.653
14740TIP3   OH244160   3.994   5.099   0.358
14740TIP3    H144161   4.029   5.010   0.359
14740TIP3    H244162   3.982   5.121   0.450
14741TIP3   OH244163   1.609   1.362   4.168
14741TIP3    H144164   1.607   1.332   4.259
14741TIP3    H244165   1.664   1.298   4.123
14742TIP3   OH244166   3.968   0.437   3.505
14742TIP3    H144167   4.025   0.456   3.579
14742TIP3    H244168   3.894   0.497   3.515
14743TIP3   OH244169   1.943   6.624   4.845
14743TIP3    H144170   1.965   6.553   4.785
14743TIP3    H244171   2.002   6.612   4.919
14744TIP3   OH244172   7.891   3.482   0.741
14744TIP3    H144173   7.842   3.401   0.757
14744TIP3    H244174   7.966   3.454   0.689
14745TIP3   OH244175   1.379   6.510   3.618
14745TIP3    H144176   1.398   6.475   3.705
14745TIP3    H244177   1.462   6.546   3.588
14746TIP3   OH244178   4.065   0.384   0.477
14746TIP3    H144179   4.160   0.374   0.469
14746TIP3    H244180   4.053   0.447   0.548
14747TIP3   OH244181   8.006   4.615   6.381
14747TIP3    H144182   8.078   4.663   6.422
14747TIP3    H244183   7.946   4.683   6.350
14748TIP3   OH244184   7.450   4.423   4.646
14748TIP3    H144185   7.473   4.331   4.634
14748TIP3    H244186   7.356   4.421   4.669
14749TIP3   OH244187   4.211   4.663   6.175
14749TIP3    H144188   4.172   4.613   6.247
14749TIP3    H244189   4.304   4.641   6.178
14750TIP3   OH244190   2.460   6.423   1.131
14750TIP3    H144191   2.446   6.342   1.083
14750TIP3    H244192   2.489   6.395   1.217
14751TIP3   OH244193   2.923   6.261   6.064
14751TIP3    H144194   2.956   6.316   6.135
14751TIP3    H244195   2.999   6.215   6.031
14752TIP3   OH244196   6.039   1.139   2.567
14752TIP3    H144197   6.037   1.055   2.614
14752TIP3    H244198   5.988   1.123   2.488
14753TIP3   OH244199   1.665   4.495   2.132
14753TIP3    H144200   1.636   4.508   2.042
14753TIP3    H244201   1.629   4.570   2.180
14754TIP3   OH244202   4.061   1.756   2.304
14754TIP3    H144203   4.086   1.674   2.262
14754TIP3    H244204   4.099   1.751   2.392
14755TIP3   OH244205   7.699   3.169   2.697
14755TIP3    H144206   7.684   3.176   2.791
14755TIP3    H244207   7.621   3.210   2.658
14756TIP3   OH244208   4.450   4.109   3.743
14756TIP3    H144209   4.504   4.143   3.814
14756TIP3    H244210   4.478   4.018   3.733
14757TIP3   OH244211   3.545   3.229   4.403
14757TIP3    H144212   3.620   3.265   4.452
14757TIP3    H244213   3.475   3.293   4.416
14758TIP3   OH244214   5.798   0.716   4.684
14758TIP3    H144215   5.704   0.727   4.674
14758TIP3    H244216   5.834   0.737   4.598
14759TIP3   OH244217   6.072   1.057   6.009
14759TIP3    H144218   6.155   1.103   6.019
14759TIP3    H244219   6.076   0.987   6.075
14760TIP3   OH244220   8.319   6.631   2.965
14760TIP3    H144221   8.316   6.543   3.001
14760TIP3    H244222   8.256   6.681   3.018
14761TIP3   OH244223   2.966   7.023   2.637
14761TIP3    H144224   2.977   6.934   2.602
14761TIP3    H244225   2.879   7.050   2.605
14762TIP3   OH244226   1.236   0.983   4.925
14762TIP3    H144227   1.315   1.025   4.960
14762TIP3    H244228   1.268   0.929   4.852
14763TIP3   OH244229   7.610   4.544   0.893
14763TIP3    H144230   7.602   4.610   0.962
14763TIP3    H244231   7.609   4.461   0.940
14764TIP3   OH244232   1.289   4.160   3.248
14764TIP3    H144233   1.276   4.173   3.154
14764TIP3    H244234   1.201   4.147   3.283
14765TIP3   OH244235   4.769   6.177   5.972
14765TIP3    H144236   4.740   6.143   5.888
14765TIP3    H244237   4.693   6.223   6.007
14766TIP3   OH244238   1.968   1.902   1.783
14766TIP3    H144239   1.993   1.813   1.761
14766TIP3    H244240   2.047   1.940   1.823
14767TIP3   OH244241   1.879   3.723   2.883
14767TIP3    H144242   1.910   3.656   2.823
14767TIP3    H244243   1.790   3.696   2.906
14768TIP3   OH244244   1.946   4.295   3.650
14768TIP3    H144245   1.875   4.232   3.642
14768TIP3    H244246   2.021   4.244   3.680
14769TIP3   OH244247   7.790   4.743   0.737
14769TIP3    H144248   7.750   4.662   0.769
14769TIP3    H244249   7.719   4.789   0.692
14770TIP3   OH244250   1.715   1.664   4.153
14770TIP3    H144251   1.654   1.713   4.099
14770TIP3    H244252   1.666   1.588   4.183
14771TIP3   OH244253   1.257   5.802   6.757
14771TIP3    H144254   1.246   5.726   6.700
14771TIP3    H244255   1.256   5.877   6.697
14772TIP3   OH244256   5.260   2.474   1.786
14772TIP3    H144257   5.347   2.458   1.750
14772TIP3    H244258   5.225   2.387   1.804
14773TIP3   OH244259   2.194   4.751   2.999
14773TIP3    H144260   2.272   4.696   3.004
14773TIP3    H244261   2.157   4.733   2.912
14774TIP3   OH244262   5.531   1.635   1.811
14774TIP3    H144263   5.493   1.578   1.877
14774TIP3    H244264   5.589   1.694   1.859
14775TIP3   OH244265   8.111   6.338   3.790
14775TIP3    H144266   8.172   6.401   3.754
14775TIP3    H244267   8.085   6.375   3.874
14776TIP3   OH244268   5.093   0.372   1.397
14776TIP3    H144269   5.037   0.329   1.332
14776TIP3    H244270   5.033   0.397   1.467
14777TIP3   OH244271   6.566   1.710   5.340
14777TIP3    H144272   6.581   1.771   5.268
14777TIP3    H244273   6.509   1.642   5.304
14778TIP3   OH244274   5.940   4.164   0.951
14778TIP3    H144275   5.870   4.099   0.942
14778TIP3    H244276   5.927   4.224   0.878
14779TIP3   OH244277   7.883   3.556   1.294
14779TIP3    H144278   7.922   3.622   1.237
14779TIP3    H244279   7.948   3.542   1.363
14780TIP3   OH244280   4.471   2.023   5.477
14780TIP3    H144281   4.471   2.081   5.400
14780TIP3    H244282   4.435   1.940   5.444
14781TIP3   OH244283   6.237   3.110   2.514
14781TIP3    H144284   6.263   3.047   2.581
14781TIP3    H244285   6.297   3.096   2.441
14782TIP3   OH244286   4.349   6.261   5.874
14782TIP3    H144287   4.337   6.222   5.788
14782TIP3    H244288   4.442   6.248   5.894
14783TIP3   OH244289   3.053   3.354   4.311
14783TIP3    H144290   3.116   3.296   4.355
14783TIP3    H244291   2.980   3.361   4.372
14784TIP3   OH244292   6.693   4.918   0.332
14784TIP3    H144293   6.691   4.834   0.286
14784TIP3    H244294   6.732   4.899   0.417
14785TIP3   OH244295   2.181   7.130   0.742
14785TIP3    H144296   2.216   7.219   0.751
14785TIP3    H244297   2.203   7.104   0.653
14786TIP3   OH244298   2.788   1.551   5.832
14786TIP3    H144299   2.701   1.509   5.828
14786TIP3    H244300   2.813   1.561   5.740
14787TIP3   OH244301   5.818   7.647   0.269
14787TIP3    H144302   5.786   7.581   0.208
14787TIP3    H244303   5.842   7.722   0.213
14788TIP3   OH244304   7.292   4.737   2.792
14788TIP3    H144305   7.240   4.724   2.871
14788TIP3    H244306   7.230   4.771   2.727
14789TIP3   OH244307   2.074   2.288   5.840
14789TIP3    H144308   2.066   2.379   5.811
14789TIP3    H244309   1.995   2.246   5.806
14790TIP3   OH244310   2.567   1.487   2.827
14790TIP3    H144311   2.602   1.411   2.780
14790TIP3    H244312   2.505   1.450   2.890
14791TIP3   OH244313   6.319   1.639   2.875
14791TIP3    H144314   6.317   1.730   2.843
14791TIP3    H244315   6.412   1.618   2.880
14792TIP3   OH244316   0.749   3.470   1.135
14792TIP3    H144317   0.704   3.544   1.176
14792TIP3    H244318   0.834   3.466   1.179
14793TIP3   OH244319  -0.036   6.917   2.863
14793TIP3    H144320  -0.029   6.936   2.769
14793TIP3    H244321   0.027   6.846   2.877
14794TIP3   OH244322   6.654   6.131   6.692
14794TIP3    H144323   6.658   6.224   6.671
14794TIP3    H244324   6.602   6.092   6.622
14795TIP3   OH244325   5.432   7.106   5.116
14795TIP3    H144326   5.465   7.151   5.194
14795TIP3    H244327   5.368   7.167   5.079
14796TIP3   OH244328   8.192   4.539   0.911
14796TIP3    H144329   8.224   4.622   0.877
14796TIP3    H244330   8.111   4.562   0.958
14797TIP3   OH244331   2.717   1.880   5.628
14797TIP3    H144332   2.674   1.839   5.703
14797TIP3    H244333   2.772   1.811   5.591
14798TIP3   OH244334   4.185   5.340   5.457
14798TIP3    H144335   4.179   5.247   5.478
14798TIP3    H244336   4.125   5.382   5.519
14799TIP3   OH244337   7.988   4.248   1.255
14799TIP3    H144338   7.986   4.230   1.161
14799TIP3    H244339   8.081   4.238   1.279
14800TIP3   OH244340   3.409   2.296   4.289
14800TIP3    H144341   3.492   2.334   4.261
14800TIP3    H244342   3.424   2.202   4.288
14801TIP3   OH244343   4.394   5.792   2.194
14801TIP3    H144344   4.349   5.810   2.277
14801TIP3    H244345   4.386   5.874   2.145
14802TIP3   OH244346   1.900   6.590   4.455
14802TIP3    H144347   1.982   6.626   4.422
14802TIP3    H244348   1.854   6.557   4.378
14803TIP3   OH244349   3.126   6.175   5.512
14803TIP3    H144350   3.034   6.167   5.538
14803TIP3    H244351   3.128   6.254   5.458
14804TIP3   OH244352   3.410   7.819   2.332
14804TIP3    H144353   3.415   7.854   2.243
14804TIP3    H244354   3.334   7.761   2.331
14805TIP3   OH244355   1.917   2.937   0.353
14805TIP3    H144356   1.831   2.979   0.351
14805TIP3    H244357   1.901   2.850   0.388
14806TIP3   OH244358   4.615   0.298   0.748
14806TIP3    H144359   4.697   0.347   0.735
14806TIP3    H244360   4.643   0.214   0.782
14807TIP3   OH244361   3.178   3.083   4.864
14807TIP3    H144362   3.258   3.031   4.866
14807TIP3    H244363   3.160   3.104   4.955
14808TIP3   OH244364   3.003   5.470   1.916
14808TIP3    H144365   2.945   5.541   1.942
14808TIP3    H244366   3.079   5.477   1.973
14809TIP3   OH244367   2.763   6.217   1.015
14809TIP3    H144368   2.797   6.291   0.964
14809TIP3    H244369   2.757   6.146   0.951
14810TIP3   OH244370   7.121   0.473   1.404
14810TIP3    H144371   7.125   0.568   1.400
14810TIP3    H244372   7.200   0.447   1.452
14811TIP3   OH244373   5.239   1.927   4.103
14811TIP3    H144374   5.198   1.840   4.107
14811TIP3    H244375   5.328   1.913   4.136
14812TIP3   OH244376   2.688   5.178   1.000
14812TIP3    H144377   2.597   5.207   0.995
14812TIP3    H244378   2.735   5.238   0.942
14813TIP3   OH244379   6.793   0.241   3.972
14813TIP3    H144380   6.786   0.285   3.888
14813TIP3    H244381   6.727   0.284   4.027
14814TIP3   OH244382   4.078   3.172   4.357
14814TIP3    H144383   4.114   3.261   4.354
14814TIP3    H244384   4.030   3.163   4.274
14815TIP3   OH244385   1.081   6.603   1.116
14815TIP3    H144386   1.000   6.554   1.109
14815TIP3    H244387   1.134   6.554   1.178
14816TIP3   OH244388   4.435   4.566   2.618
14816TIP3    H144389   4.363   4.571   2.681
14816TIP3    H244390   4.487   4.491   2.647
14817TIP3   OH244391   4.931   2.710   2.296
14817TIP3    H144392   4.976   2.733   2.378
14817TIP3    H244393   4.982   2.753   2.228
14818TIP3   OH244394   3.259   2.463   4.111
14818TIP3    H144395   3.308   2.408   4.171
14818TIP3    H244396   3.288   2.436   4.024
14819TIP3   OH244397   0.435   5.467   2.233
14819TIP3    H144398   0.349   5.441   2.267
14819TIP3    H244399   0.424   5.560   2.211
14820TIP3   OH244400   3.318   6.318   2.772
14820TIP3    H144401   3.363   6.333   2.689
14820TIP3    H244402   3.235   6.366   2.763
14821TIP3   OH244403   6.329   1.800   5.779
14821TIP3    H144404   6.331   1.771   5.688
14821TIP3    H244405   6.277   1.734   5.825
14822TIP3   OH244406   7.954   6.905   0.316
14822TIP3    H144407   7.950   6.886   0.222
14822TIP3    H244408   7.985   6.995   0.321
14823TIP3   OH244409   8.245   7.552   1.286
14823TIP3    H144410   8.308   7.618   1.314
14823TIP3    H244411   8.297   7.483   1.245
14824TIP3   OH244412   6.372   0.078   3.134
14824TIP3    H144413   6.423   0.141   3.084
14824TIP3    H244414   6.416  -0.006   3.120
14825TIP3   OH244415   5.136   4.339   0.990
14825TIP3    H144416   5.138   4.425   0.948
14825TIP3    H244417   5.056   4.297   0.957
14826TIP3   OH244418   7.570   4.660   5.410
14826TIP3    H144419   7.586   4.588   5.349
14826TIP3    H244420   7.599   4.739   5.364
14827TIP3   OH244421   5.143   0.908   6.043
14827TIP3    H144422   5.194   0.914   6.125
14827TIP3    H244423   5.122   0.998   6.022
14828TIP3   OH244424   4.783   0.823   3.635
14828TIP3    H144425   4.875   0.840   3.618
14828TIP3    H244426   4.747   0.796   3.550
14829TIP3   OH244427   4.088   2.188   5.665
14829TIP3    H144428   4.125   2.100   5.673
14829TIP3    H244429   4.053   2.208   5.752
14830TIP3   OH244430   1.168   0.071   1.777
14830TIP3    H144431   1.131   0.094   1.692
14830TIP3    H244432   1.260   0.098   1.770
14831TIP3   OH244433   1.034   7.278   6.270
14831TIP3    H144434   1.071   7.322   6.346
14831TIP3    H244435   0.996   7.197   6.305
14832TIP3   OH244436   5.068   3.143   4.072
14832TIP3    H144437   5.129   3.139   3.998
14832TIP3    H244438   5.021   3.225   4.060
14833TIP3   OH244439   1.348   0.150   0.751
14833TIP3    H144440   1.297   0.192   0.682
14833TIP3    H244441   1.438   0.178   0.735
14834TIP3   OH244442   3.862   1.393   2.496
14834TIP3    H144443   3.927   1.377   2.564
14834TIP3    H244444   3.778   1.394   2.543
14835TIP3   OH244445   4.566   6.491   5.574
14835TIP3    H144446   4.623   6.541   5.515
14835TIP3    H244447   4.509   6.557   5.613
14836TIP3   OH244448   3.925   6.891   5.833
14836TIP3    H144449   3.950   6.881   5.925
14836TIP3    H244450   3.981   6.829   5.786
14837TIP3   OH244451   3.228   0.446   5.261
14837TIP3    H144452   3.298   0.397   5.305
14837TIP3    H244453   3.205   0.391   5.186
14838TIP3   OH244454   5.269   7.603   5.671
14838TIP3    H144455   5.345   7.545   5.669
14838TIP3    H244456   5.194   7.545   5.678
14839TIP3   OH244457   2.916   4.545   5.591
14839TIP3    H144458   2.917   4.617   5.655
14839TIP3    H244459   2.986   4.566   5.530
14840TIP3   OH244460   2.668   5.060   6.588
14840TIP3    H144461   2.591   5.078   6.535
14840TIP3    H244462   2.667   4.966   6.601
14841TIP3   OH244463   2.487   3.931   5.303
14841TIP3    H144464   2.529   4.004   5.349
14841TIP3    H244465   2.393   3.949   5.312
14842TIP3   OH244466   0.059   5.522   4.232
14842TIP3    H144467   0.022   5.450   4.283
14842TIP3    H244468   0.135   5.484   4.188
14843TIP3   OH244469   1.534   4.025   3.898
14843TIP3    H144470   1.594   3.953   3.917
14843TIP3    H244471   1.478   3.992   3.828
14844TIP3   OH244472   6.173   5.403   3.897
14844TIP3    H144473   6.187   5.358   3.980
14844TIP3    H244474   6.227   5.355   3.834
14845TIP3   OH244475   8.037   4.689   0.578
14845TIP3    H144476   8.118   4.698   0.629
14845TIP3    H244477   7.967   4.693   0.643
14846TIP3   OH244478   3.183   6.174   0.799
14846TIP3    H144479   3.238   6.186   0.721
14846TIP3    H244480   3.198   6.253   0.850
14847TIP3   OH244481   7.648   2.231   1.199
14847TIP3    H144482   7.660   2.238   1.294
14847TIP3    H244483   7.721   2.177   1.169
14848TIP3   OH244484   4.493   7.162   6.528
14848TIP3    H144485   4.584   7.187   6.509
14848TIP3    H244486   4.492   7.067   6.522
14849TIP3   OH244487   8.403   6.296   0.505
14849TIP3    H144488   8.365   6.285   0.418
14849TIP3    H244489   8.384   6.388   0.527
14850TIP3   OH244490   4.583   0.735   2.140
14850TIP3    H144491   4.494   0.744   2.106
14850TIP3    H244492   4.579   0.775   2.227
14851TIP3   OH244493   4.109   1.788   1.470
14851TIP3    H144494   4.073   1.701   1.486
14851TIP3    H244495   4.037   1.837   1.431
14852TIP3   OH244496   5.891   4.304   6.613
14852TIP3    H144497   5.823   4.288   6.548
14852TIP3    H244498   5.843   4.326   6.693
14853TIP3   OH244499   4.910   7.697   4.083
14853TIP3    H144500   4.828   7.691   4.133
14853TIP3    H244501   4.887   7.668   3.995
14854TIP3   OH244502   5.196   2.173   4.811
14854TIP3    H144503   5.215   2.119   4.888
14854TIP3    H244504   5.154   2.113   4.749
14855TIP3   OH244505   7.402   2.887   1.757
14855TIP3    H144506   7.343   2.827   1.710
14855TIP3    H244507   7.348   2.964   1.775
14856TIP3   OH244508   5.689   0.767   5.473
14856TIP3    H144509   5.661   0.730   5.390
14856TIP3    H244510   5.716   0.856   5.452
14857TIP3   OH244511   2.825   7.227   3.022
14857TIP3    H144512   2.878   7.204   3.098
14857TIP3    H244513   2.875   7.195   2.947
14858TIP3   OH244514   0.400   0.905   5.457
14858TIP3    H144515   0.419   0.841   5.525
14858TIP3    H244516   0.470   0.894   5.393
14859TIP3   OH244517   7.148   2.229   3.071
14859TIP3    H144518   7.072   2.229   3.130
14859TIP3    H244519   7.127   2.295   3.005
14860TIP3   OH244520   7.989   7.457   0.649
14860TIP3    H144521   7.959   7.458   0.740
14860TIP3    H244522   8.084   7.446   0.656
14861TIP3   OH244523   8.303   1.168   2.939
14861TIP3    H144524   8.344   1.108   3.001
14861TIP3    H244525   8.259   1.110   2.876
14862TIP3   OH244526   5.759   5.588   5.073
14862TIP3    H144527   5.740   5.629   4.988
14862TIP3    H244528   5.847   5.619   5.095
14863TIP3   OH244529   4.998   7.934   4.191
14863TIP3    H144530   5.093   7.924   4.183
14863TIP3    H244531   4.962   7.852   4.156
14864TIP3   OH244532   3.581   0.617   5.844
14864TIP3    H144533   3.554   0.708   5.836
14864TIP3    H244534   3.662   0.619   5.894
14865TIP3   OH244535   4.165   0.058   4.924
14865TIP3    H144536   4.213  -0.023   4.941
14865TIP3    H244537   4.077   0.030   4.901
14866TIP3   OH244538   3.591   4.864   3.424
14866TIP3    H144539   3.529   4.917   3.374
14866TIP3    H244540   3.627   4.924   3.489
14867TIP3   OH244541   5.656   1.954   6.240
14867TIP3    H144542   5.590   1.891   6.268
14867TIP3    H244543   5.665   2.015   6.314
14868TIP3   OH244544   0.853   2.485   0.464
14868TIP3    H144545   0.918   2.550   0.436
14868TIP3    H244546   0.772   2.535   0.475
14869TIP3   OH244547   1.866   0.145   1.154
14869TIP3    H144548   1.937   0.140   1.089
14869TIP3    H244549   1.786   0.144   1.102
14870TIP3   OH244550   7.722   3.265   0.764
14870TIP3    H144551   7.725   3.222   0.678
14870TIP3    H244552   7.629   3.287   0.776
14871TIP3   OH244553   0.470   3.246   3.900
14871TIP3    H144554   0.455   3.270   3.992
14871TIP3    H244555   0.433   3.319   3.850
14872TIP3   OH244556   2.555   1.074   1.702
14872TIP3    H144557   2.471   1.119   1.711
14872TIP3    H244558   2.553   1.036   1.614
14873TIP3   OH244559   0.772   4.576   4.359
14873TIP3    H144560   0.864   4.584   4.334
14873TIP3    H244561   0.766   4.620   4.443
14874TIP3   OH244562   1.467   1.630   3.535
14874TIP3    H144563   1.496   1.582   3.457
14874TIP3    H244564   1.529   1.605   3.603
14875TIP3   OH244565   4.371   5.796   1.633
14875TIP3    H144566   4.408   5.778   1.719
14875TIP3    H244567   4.424   5.867   1.598
14876TIP3   OH244568   5.268   2.950   6.199
14876TIP3    H144569   5.230   2.869   6.166
14876TIP3    H244570   5.205   2.981   6.264
14877TIP3   OH244571   1.674   2.488   1.788
14877TIP3    H144572   1.610   2.553   1.815
14877TIP3    H244573   1.669   2.420   1.856
14878TIP3   OH244574   7.899   3.193   1.342
14878TIP3    H144575   7.812   3.183   1.304
14878TIP3    H244576   7.954   3.223   1.270
14879TIP3   OH244577   2.801   4.399   6.770
14879TIP3    H144578   2.709   4.377   6.781
14879TIP3    H244579   2.849   4.327   6.811
14880TIP3   OH244580   6.153   3.518   5.560
14880TIP3    H144581   6.093   3.476   5.622
14880TIP3    H244582   6.103   3.524   5.478
14881TIP3   OH244583   2.538   7.153   3.831
14881TIP3    H144584   2.453   7.109   3.838
14881TIP3    H244585   2.545   7.177   3.739
14882TIP3   OH244586   0.596   4.366   4.394
14882TIP3    H144587   0.639   4.283   4.373
14882TIP3    H244588   0.651   4.432   4.353
14883TIP3   OH244589   5.839   3.149   5.441
14883TIP3    H144590   5.929   3.127   5.464
14883TIP3    H244591   5.843   3.169   5.348
14884TIP3   OH244592   3.896   6.830   1.150
14884TIP3    H144593   3.877   6.870   1.235
14884TIP3    H244594   3.889   6.736   1.165
14885TIP3   OH244595   2.918   0.622   6.322
14885TIP3    H144596   2.848   0.559   6.340
14885TIP3    H244597   2.979   0.574   6.266
14886TIP3   OH244598   6.583   0.453   1.803
14886TIP3    H144599   6.616   0.535   1.767
14886TIP3    H244600   6.498   0.475   1.841
14887TIP3   OH244601   1.644   4.213   5.361
14887TIP3    H144602   1.690   4.182   5.439
14887TIP3    H244603   1.552   4.217   5.387
14888TIP3   OH244604   3.824   2.133   4.271
14888TIP3    H144605   3.893   2.118   4.206
14888TIP3    H244606   3.743   2.115   4.224
14889TIP3   OH244607   0.478   0.947   0.302
14889TIP3    H144608   0.491   0.853   0.312
14889TIP3    H244609   0.549   0.986   0.354
14890TIP3   OH244610   7.740   4.490   3.990
14890TIP3    H144611   7.711   4.506   4.079
14890TIP3    H244612   7.740   4.395   3.981
14891TIP3   OH244613   1.994   3.434   1.577
14891TIP3    H144614   2.061   3.409   1.641
14891TIP3    H244615   2.034   3.505   1.526
14892TIP3   OH244616   5.801   4.513   4.010
14892TIP3    H144617   5.774   4.549   3.926
14892TIP3    H244618   5.720   4.501   4.058
14893TIP3   OH244619   5.753   5.124   1.341
14893TIP3    H144620   5.663   5.154   1.325
14893TIP3    H244621   5.802   5.153   1.264
14894TIP3   OH244622   0.531   6.162   4.001
14894TIP3    H144623   0.550   6.106   4.076
14894TIP3    H244624   0.616   6.175   3.958
14895TIP3   OH244625   4.635   4.774   4.388
14895TIP3    H144626   4.642   4.697   4.332
14895TIP3    H244627   4.723   4.813   4.386
14896TIP3   OH244628   5.207   1.052   6.712
14896TIP3    H144629   5.216   1.136   6.666
14896TIP3    H244630   5.127   1.013   6.676
14897TIP3   OH244631   5.732   6.325   0.546
14897TIP3    H144632   5.737   6.302   0.639
14897TIP3    H244633   5.759   6.245   0.500
14898TIP3   OH244634   2.179   2.933   0.667
14898TIP3    H144635   2.101   2.898   0.708
14898TIP3    H244636   2.210   2.863   0.609
14899TIP3   OH244637   2.445   6.529   1.463
14899TIP3    H144638   2.399   6.598   1.512
14899TIP3    H244639   2.456   6.458   1.527
14900TIP3   OH244640   5.742   4.804   6.653
14900TIP3    H144641   5.647   4.812   6.649
14900TIP3    H244642   5.771   4.811   6.562
14901TIP3   OH244643   5.528   7.809   5.939
14901TIP3    H144644   5.436   7.812   5.914
14901TIP3    H244645   5.527   7.771   6.027
14902TIP3   OH244646   2.507   6.471   3.017
14902TIP3    H144647   2.486   6.378   3.015
14902TIP3    H244648   2.536   6.491   2.928
14903TIP3   OH244649   3.087   4.172   6.704
14903TIP3    H144650   3.123   4.085   6.685
14903TIP3    H244651   3.007   4.154   6.754
14904TIP3   OH244652   5.479   2.670   2.383
14904TIP3    H144653   5.512   2.689   2.471
14904TIP3    H244654   5.543   2.709   2.324
14905TIP3   OH244655   3.353   5.730   3.487
14905TIP3    H144656   3.272   5.778   3.508
14905TIP3    H244657   3.420   5.798   3.482
14906TIP3   OH244658   2.887   3.805   0.054
14906TIP3    H144659   2.903   3.857   0.133
14906TIP3    H244660   2.792   3.808   0.042
14907TIP3   OH244661   6.363   5.390   2.451
14907TIP3    H144662   6.269   5.387   2.471
14907TIP3    H244663   6.368   5.372   2.357
14908TIP3   OH244664   3.848   0.935   1.462
14908TIP3    H144665   3.755   0.918   1.476
14908TIP3    H244666   3.864   0.907   1.371
14909TIP3   OH244667   6.843   3.431   1.155
14909TIP3    H144668   6.780   3.359   1.162
14909TIP3    H244669   6.803   3.502   1.207
14910TIP3   OH244670   5.439   3.453   1.460
14910TIP3    H144671   5.516   3.509   1.467
14910TIP3    H244672   5.472   3.371   1.424
14911TIP3   OH244673   5.205   2.287   6.155
14911TIP3    H144674   5.112   2.282   6.132
14911TIP3    H244675   5.206   2.328   6.241
14912TIP3   OH244676   8.011   3.479   3.534
14912TIP3    H144677   7.926   3.522   3.521
14912TIP3    H244678   7.996   3.388   3.512
14913TIP3   OH244679   6.396   6.636   3.953
14913TIP3    H144680   6.484   6.632   3.915
14913TIP3    H244681   6.401   6.581   4.031
14914TIP3   OH244682   2.139   2.235   6.849
14914TIP3    H144683   2.147   2.325   6.818
14914TIP3    H244684   2.124   2.184   6.770
14915TIP3   OH244685   3.630   4.778   4.889
14915TIP3    H144686   3.587   4.856   4.855
14915TIP3    H244687   3.597   4.768   4.978
14916TIP3   OH244688   3.433   5.263   6.074
14916TIP3    H144689   3.413   5.194   6.138
14916TIP3    H244690   3.501   5.315   6.116
14917TIP3   OH244691   5.374   1.747   0.317
14917TIP3    H144692   5.359   1.841   0.314
14917TIP3    H244693   5.321   1.716   0.390
14918TIP3   OH244694   4.864   5.960   1.859
14918TIP3    H144695   4.863   6.002   1.945
14918TIP3    H244696   4.875   6.033   1.798
14919TIP3   OH244697   0.569   0.903   4.707
14919TIP3    H144698   0.525   0.934   4.786
14919TIP3    H244699   0.498   0.888   4.644
14920TIP3   OH244700   4.301   1.893   0.953
14920TIP3    H144701   4.332   1.942   0.877
14920TIP3    H244702   4.292   1.803   0.921
14921TIP3   OH244703   2.301   6.289   2.952
14921TIP3    H144704   2.322   6.249   2.868
14921TIP3    H244705   2.264   6.374   2.929
14922TIP3   OH244706   5.397   4.406   5.598
14922TIP3    H144707   5.310   4.365   5.602
14922TIP3    H244708   5.404   4.436   5.507
14923TIP3   OH244709   8.379   3.667   5.194
14923TIP3    H144710   8.323   3.598   5.160
14923TIP3    H244711   8.333   3.702   5.270
14924TIP3   OH244712   1.405   3.432   6.110
14924TIP3    H144713   1.356   3.420   6.191
14924TIP3    H244714   1.426   3.343   6.082
14925TIP3   OH244715   2.646   4.069   2.009
14925TIP3    H144716   2.712   3.999   2.014
14925TIP3    H244717   2.565   4.024   1.986
14926TIP3   OH244718   4.564   4.540   3.843
14926TIP3    H144719   4.507   4.575   3.911
14926TIP3    H244720   4.505   4.505   3.777
14927TIP3   OH244721   0.412   1.999   2.378
14927TIP3    H144722   0.436   2.092   2.384
14927TIP3    H244723   0.424   1.966   2.467
14928TIP3   OH244724   4.190   2.232   0.700
14928TIP3    H144725   4.262   2.296   0.701
14928TIP3    H244726   4.164   2.226   0.792
14929TIP3   OH244727   2.392   4.253   0.096
14929TIP3    H144728   2.385   4.171   0.144
14929TIP3    H244729   2.383   4.321   0.163
14930TIP3   OH244730   0.527   2.755   6.273
14930TIP3    H144731   0.541   2.695   6.200
14930TIP3    H244732   0.478   2.704   6.338
14931TIP3   OH244733   4.746   0.766   3.366
14931TIP3    H144734   4.818   0.789   3.308
14931TIP3    H244735   4.738   0.671   3.358
14932TIP3   OH244736   2.411   5.341   2.131
14932TIP3    H144737   2.387   5.253   2.100
14932TIP3    H244738   2.355   5.400   2.081
14933TIP3   OH244739   2.585   2.656   6.460
14933TIP3    H144740   2.638   2.679   6.537
14933TIP3    H244741   2.616   2.715   6.391
14934TIP3   OH244742   1.285   4.291   5.122
14934TIP3    H144743   1.328   4.371   5.150
14934TIP3    H244744   1.211   4.281   5.183
14935TIP3   OH244745   4.043   1.333   6.340
14935TIP3    H144746   4.134   1.302   6.332
14935TIP3    H244747   4.023   1.321   6.433
14936TIP3   OH244748   6.921   3.919   2.634
14936TIP3    H144749   6.936   3.900   2.726
14936TIP3    H244750   6.982   3.988   2.612
14937TIP3   OH244751   0.580   4.211   6.387
14937TIP3    H144752   0.645   4.279   6.405
14937TIP3    H244753   0.612   4.134   6.434
14938TIP3   OH244754   5.822   7.258   0.275
14938TIP3    H144755   5.760   7.328   0.258
14938TIP3    H244756   5.769   7.179   0.281
14939TIP3   OH244757   2.380   4.219   3.561
14939TIP3    H144758   2.468   4.257   3.567
14939TIP3    H244759   2.391   4.142   3.504
14940TIP3   OH244760   4.788   7.861   2.008
14940TIP3    H144761   4.787   7.821   2.095
14940TIP3    H244762   4.843   7.939   2.018
14941TIP3   OH244763   5.072   1.112   1.575
14941TIP3    H144764   5.073   1.185   1.638
14941TIP3    H244765   5.026   1.042   1.621
14942TIP3   OH244766   0.463   6.343   5.883
14942TIP3    H144767   0.500   6.348   5.971
14942TIP3    H244768   0.539   6.332   5.825
14943TIP3   OH244769   6.191   1.044   5.215
14943TIP3    H144770   6.226   0.990   5.144
14943TIP3    H244771   6.249   1.026   5.289
14944TIP3   OH244772   6.884   7.308   4.407
14944TIP3    H144773   6.810   7.328   4.465
14944TIP3    H244774   6.862   7.224   4.368
14945TIP3   OH244775   3.548   4.860   4.236
14945TIP3    H144776   3.620   4.805   4.204
14945TIP3    H244777   3.567   4.875   4.328
14946TIP3   OH244778   1.683   3.258   4.253
14946TIP3    H144779   1.646   3.171   4.235
14946TIP3    H244780   1.670   3.307   4.172
14947TIP3   OH244781   2.194   6.070   3.790
14947TIP3    H144782   2.214   6.088   3.698
14947TIP3    H244783   2.162   6.153   3.825
14948TIP3   OH244784   1.020   4.485   2.230
14948TIP3    H144785   1.038   4.560   2.286
14948TIP3    H244786   0.978   4.522   2.152
14949TIP3   OH244787   1.963   1.843   0.444
14949TIP3    H144788   2.043   1.852   0.393
14949TIP3    H244789   1.900   1.901   0.400
14950TIP3   OH244790   4.401   6.374   3.920
14950TIP3    H144791   4.465   6.431   3.877
14950TIP3    H244792   4.408   6.290   3.875
14951TIP3   OH244793   8.110   1.219   5.221
14951TIP3    H144794   8.185   1.260   5.262
14951TIP3    H244795   8.096   1.269   5.140
14952TIP3   OH244796   8.435   4.770   4.787
14952TIP3    H144797   8.371   4.798   4.721
14952TIP3    H244798   8.466   4.852   4.826
14953TIP3   OH244799   7.905  -0.013   0.928
14953TIP3    H144800   7.850   0.045   0.981
14953TIP3    H244801   7.844  -0.074   0.887
14954TIP3   OH244802   5.164   3.003   0.936
14954TIP3    H144803   5.122   2.922   0.964
14954TIP3    H244804   5.106   3.073   0.968
14955TIP3   OH244805   5.235   0.446   2.398
14955TIP3    H144806   5.320   0.406   2.415
14955TIP3    H244807   5.174   0.397   2.453
14956TIP3   OH244808   1.783   4.382   6.662
14956TIP3    H144809   1.779   4.286   6.668
14956TIP3    H244810   1.868   4.399   6.621
14957TIP3   OH244811   7.787   5.905   0.332
14957TIP3    H144812   7.823   5.839   0.390
14957TIP3    H244813   7.699   5.923   0.367
14958TIP3   OH244814   7.721   1.544   5.663
14958TIP3    H144815   7.647   1.592   5.700
14958TIP3    H244816   7.716   1.457   5.702
14959TIP3   OH244817   6.535   1.432   2.611
14959TIP3    H144818   6.532   1.336   2.609
14959TIP3    H244819   6.540   1.454   2.704
14960TIP3   OH244820   0.686   4.964   5.595
14960TIP3    H144821   0.641   5.047   5.584
14960TIP3    H244822   0.779   4.987   5.600
14961TIP3   OH244823   5.982   5.148   4.186
14961TIP3    H144824   6.011   5.222   4.239
14961TIP3    H244825   5.948   5.085   4.249
14962TIP3   OH244826   6.625   3.602   4.970
14962TIP3    H144827   6.534   3.597   4.998
14962TIP3    H244828   6.652   3.511   4.961
14963TIP3   OH244829   0.920   6.513   0.518
14963TIP3    H144830   0.906   6.457   0.594
14963TIP3    H244831   0.907   6.454   0.443
14964TIP3   OH244832   6.269   1.022   0.246
14964TIP3    H144833   6.340   1.010   0.308
14964TIP3    H244834   6.190   1.001   0.296
14965TIP3   OH244835   1.102   3.380   3.658
14965TIP3    H144836   1.013   3.394   3.626
14965TIP3    H244837   1.130   3.466   3.689
14966TIP3   OH244838   3.641   3.309   1.692
14966TIP3    H144839   3.607   3.259   1.766
14966TIP3    H244840   3.564   3.333   1.641
14967TIP3   OH244841   4.773   7.495   3.329
14967TIP3    H144842   4.862   7.513   3.298
14967TIP3    H244843   4.716   7.546   3.271
14968TIP3   OH244844   8.055   1.226   1.992
14968TIP3    H144845   8.073   1.303   1.939
14968TIP3    H244846   8.008   1.259   2.068
14969TIP3   OH244847   5.477   1.151   5.383
14969TIP3    H144848   5.408   1.085   5.392
14969TIP3    H244849   5.503   1.170   5.474
14970TIP3   OH244850   0.472   5.403   5.370
14970TIP3    H144851   0.528   5.429   5.297
14970TIP3    H244852   0.501   5.456   5.444
14971TIP3   OH244853   5.914   1.609   3.235
14971TIP3    H144854   5.965   1.689   3.247
14971TIP3    H244855   5.936   1.579   3.147
14972TIP3   OH244856   1.502   3.449   3.534
14972TIP3    H144857   1.581   3.468   3.584
14972TIP3    H244858   1.453   3.531   3.533
14973TIP3   OH244859   7.475   0.311   4.557
14973TIP3    H144860   7.509   0.261   4.630
14973TIP3    H244861   7.553   0.339   4.508
14974TIP3   OH244862   3.850   3.624   6.696
14974TIP3    H144863   3.941   3.603   6.674
14974TIP3    H244864   3.819   3.547   6.742
14975TIP3   OH244865   7.112   5.123   5.495
14975TIP3    H144866   7.167   5.045   5.488
14975TIP3    H244867   7.170   5.196   5.471
14976TIP3   OH244868   4.558   7.419   2.875
14976TIP3    H144869   4.575   7.446   2.965
14976TIP3    H244870   4.463   7.415   2.868
14977TIP3   OH244871   1.662   3.518   2.890
14977TIP3    H144872   1.735   3.485   2.942
14977TIP3    H244873   1.607   3.566   2.952
14978TIP3   OH244874   1.626   0.788   2.997
14978TIP3    H144875   1.702   0.822   3.045
14978TIP3    H244876   1.619   0.843   2.920
14979TIP3   OH244877   8.331   5.160   5.853
14979TIP3    H144878   8.280   5.228   5.809
14979TIP3    H244879   8.419   5.197   5.860
14980TIP3   OH244880   6.777   2.481   4.102
14980TIP3    H144881   6.823   2.418   4.046
14980TIP3    H244882   6.803   2.567   4.067
14981TIP3   OH244883   0.037   2.251   6.061
14981TIP3    H144884   0.012   2.177   6.006
14981TIP3    H244885   0.132   2.251   6.060
14982TIP3   OH244886   7.403   6.258   4.327
14982TIP3    H144887   7.486   6.295   4.358
14982TIP3    H244888   7.336   6.313   4.368
14983TIP3   OH244889   6.630   5.698   3.337
14983TIP3    H144890   6.549   5.726   3.293
14983TIP3    H244891   6.640   5.606   3.310
14984TIP3   OH244892   0.461   3.470   1.677
14984TIP3    H144893   0.441   3.400   1.615
14984TIP3    H244894   0.515   3.428   1.744
14985TIP3   OH244895   4.125   1.625   4.237
14985TIP3    H144896   4.079   1.682   4.175
14985TIP3    H244897   4.185   1.684   4.283
14986TIP3   OH244898   1.414   6.380   0.571
14986TIP3    H144899   1.401   6.468   0.607
14986TIP3    H244900   1.507   6.362   0.586
14987TIP3   OH244901   8.381   3.319   2.756
14987TIP3    H144902   8.306   3.310   2.696
14987TIP3    H244903   8.440   3.249   2.731
14988TIP3   OH244904   3.048   4.457   4.334
14988TIP3    H144905   3.054   4.500   4.249
14988TIP3    H244906   3.139   4.451   4.365
14989TIP3   OH244907   2.167   4.918   6.560
14989TIP3    H144908   2.183   4.850   6.625
14989TIP3    H244909   2.093   4.967   6.596
14990TIP3   OH244910   6.684   0.427   2.240
14990TIP3    H144911   6.640   0.343   2.225
14990TIP3    H244912   6.623   0.493   2.207
14991TIP3   OH244913   3.257   3.301   0.035
14991TIP3    H144914   3.193   3.267   0.097
14991TIP3    H244915   3.340   3.302   0.085
14992TIP3   OH244916   2.339   6.456   3.302
14992TIP3    H144917   2.326   6.535   3.250
14992TIP3    H244918   2.381   6.394   3.243
14993TIP3   OH244919   7.308   3.760   0.149
14993TIP3    H144920   7.224   3.721   0.126
14993TIP3    H244921   7.370   3.687   0.144
14994TIP3   OH244922   7.111   3.202   0.979
14994TIP3    H144923   7.043   3.267   0.960
14994TIP3    H244924   7.065   3.118   0.977
14995TIP3   OH244925   2.660   4.137   3.491
14995TIP3    H144926   2.711   4.094   3.422
14995TIP3    H244927   2.654   4.072   3.561
14996TIP3   OH244928   4.338   0.250   2.074
14996TIP3    H144929   4.258   0.213   2.036
14996TIP3    H244930   4.311   0.334   2.109
14997TIP3   OH244931   7.830   3.834   3.963
14997TIP3    H144932   7.753   3.879   3.998
14997TIP3    H244933   7.835   3.753   4.014
14998TIP3   OH244934   6.721   7.230   3.640
14998TIP3    H144935   6.678   7.157   3.595
14998TIP3    H244936   6.659   7.255   3.709
14999TIP3   OH244937   5.650   0.905   3.487
14999TIP3    H144938   5.707   0.978   3.464
14999TIP3    H244939   5.709   0.830   3.495
15000TIP3   OH244940   7.367   1.163   4.539
15000TIP3    H144941   7.400   1.110   4.466
15000TIP3    H244942   7.323   1.237   4.497
15001TIP3   OH244943   3.722   2.269   4.047
15001TIP3    H144944   3.712   2.365   4.047
15001TIP3    H244945   3.794   2.252   3.987
15002TIP3   OH244946   7.796   2.398   0.518
15002TIP3    H144947   7.749   2.388   0.435
15002TIP3    H244948   7.888   2.383   0.494
15003TIP3   OH244949   4.297   1.890   0.138
15003TIP3    H144950   4.238   1.899   0.212
15003TIP3    H244951   4.321   1.980   0.114
15004TIP3   OH244952   4.528   3.078   5.535
15004TIP3    H144953   4.448   3.110   5.494
15004TIP3    H244954   4.597   3.102   5.474
15005TIP3   OH244955   3.821   1.444   1.796
15005TIP3    H144956   3.855   1.369   1.747
15005TIP3    H244957   3.898   1.483   1.837
15006TIP3   OH244958   6.670   4.248   5.606
15006TIP3    H144959   6.674   4.156   5.580
15006TIP3    H244960   6.664   4.296   5.523
15007TIP3   OH244961   7.470   3.643   0.583
15007TIP3    H144962   7.428   3.712   0.530
15007TIP3    H244963   7.532   3.691   0.639
15008TIP3   OH244964   2.917   3.885   5.726
15008TIP3    H144965   2.880   3.865   5.812
15008TIP3    H244966   3.009   3.903   5.743
15009TIP3   OH244967   0.762   4.223   4.762
15009TIP3    H144968   0.806   4.186   4.839
15009TIP3    H244969   0.822   4.206   4.690
15010TIP3   OH244970   0.376   7.716   4.600
15010TIP3    H144971   0.343   7.775   4.533
15010TIP3    H244972   0.309   7.716   4.668
15011TIP3   OH244973   6.722   4.860   2.445
15011TIP3    H144974   6.671   4.940   2.434
15011TIP3    H244975   6.663   4.790   2.416
15012TIP3   OH244976   3.103   5.950   2.248
15012TIP3    H144977   3.183   5.975   2.294
15012TIP3    H244978   3.132   5.889   2.181
15013TIP3   OH244979   7.513   7.191   1.480
15013TIP3    H144980   7.481   7.163   1.394
15013TIP3    H244981   7.559   7.273   1.463
15014TIP3   OH244982   3.517   7.912   6.730
15014TIP3    H144983   3.570   7.850   6.780
15014TIP3    H244984   3.578   7.981   6.705
15015TIP3   OH244985   0.615   3.929   5.009
15015TIP3    H144986   0.682   3.882   5.059
15015TIP3    H244987   0.556   3.966   5.075
15016TIP3   OH244988   1.611   3.165   4.653
15016TIP3    H144989   1.588   3.221   4.578
15016TIP3    H244990   1.682   3.110   4.620
15017TIP3   OH244991   3.293   3.216   6.017
15017TIP3    H144992   3.333   3.131   6.038
15017TIP3    H244993   3.318   3.272   6.090
15018TIP3   OH244994   7.587   7.460   2.755
15018TIP3    H144995   7.553   7.521   2.689
15018TIP3    H244996   7.678   7.447   2.731
15019TIP3   OH244997   3.702   7.278   4.061
15019TIP3    H144998   3.786   7.260   4.103
15019TIP3    H244999   3.711   7.243   3.972
15020TIP3   OH245000   2.825   3.541   6.699
15020TIP3    H145001   2.827   3.496   6.614
15020TIP3    H245002   2.813   3.633   6.678
15021TIP3   OH245003   4.178   2.902   3.675
15021TIP3    H145004   4.265   2.884   3.639
15021TIP3    H245005   4.122   2.910   3.598
15022TIP3   OH245006   7.094   3.979   6.482
15022TIP3    H145007   7.181   3.990   6.444
15022TIP3    H245008   7.067   3.891   6.457
15023TIP3   OH245009   7.511   5.024   3.383
15023TIP3    H145010   7.458   5.031   3.462
15023TIP3    H245011   7.534   5.114   3.361
15024TIP3   OH245012   0.698   5.091   6.237
15024TIP3    H145013   0.683   5.058   6.326
15024TIP3    H245014   0.734   5.179   6.250
15025TIP3   OH245015   7.943   6.018   6.286
15025TIP3    H145016   7.977   5.963   6.215
15025TIP3    H245017   7.977   5.979   6.366
15026TIP3   OH245018   4.889   1.362   5.352
15026TIP3    H145019   4.917   1.378   5.443
15026TIP3    H245020   4.811   1.416   5.341
15027TIP3   OH245021   0.123   0.491   3.780
15027TIP3    H145022   0.189   0.559   3.794
15027TIP3    H245023   0.092   0.506   3.691
15028TIP3   OH245024   7.827   3.954   2.908
15028TIP3    H145025   7.735   3.974   2.890
15028TIP3    H245026   7.828   3.924   2.998
15029TIP3   OH245027   2.801   5.238   1.669
15029TIP3    H145028   2.784   5.210   1.579
15029TIP3    H245029   2.729   5.298   1.689
15030TIP3   OH245030   2.027   6.103   1.255
15030TIP3    H145031   2.067   6.016   1.259
15030TIP3    H245032   2.089   6.160   1.299
15031TIP3   OH245033   1.249   3.965   1.380
15031TIP3    H145034   1.284   3.877   1.364
15031TIP3    H245035   1.157   3.951   1.402
15032TIP3   OH245036   6.247   2.980   5.011
15032TIP3    H145037   6.339   2.953   5.006
15032TIP3    H245038   6.248   3.059   5.065
15033TIP3   OH245039   4.378   4.560   1.948
15033TIP3    H145040   4.445   4.601   1.892
15033TIP3    H245041   4.363   4.474   1.908
15034TIP3   OH245042   4.044   2.209   0.453
15034TIP3    H145043   4.092   2.189   0.533
15034TIP3    H245044   3.961   2.163   0.462
15035TIP3   OH245045   0.212   3.275   5.917
15035TIP3    H145046   0.205   3.201   5.977
15035TIP3    H245047   0.124   3.314   5.917
15036TIP3   OH245048   8.465   2.444   2.661
15036TIP3    H145049   8.381   2.420   2.623
15036TIP3    H245050   8.529   2.417   2.595
15037TIP3   OH245051   1.826   6.116   3.844
15037TIP3    H145052   1.766   6.190   3.855
15037TIP3    H245053   1.857   6.124   3.754
15038TIP3   OH245054   8.155   4.504   5.647
15038TIP3    H145055   8.067   4.491   5.612
15038TIP3    H245056   8.161   4.443   5.721
15039TIP3   OH245057   3.532   0.709   0.358
15039TIP3    H145058   3.455   0.717   0.415
15039TIP3    H245059   3.604   0.693   0.418
15040TIP3   OH245060   7.423   0.399   2.865
15040TIP3    H145061   7.347   0.386   2.809
15040TIP3    H245062   7.396   0.466   2.927
15041TIP3   OH245063   3.568   7.360   5.899
15041TIP3    H145064   3.524   7.393   5.820
15041TIP3    H245065   3.514   7.287   5.928
15042TIP3   OH245066   3.294   0.618   6.051
15042TIP3    H145067   3.356   0.691   6.050
15042TIP3    H245068   3.276   0.600   5.959
15043TIP3   OH245069   5.517   2.836   5.433
15043TIP3    H145070   5.605   2.811   5.403
15043TIP3    H245071   5.473   2.752   5.449
15044TIP3   OH245072   2.362   7.407   1.229
15044TIP3    H145073   2.341   7.353   1.152
15044TIP3    H245074   2.442   7.453   1.203
15045TIP3   OH245075   0.923   5.476   5.460
15045TIP3    H145076   0.868   5.543   5.501
15045TIP3    H245077   0.973   5.524   5.393
15046TIP3   OH245078   3.461   1.051   6.343
15046TIP3    H145079   3.478   1.133   6.297
15046TIP3    H245080   3.531   1.046   6.408
15047TIP3   OH245081   3.608   6.190   4.878
15047TIP3    H145082   3.698   6.212   4.899
15047TIP3    H245083   3.558   6.268   4.902
15048TIP3   OH245084   6.370   5.699   3.635
15048TIP3    H145085   6.381   5.611   3.599
15048TIP3    H245086   6.456   5.739   3.629
15049TIP3   OH245087   3.671   2.627   0.355
15049TIP3    H145088   3.703   2.542   0.324
15049TIP3    H245089   3.751   2.680   0.366
15050TIP3   OH245090   6.083   2.094   1.637
15050TIP3    H145091   6.122   2.150   1.705
15050TIP3    H245092   6.104   2.005   1.665
15051TIP3   OH245093   5.770   7.753   5.772
15051TIP3    H145094   5.801   7.837   5.805
15051TIP3    H245095   5.674   7.760   5.774
15052TIP3   OH245096   4.760   7.808   5.059
15052TIP3    H145097   4.778   7.725   5.015
15052TIP3    H245098   4.666   7.822   5.050
15053TIP3   OH245099   5.043   6.784   1.969
15053TIP3    H145100   5.036   6.879   1.964
15053TIP3    H245101   4.982   6.752   1.903
15054TIP3   OH245102   4.832   7.151   1.338
15054TIP3    H145103   4.873   7.149   1.424
15054TIP3    H245104   4.777   7.230   1.340
15055TIP3   OH245105   0.402   2.903   0.721
15055TIP3    H145106   0.458   2.976   0.747
15055TIP3    H245107   0.313   2.936   0.730
15056TIP3   OH245108   0.912   5.789   4.955
15056TIP3    H145109   0.993   5.762   4.911
15056TIP3    H245110   0.848   5.721   4.930
15057TIP3   OH245111   1.988   3.038   1.222
15057TIP3    H145112   1.944   2.999   1.298
15057TIP3    H245113   1.921   3.040   1.154
15058TIP3   OH245114   3.137   5.192   2.494
15058TIP3    H145115   3.220   5.167   2.452
15058TIP3    H245116   3.163   5.234   2.576
15059TIP3   OH245117   3.610   5.617   1.260
15059TIP3    H145118   3.545   5.556   1.226
15059TIP3    H245119   3.637   5.669   1.183
15060TIP3   OH245120   6.509   2.759   6.237
15060TIP3    H145121   6.440   2.729   6.177
15060TIP3    H245122   6.489   2.717   6.320
15061TIP3   OH245123   3.683   4.320   2.413
15061TIP3    H145124   3.629   4.392   2.445
15061TIP3    H245125   3.631   4.279   2.344
15062TIP3   OH245126   7.216   4.485   3.942
15062TIP3    H145127   7.183   4.555   3.998
15062TIP3    H245128   7.286   4.526   3.892
15063TIP3   OH245129   0.686   7.768   5.764
15063TIP3    H145130   0.675   7.784   5.858
15063TIP3    H245131   0.654   7.849   5.723
15064TIP3   OH245132   5.733   7.361   2.808
15064TIP3    H145133   5.792   7.404   2.870
15064TIP3    H245134   5.791   7.312   2.750
15065TIP3   OH245135   3.623   0.349   4.731
15065TIP3    H145136   3.595   0.385   4.816
15065TIP3    H245137   3.708   0.308   4.750
15066TIP3   OH245138   8.338   6.797   4.256
15066TIP3    H145139   8.274   6.864   4.283
15066TIP3    H245140   8.389   6.779   4.335
15067TIP3   OH245141   0.180   2.678   2.788
15067TIP3    H145142   0.122   2.619   2.740
15067TIP3    H245143   0.132   2.699   2.869
15068TIP3   OH245144   3.529   0.183   3.968
15068TIP3    H145145   3.534   0.234   4.049
15068TIP3    H245146   3.617   0.186   3.931
15069TIP3   OH245147   4.062   0.849   5.331
15069TIP3    H145148   4.132   0.784   5.339
15069TIP3    H245149   4.100   0.929   5.367
15070TIP3   OH245150   5.714   6.077   5.426
15070TIP3    H145151   5.681   6.161   5.395
15070TIP3    H245152   5.694   6.016   5.355
15071TIP3   OH245153   4.488   7.489   1.138
15071TIP3    H145154   4.521   7.559   1.081
15071TIP3    H245155   4.488   7.411   1.083
15072TIP3   OH245156   5.131   1.313   2.649
15072TIP3    H145157   5.083   1.289   2.728
15072TIP3    H245158   5.079   1.384   2.610
15073TIP3   OH245159   7.347   7.385   6.397
15073TIP3    H145160   7.433   7.395   6.438
15073TIP3    H245161   7.366   7.366   6.305
15074TIP3   OH245162   3.229   4.550   2.886
15074TIP3    H145163   3.175   4.595   2.951
15074TIP3    H245164   3.268   4.477   2.933
15075TIP3   OH245165   4.930   0.633   4.044
15075TIP3    H145166   4.859   0.696   4.035
15075TIP3    H245167   4.999   0.665   3.985
15076TIP3   OH245168   6.680   7.265   1.960
15076TIP3    H145169   6.715   7.352   1.940
15076TIP3    H245170   6.756   7.214   1.988
15077TIP3   OH245171   1.205   0.213   5.866
15077TIP3    H145172   1.276   0.162   5.905
15077TIP3    H245173   1.162   0.153   5.805
15078TIP3   OH245174   2.066   0.520   2.308
15078TIP3    H145175   2.087   0.428   2.292
15078TIP3    H245176   2.090   0.564   2.226
15079TIP3   OH245177   4.308   6.854   6.040
15079TIP3    H145178   4.325   6.821   6.128
15079TIP3    H245179   4.394   6.879   6.007
15080TIP3   OH245180   5.208   6.625   4.741
15080TIP3    H145181   5.136   6.577   4.782
15080TIP3    H245182   5.195   6.716   4.767
15081TIP3   OH245183   0.679   4.130   5.208
15081TIP3    H145184   0.689   4.058   5.270
15081TIP3    H245185   0.710   4.207   5.256
15082TIP3   OH245186   6.549   2.123   5.242
15082TIP3    H145187   6.461   2.125   5.279
15082TIP3    H245188   6.559   2.034   5.208
15083TIP3   OH245189   7.348   3.898   0.417
15083TIP3    H145190   7.428   3.946   0.394
15083TIP3    H245191   7.315   3.865   0.333
15084TIP3   OH245192   0.068   5.893   4.670
15084TIP3    H145193   0.053   5.802   4.698
15084TIP3    H245194   0.033   5.896   4.581
15085TIP3   OH245195   6.819   4.435   2.319
15085TIP3    H145196   6.871   4.363   2.284
15085TIP3    H245197   6.828   4.505   2.255
15086TIP3   OH245198   1.071   2.313   6.242
15086TIP3    H145199   1.061   2.395   6.290
15086TIP3    H245200   1.132   2.261   6.296
15087TIP3   OH245201   3.126   3.635   6.573
15087TIP3    H145202   3.146   3.670   6.486
15087TIP3    H245203   3.038   3.666   6.592
15088TIP3   OH245204   2.992   1.364   1.777
15088TIP3    H145205   2.915   1.316   1.749
15088TIP3    H245206   2.981   1.373   1.872
15089TIP3   OH245207   3.975   1.301   1.617
15089TIP3    H145208   3.947   1.270   1.531
15089TIP3    H245209   4.026   1.228   1.653
15090TIP3   OH245210   7.165   2.502   3.896
15090TIP3    H145211   7.106   2.556   3.843
15090TIP3    H245212   7.183   2.555   3.973
15091TIP3   OH245213   6.531   1.449   2.876
15091TIP3    H145214   6.475   1.410   2.943
15091TIP3    H245215   6.614   1.466   2.921
15092TIP3   OH245216   5.478   5.680   5.054
15092TIP3    H145217   5.564   5.644   5.034
15092TIP3    H245218   5.451   5.725   4.974
15093TIP3   OH245219   6.446   7.879   0.318
15093TIP3    H145220   6.536   7.862   0.344
15093TIP3    H245221   6.437   7.974   0.324
15094TIP3   OH245222   2.766   6.545   6.032
15094TIP3    H145223   2.774   6.467   6.087
15094TIP3    H245224   2.780   6.618   6.093
15095TIP3   OH245225   1.426   5.409   4.530
15095TIP3    H145226   1.466   5.495   4.541
15095TIP3    H245227   1.491   5.359   4.480
15096TIP3   OH245228   3.301   3.820   1.100
15096TIP3    H145229   3.262   3.901   1.134
15096TIP3    H245230   3.231   3.779   1.050
15097TIP3   OH245231   4.847   4.873   1.831
15097TIP3    H145232   4.768   4.820   1.828
15097TIP3    H245233   4.816   4.963   1.825
15098TIP3   OH245234   6.695   4.831   6.418
15098TIP3    H145235   6.600   4.840   6.417
15098TIP3    H245236   6.724   4.871   6.336
15099TIP3   OH245237   2.706   0.237   6.442
15099TIP3    H145238   2.755   0.174   6.389
15099TIP3    H245239   2.650   0.182   6.498
15100TIP3   OH245240   2.729   3.355   1.321
15100TIP3    H145241   2.734   3.265   1.289
15100TIP3    H245242   2.700   3.406   1.246
15101TIP3   OH245243   1.312   4.092   5.783
15101TIP3    H145244   1.224   4.093   5.747
15101TIP3    H245245   1.366   4.053   5.714
15102TIP3   OH245246   1.436   7.152   6.852
15102TIP3    H145247   1.365   7.215   6.857
15102TIP3    H245248   1.429   7.101   6.933
15103TIP3   OH245249   7.121   2.966   4.695
15103TIP3    H145250   7.175   2.898   4.734
15103TIP3    H245251   7.064   2.920   4.633
15104TIP3   OH245252   1.870   2.571   2.626
15104TIP3    H145253   1.937   2.620   2.578
15104TIP3    H245254   1.831   2.634   2.686
15105TIP3   OH245255   2.549   3.205   6.649
15105TIP3    H145256   2.636   3.227   6.615
15105TIP3    H245257   2.560   3.119   6.689
15106TIP3   OH245258   4.990   1.080   4.436
15106TIP3    H145259   5.047   1.004   4.434
15106TIP3    H245260   4.914   1.054   4.383
15107TIP3   OH245261   4.121   1.983   6.321
15107TIP3    H145262   4.078   1.900   6.341
15107TIP3    H245263   4.129   2.027   6.405
15108TIP3   OH245264   2.338   0.399   5.164
15108TIP3    H145265   2.277   0.470   5.143
15108TIP3    H245266   2.313   0.371   5.252
15109TIP3   OH245267   3.908   4.657   5.294
15109TIP3    H145268   3.827   4.662   5.243
15109TIP3    H245269   3.931   4.748   5.312
15110TIP3   OH245270   5.353   3.758   0.880
15110TIP3    H145271   5.314   3.825   0.824
15110TIP3    H245272   5.291   3.685   0.876
15111TIP3   OH245273   7.657   2.395   4.630
15111TIP3    H145274   7.561   2.398   4.627
15111TIP3    H245275   7.676   2.319   4.685
15112TIP3   OH245276   5.775   0.130   5.702
15112TIP3    H145277   5.807   0.066   5.766
15112TIP3    H245278   5.750   0.206   5.754
15113TIP3   OH245279   3.206   4.916   5.905
15113TIP3    H145280   3.181   4.959   5.824
15113TIP3    H245281   3.134   4.856   5.924
15114TIP3   OH245282   6.823   2.923   0.712
15114TIP3    H145283   6.828   2.979   0.635
15114TIP3    H245284   6.866   2.841   0.687
15115TIP3   OH245285   3.934   2.677   1.315
15115TIP3    H145286   3.912   2.736   1.242
15115TIP3    H245287   3.862   2.614   1.317
15116TIP3   OH245288   2.697   4.492   4.983
15116TIP3    H145289   2.630   4.426   5.001
15116TIP3    H245290   2.685   4.557   5.052
15117TIP3   OH245291   5.178   3.258   1.822
15117TIP3    H145292   5.144   3.329   1.767
15117TIP3    H245293   5.151   3.178   1.778
15118TIP3   OH245294   6.257   3.664   0.637
15118TIP3    H145295   6.290   3.753   0.644
15118TIP3    H245296   6.167   3.675   0.606
15119TIP3   OH245297   1.985   0.842   6.488
15119TIP3    H145298   2.041   0.890   6.548
15119TIP3    H245299   1.990   0.892   6.406
15120TIP3   OH245300   6.254   6.553   1.440
15120TIP3    H145301   6.312   6.511   1.376
15120TIP3    H245302   6.310   6.618   1.484
15121TIP3   OH245303   1.052   0.043   1.047
15121TIP3    H145304   1.123   0.018   0.988
15121TIP3    H245305   1.095   0.052   1.132
15122TIP3   OH245306   4.911   0.871   6.780
15122TIP3    H145307   4.991   0.880   6.832
15122TIP3    H245308   4.920   0.938   6.712
15123TIP3   OH245309   6.995   3.317   6.728
15123TIP3    H145310   6.919   3.364   6.694
15123TIP3    H245311   7.002   3.240   6.672
15124TIP3   OH245312   1.162   6.406   4.334
15124TIP3    H145313   1.226   6.476   4.340
15124TIP3    H245314   1.213   6.328   4.311
15125TIP3   OH245315   0.271   3.968   5.954
15125TIP3    H145316   0.351   3.957   5.902
15125TIP3    H245317   0.240   3.878   5.969
15126TIP3   OH245318   4.367   5.741   0.532
15126TIP3    H145319   4.401   5.812   0.586
15126TIP3    H245320   4.443   5.686   0.513
15127TIP3   OH245321   5.891   0.865   1.217
15127TIP3    H145322   5.798   0.861   1.195
15127TIP3    H245323   5.916   0.955   1.197
15128TIP3   OH245324   3.849   4.018   5.052
15128TIP3    H145325   3.902   4.091   5.021
15128TIP3    H245326   3.857   4.020   5.147
15129TIP3   OH245327   5.016   0.401   6.748
15129TIP3    H145328   5.035   0.326   6.692
15129TIP3    H245329   5.088   0.404   6.810
15130TIP3   OH245330   7.985   6.366   3.361
15130TIP3    H145331   7.932   6.400   3.433
15130TIP3    H245332   7.965   6.272   3.358
15131TIP3   OH245333   4.149   3.775   3.932
15131TIP3    H145334   4.141   3.680   3.918
15131TIP3    H245335   4.210   3.784   4.005
15132TIP3   OH245336   8.010   3.557   2.300
15132TIP3    H145337   8.058   3.593   2.225
15132TIP3    H245338   8.005   3.629   2.362
15133TIP3   OH245339   1.454   6.027   1.287
15133TIP3    H145340   1.543   6.017   1.255
15133TIP3    H245341   1.400   6.021   1.208
15134TIP3   OH245342   1.592   3.850   0.435
15134TIP3    H145343   1.549   3.774   0.475
15134TIP3    H245344   1.683   3.843   0.464
15135TIP3   OH245345   7.976   5.188   6.719
15135TIP3    H145346   7.885   5.187   6.749
15135TIP3    H245347   8.026   5.154   6.794
15136TIP3   OH245348   1.641   6.908   4.277
15136TIP3    H145349   1.565   6.888   4.332
15136TIP3    H245350   1.663   6.998   4.299
15137TIP3   OH245351   5.758   5.094   3.901
15137TIP3    H145352   5.748   5.179   3.943
15137TIP3    H245353   5.801   5.040   3.967
15138TIP3   OH245354   8.021   5.981   1.663
15138TIP3    H145355   8.021   6.074   1.641
15138TIP3    H245356   7.968   5.941   1.595
15139TIP3   OH245357   6.706   6.490   5.968
15139TIP3    H145358   6.801   6.497   5.970
15139TIP3    H245359   6.681   6.472   6.058
15140TIP3   OH245360   8.066   0.080   2.193
15140TIP3    H145361   8.107   0.098   2.109
15140TIP3    H245362   8.131   0.106   2.258
15141TIP3   OH245363   6.460   4.057   3.897
15141TIP3    H145364   6.534   4.081   3.842
15141TIP3    H245365   6.487   4.079   3.986
15142TIP3   OH245366   7.665   7.259   3.081
15142TIP3    H145367   7.608   7.327   3.046
15142TIP3    H245368   7.640   7.252   3.173
15143TIP3   OH245369   3.883   0.762   5.541
15143TIP3    H145370   3.897   0.779   5.448
15143TIP3    H245371   3.962   0.795   5.584
15144TIP3   OH245372   4.885   2.984   1.868
15144TIP3    H145373   4.856   2.961   1.956
15144TIP3    H245374   4.857   2.909   1.814
15145TIP3   OH245375   0.881   4.860   1.933
15145TIP3    H145376   0.927   4.938   1.965
15145TIP3    H245377   0.798   4.861   1.979
15146TIP3   OH245378   1.048   4.336   1.269
15146TIP3    H145379   1.025   4.359   1.359
15146TIP3    H245380   1.099   4.410   1.237
15147TIP3   OH245381   4.617   4.002   5.641
15147TIP3    H145382   4.589   4.047   5.720
15147TIP3    H245383   4.706   3.972   5.660
15148TIP3   OH245384   6.036   1.584   5.680
15148TIP3    H145385   6.043   1.624   5.767
15148TIP3    H245386   6.006   1.495   5.697
15149TIP3   OH245387   5.773   4.003   1.186
15149TIP3    H145388   5.766   3.970   1.096
15149TIP3    H245389   5.714   4.078   1.189
15150TIP3   OH245390   7.099   2.035   3.900
15150TIP3    H145391   7.175   2.034   3.959
15150TIP3    H245392   7.069   1.944   3.899
15151TIP3   OH245393   2.707   3.906   3.009
15151TIP3    H145394   2.733   3.827   3.058
15151TIP3    H245395   2.656   3.958   3.072
15152TIP3   OH245396   4.653   5.388   5.890
15152TIP3    H145397   4.730   5.442   5.901
15152TIP3    H245398   4.679   5.322   5.825
15153TIP3   OH245399   2.519   3.916   3.236
15153TIP3    H145400   2.479   3.829   3.231
15153TIP3    H245401   2.607   3.900   3.268
15154TIP3   OH245402   2.229   1.084   0.086
15154TIP3    H145403   2.167   1.014   0.108
15154TIP3    H245404   2.285   1.045   0.019
15155TIP3   OH245405   7.674   0.734   0.045
15155TIP3    H145406   7.585   0.750   0.016
15155TIP3    H245407   7.703   0.816   0.085
15156TIP3   OH245408   2.659   6.163   1.835
15156TIP3    H145409   2.748   6.178   1.866
15156TIP3    H245410   2.614   6.121   1.908
15157TIP3   OH245411   0.631   1.755   4.303
15157TIP3    H145412   0.610   1.735   4.394
15157TIP3    H245413   0.725   1.736   4.296
15158TIP3   OH245414   4.690   2.776   0.740
15158TIP3    H145415   4.704   2.800   0.832
15158TIP3    H245416   4.607   2.817   0.717
15159TIP3   OH245417   1.026   3.264   2.170
15159TIP3    H145418   0.939   3.229   2.188
15159TIP3    H245419   1.061   3.206   2.101
15160TIP3   OH245420   7.196   4.181   2.981
15160TIP3    H145421   7.108   4.211   3.003
15160TIP3    H245422   7.187   4.134   2.899
15161TIP3   OH245423   1.081   3.104   4.619
15161TIP3    H145424   1.170   3.137   4.628
15161TIP3    H245425   1.031   3.152   4.685
15162TIP3   OH245426   3.129   6.164   6.643
15162TIP3    H145427   3.048   6.170   6.693
15162TIP3    H245428   3.165   6.253   6.645
15163TIP3   OH245429   7.880   5.458   1.515
15163TIP3    H145430   7.869   5.364   1.496
15163TIP3    H245431   7.861   5.465   1.608
15164TIP3   OH245432   6.737   4.099   3.372
15164TIP3    H145433   6.826   4.133   3.382
15164TIP3    H245434   6.683   4.153   3.429
15165TIP3   OH245435   7.182   5.049   3.754
15165TIP3    H145436   7.255   5.074   3.810
15165TIP3    H245437   7.110   5.034   3.815
15166TIP3   OH245438   5.980   6.275   3.643
15166TIP3    H145439   5.966   6.235   3.729
15166TIP3    H245440   6.072   6.258   3.623
15167TIP3   OH245441   3.367   6.006   3.168
15167TIP3    H145442   3.277   6.038   3.164
15167TIP3    H245443   3.411   6.049   3.095
15168TIP3   OH245444   2.634   3.752   2.551
15168TIP3    H145445   2.575   3.806   2.498
15168TIP3    H245446   2.587   3.739   2.634
15169TIP3   OH245447   2.256   4.084   3.007
15169TIP3    H145448   2.169   4.124   2.996
15169TIP3    H245449   2.248   3.997   2.966
15170TIP3   OH245450   1.128   5.131   6.322
15170TIP3    H145451   1.093   5.047   6.294
15170TIP3    H245452   1.080   5.195   6.269
15171TIP3   OH245453   5.308   2.962   4.914
15171TIP3    H145454   5.355   2.879   4.908
15171TIP3    H245455   5.316   3.001   4.827
15172TIP3   OH245456   0.944   6.623   4.010
15172TIP3    H145457   0.984   6.564   3.946
15172TIP3    H245458   0.931   6.569   4.088
15173TIP3   OH245459   3.685   7.060   1.451
15173TIP3    H145460   3.625   7.093   1.517
15173TIP3    H245461   3.687   7.129   1.384
15174TIP3   OH245462   7.546   5.761   4.415
15174TIP3    H145463   7.508   5.799   4.494
15174TIP3    H245464   7.564   5.670   4.438
15175TIP3   OH245465   0.027   2.474   3.892
15175TIP3    H145466  -0.046   2.496   3.951
15175TIP3    H245467   0.042   2.553   3.841
15176TIP3   OH245468   2.460   5.831   5.495
15176TIP3    H145469   2.499   5.753   5.455
15176TIP3    H245470   2.402   5.797   5.563
15177TIP3   OH245471   7.829   4.398   5.723
15177TIP3    H145472   7.836   4.397   5.628
15177TIP3    H245473   7.827   4.306   5.748
15178TIP3   OH245474   0.943   3.817   3.669
15178TIP3    H145475   0.929   3.907   3.638
15178TIP3    H245476   0.949   3.825   3.764
15179TIP3   OH245477   7.706   6.006   2.192
15179TIP3    H145478   7.749   5.920   2.199
15179TIP3    H245479   7.671   6.021   2.280
15180TIP3   OH245480   1.665   7.588   3.039
15180TIP3    H145481   1.668   7.521   3.108
15180TIP3    H245482   1.583   7.634   3.053
15181TIP3   OH245483   2.325   3.385   1.509
15181TIP3    H145484   2.377   3.351   1.436
15181TIP3    H245485   2.313   3.478   1.488
15182TIP3   OH245486   1.525   5.284   1.761
15182TIP3    H145487   1.500   5.255   1.673
15182TIP3    H245488   1.462   5.242   1.819
15183TIP3   OH245489   4.389   6.417   5.198
15183TIP3    H145490   4.401   6.350   5.130
15183TIP3    H245491   4.467   6.471   5.192
15184TIP3   OH245492   5.501   0.865   1.720
15184TIP3    H145493   5.510   0.956   1.748
15184TIP3    H245494   5.510   0.814   1.800
15185TIP3   OH245495   2.996   6.151   0.350
15185TIP3    H145496   2.931   6.178   0.285
15185TIP3    H245497   2.980   6.207   0.425
15186TIP3   OH245498   5.133   4.348   1.547
15186TIP3    H145499   5.213   4.299   1.568
15186TIP3    H245500   5.155   4.397   1.468
15187TIP3   OH245501   6.174   1.809   3.195
15187TIP3    H145502   6.205   1.720   3.209
15187TIP3    H245503   6.222   1.861   3.259
15188TIP3   OH245504   5.226   1.783   5.826
15188TIP3    H145505   5.296   1.833   5.785
15188TIP3    H245506   5.222   1.815   5.916
15189TIP3   OH245507   2.558   0.779   4.427
15189TIP3    H145508   2.465   0.759   4.424
15189TIP3    H245509   2.573   0.813   4.516
15190TIP3   OH245510   8.262   7.482   3.001
15190TIP3    H145511   8.233   7.445   2.917
15190TIP3    H245512   8.323   7.552   2.977
15191TIP3   OH245513   5.058   3.684   4.109
15191TIP3    H145514   5.140   3.636   4.097
15191TIP3    H245515   4.992   3.615   4.120
15192TIP3   OH245516   2.850   2.954   5.615
15192TIP3    H145517   2.790   2.944   5.689
15192TIP3    H245518   2.867   2.864   5.586
15193TIP3   OH245519   1.265   1.699   0.589
15193TIP3    H145520   1.279   1.793   0.597
15193TIP3    H245521   1.316   1.674   0.512
15194TIP3   OH245522   6.541   2.566   3.899
15194TIP3    H145523   6.526   2.565   3.993
15194TIP3    H245524   6.585   2.649   3.882
15195TIP3   OH245525   8.237   1.598   1.001
15195TIP3    H145526   8.304   1.662   0.974
15195TIP3    H245527   8.283   1.539   1.060
15196TIP3   OH245528   7.145   4.381   2.666
15196TIP3    H145529   7.215   4.362   2.729
15196TIP3    H245530   7.091   4.447   2.710
15197TIP3   OH245531   2.185   3.774   6.603
15197TIP3    H145532   2.236   3.694   6.596
15197TIP3    H245533   2.096   3.744   6.622
15198TIP3   OH245534   8.390   2.300   6.326
15198TIP3    H145535   8.394   2.284   6.232
15198TIP3    H245536   8.342   2.382   6.335
15199TIP3   OH245537   6.133   5.793   0.350
15199TIP3    H145538   6.056   5.794   0.406
15199TIP3    H245539   6.137   5.881   0.312
15200TIP3   OH245540   2.021   7.708   0.793
15200TIP3    H145541   1.964   7.673   0.724
15200TIP3    H245542   2.030   7.801   0.771
15201TIP3   OH245543   0.555   5.132   1.315
15201TIP3    H145544   0.505   5.052   1.332
15201TIP3    H245545   0.491   5.195   1.283
15202TIP3   OH245546   6.524   6.539   3.006
15202TIP3    H145547   6.601   6.590   3.031
15202TIP3    H245548   6.453   6.574   3.060
15203TIP3   OH245549   5.624   7.167   5.684
15203TIP3    H145550   5.583   7.084   5.657
15203TIP3    H245551   5.681   7.190   5.611
15204TIP3   OH245552   1.978   6.652  -0.004
15204TIP3    H145553   1.889   6.635   0.028
15204TIP3    H245554   2.017   6.709   0.063
15205TIP3   OH245555   5.517   1.479   4.985
15205TIP3    H145556   5.535   1.403   5.040
15205TIP3    H245557   5.422   1.482   4.978
15206TIP3   OH245558   6.935   1.720   2.630
15206TIP3    H145559   6.847   1.745   2.657
15206TIP3    H245560   6.974   1.801   2.597
15207TIP3   OH245561   1.624   2.901   3.795
15207TIP3    H145562   1.609   2.868   3.884
15207TIP3    H245563   1.537   2.903   3.755
15208TIP3   OH245564   2.268   0.713   0.912
15208TIP3    H145565   2.274   0.769   0.990
15208TIP3    H245566   2.221   0.635   0.943
15209TIP3   OH245567   3.253   5.466   2.050
15209TIP3    H145568   3.256   5.415   2.131
15209TIP3    H245569   3.343   5.494   2.036
15210TIP3   OH245570   4.363   1.363   5.202
15210TIP3    H145571   4.433   1.323   5.252
15210TIP3    H245572   4.341   1.442   5.251
15211TIP3   OH245573   0.134   1.627   0.930
15211TIP3    H145574   0.186   1.609   1.008
15211TIP3    H245575   0.193   1.606   0.857
15212TIP3   OH245576   2.061   7.083   2.283
15212TIP3    H145577   1.987   7.038   2.242
15212TIP3    H245578   2.028   7.110   2.369
15213TIP3   OH245579   4.629   0.181   1.391
15213TIP3    H145580   4.659   0.111   1.332
15213TIP3    H245581   4.548   0.146   1.430
15214TIP3   OH245582   7.557   6.273   3.352
15214TIP3    H145583   7.580   6.277   3.259
15214TIP3    H245584   7.475   6.224   3.354
15215TIP3   OH245585   1.114   1.434   4.148
15215TIP3    H145586   1.083   1.344   4.157
15215TIP3    H245587   1.208   1.425   4.132
15216TIP3   OH245588   1.035   2.415   6.732
15216TIP3    H145589   0.992   2.354   6.672
15216TIP3    H245590   0.989   2.498   6.719
15217TIP3   OH245591   0.563   2.370   5.537
15217TIP3    H145592   0.520   2.402   5.457
15217TIP3    H245593   0.608   2.447   5.573
15218TIP3   OH245594   7.913   0.289   5.418
15218TIP3    H145595   8.001   0.327   5.414
15218TIP3    H245596   7.919   0.209   5.365
15219TIP3   OH245597   4.395   5.494   3.530
15219TIP3    H145598   4.317   5.458   3.487
15219TIP3    H245599   4.448   5.418   3.550
15220TIP3   OH245600   6.658   2.190   1.661
15220TIP3    H145601   6.704   2.274   1.659
15220TIP3    H245602   6.724   2.126   1.636
15221TIP3   OH245603   6.123   1.182   5.515
15221TIP3    H145604   6.057   1.203   5.449
15221TIP3    H245605   6.073   1.164   5.594
15222TIP3   OH245606   5.617   4.792   4.012
15222TIP3    H145607   5.699   4.758   4.047
15222TIP3    H245608   5.555   4.787   4.085
15223TIP3   OH245609   4.996   3.202   1.055
15223TIP3    H145610   4.943   3.223   1.133
15223TIP3    H245611   4.933   3.202   0.983
15224TIP3   OH245612   0.753   2.823   2.029
15224TIP3    H145613   0.692   2.895   2.015
15224TIP3    H245614   0.794   2.842   2.113
15225TIP3   OH245615   2.611   7.690   5.553
15225TIP3    H145616   2.558   7.754   5.600
15225TIP3    H245617   2.608   7.719   5.462
15226TIP3   OH245618   4.014   7.596   1.392
15226TIP3    H145619   3.956   7.530   1.354
15226TIP3    H245620   4.057   7.552   1.465
15227TIP3   OH245621   5.672   3.020   4.854
15227TIP3    H145622   5.645   2.975   4.774
15227TIP3    H245623   5.755   3.062   4.832
15228TIP3   OH245624   4.465   6.364   2.333
15228TIP3    H145625   4.531   6.297   2.355
15228TIP3    H245626   4.496   6.402   2.250
15229TIP3   OH245627   6.217   6.035   3.231
15229TIP3    H145628   6.194   6.064   3.143
15229TIP3    H245629   6.134   6.020   3.275
15230TIP3   OH245630   7.015   7.564   5.878
15230TIP3    H145631   6.991   7.610   5.958
15230TIP3    H245632   7.109   7.583   5.867
15231TIP3   OH245633   5.666   2.850   1.876
15231TIP3    H145634   5.637   2.763   1.848
15231TIP3    H245635   5.586   2.901   1.884
15232TIP3   OH245636   8.202   6.283   4.256
15232TIP3    H145637   8.108   6.280   4.235
15232TIP3    H245638   8.204   6.304   4.350
15233TIP3   OH245639   1.140   3.107   5.853
15233TIP3    H145640   1.092   3.117   5.771
15233TIP3    H245641   1.217   3.163   5.843
15234TIP3   OH245642   1.766   2.256   3.215
15234TIP3    H145643   1.802   2.344   3.203
15234TIP3    H245644   1.728   2.234   3.130
15235TIP3   OH245645   4.692   7.770   5.471
15235TIP3    H145646   4.671   7.846   5.525
15235TIP3    H245647   4.779   7.790   5.435
15236TIP3   OH245648   4.098   7.277   2.482
15236TIP3    H145649   4.189   7.299   2.462
15236TIP3    H245650   4.069   7.348   2.539
15237TIP3   OH245651   2.581   3.083   3.972
15237TIP3    H145652   2.487   3.076   3.984
15237TIP3    H245653   2.591   3.147   3.901
15238TIP3   OH245654   7.367   0.774   2.193
15238TIP3    H145655   7.413   0.798   2.273
15238TIP3    H245656   7.290   0.726   2.223
15239TIP3   OH245657   4.063   1.044   2.339
15239TIP3    H145658   4.044   1.124   2.290
15239TIP3    H245659   4.106   1.074   2.418
15240TIP3   OH245660   7.151   3.872   1.018
15240TIP3    H145661   7.061   3.851   1.043
15240TIP3    H245662   7.144   3.947   0.959
15241TIP3   OH245663   8.078   0.953   5.172
15241TIP3    H145664   8.146   0.905   5.219
15241TIP3    H245665   8.081   1.041   5.209
15242TIP3   OH245666   4.869   2.225   3.830
15242TIP3    H145667   4.862   2.254   3.921
15242TIP3    H245668   4.803   2.275   3.783
15243TIP3   OH245669   0.284   7.638   1.133
15243TIP3    H145670   0.252   7.649   1.222
15243TIP3    H245671   0.288   7.727   1.097
15244TIP3   OH245672   1.110   5.193   6.593
15244TIP3    H145673   1.134   5.194   6.500
15244TIP3    H245674   1.194   5.194   6.638
15245TIP3   OH245675   5.570  -0.001   0.019
15245TIP3    H145676   5.610   0.083   0.043
15245TIP3    H245677   5.479   0.020   0.000
15246TIP3   OH245678   7.668   5.284   1.997
15246TIP3    H145679   7.705   5.226   2.064
15246TIP3    H245680   7.580   5.250   1.982
15247TIP3   OH245681   1.623  -0.010   4.409
15247TIP3    H145682   1.706   0.038   4.407
15247TIP3    H245683   1.556   0.057   4.418
15248TIP3   OH245684   1.398   0.633   1.018
15248TIP3    H145685   1.401   0.712   0.964
15248TIP3    H245686   1.401   0.665   1.108
15249TIP3   OH245687   3.865   0.985   3.448
15249TIP3    H145688   3.868   1.072   3.408
15249TIP3    H245689   3.913   0.994   3.530
15250TIP3   OH245690   1.018   1.589   0.638
15250TIP3    H145691   1.012   1.516   0.700
15250TIP3    H245692   1.106   1.624   0.650
15251TIP3   OH245693   1.986   2.298   0.328
15251TIP3    H145694   1.891   2.289   0.326
15251TIP3    H245695   2.003   2.367   0.393
15252TIP3   OH245696   0.078   3.959   2.585
15252TIP3    H145697  -0.001   3.967   2.532
15252TIP3    H245698   0.130   3.891   2.541
15253TIP3   OH245699   3.061   0.928   0.036
15253TIP3    H145700   3.123   0.859   0.062
15253TIP3    H245701   3.041   0.908  -0.055
15254TIP3   OH245702   3.800   4.693   1.172
15254TIP3    H145703   3.836   4.697   1.084
15254TIP3    H245704   3.713   4.655   1.161
15255TIP3   OH245705   6.117   2.218   3.891
15255TIP3    H145706   6.196   2.235   3.942
15255TIP3    H245707   6.074   2.146   3.937
15256TIP3   OH245708   3.945   0.882   4.728
15256TIP3    H145709   3.927   0.975   4.714
15256TIP3    H245710   4.003   0.880   4.804
15257TIP3   OH245711   7.200   7.101   4.506
15257TIP3    H145712   7.124   7.079   4.452
15257TIP3    H245713   7.274   7.063   4.459
15258TIP3   OH245714   8.385   5.922   0.532
15258TIP3    H145715   8.359   5.926   0.440
15258TIP3    H245716   8.306   5.946   0.580
15259TIP3   OH245717   6.490   0.549   4.920
15259TIP3    H145718   6.400   0.521   4.904
15259TIP3    H245719   6.544   0.487   4.871
15260TIP3   OH245720   4.100   2.252   2.115
15260TIP3    H145721   4.177   2.225   2.065
15260TIP3    H245722   4.029   2.253   2.051
15261TIP3   OH245723   4.305   5.719   4.717
15261TIP3    H145724   4.315   5.734   4.811
15261TIP3    H245725   4.259   5.635   4.712
15262TIP3   OH245726   0.504   7.676   5.351
15262TIP3    H145727   0.422   7.711   5.386
15262TIP3    H245728   0.568   7.747   5.364
15263TIP3   OH245729   4.518   4.968   1.543
15263TIP3    H145730   4.514   4.883   1.499
15263TIP3    H245731   4.586   5.016   1.496
15264TIP3   OH245732   1.166   3.639   3.712
15264TIP3    H145733   1.093   3.697   3.689
15264TIP3    H245734   1.231   3.655   3.644
15265TIP3   OH245735   2.635   6.125   5.125
15265TIP3    H145736   2.676   6.067   5.189
15265TIP3    H245737   2.649   6.213   5.159
15266TIP3   OH245738   0.660   0.152   6.855
15266TIP3    H145739   0.655   0.211   6.780
15266TIP3    H245740   0.735   0.096   6.837
15267TIP3   OH245741   3.192   3.285   5.426
15267TIP3    H145742   3.281   3.299   5.458
15267TIP3    H245743   3.150   3.233   5.495
15268TIP3   OH245744   5.539   5.755   6.575
15268TIP3    H145745   5.595   5.765   6.498
15268TIP3    H245746   5.472   5.823   6.564
15269TIP3   OH245747   5.189   4.393   5.919
15269TIP3    H145748   5.234   4.477   5.918
15269TIP3    H245749   5.260   4.329   5.930
15270TIP3   OH245750   6.662   7.069   2.603
15270TIP3    H145751   6.572   7.044   2.621
15270TIP3    H245752   6.678   7.041   2.513
15271TIP3   OH245753   1.630   7.032   5.521
15271TIP3    H145754   1.654   7.035   5.613
15271TIP3    H245755   1.623   7.124   5.495
15272TIP3   OH245756   6.333   5.037   6.499
15272TIP3    H145757   6.319   5.106   6.434
15272TIP3    H245758   6.402   5.071   6.556
15273TIP3   OH245759   7.297   7.924   6.017
15273TIP3    H145760   7.393   7.920   6.022
15273TIP3    H245761   7.273   7.855   5.955
15274TIP3   OH245762   8.176   2.168   5.310
15274TIP3    H145763   8.136   2.150   5.395
15274TIP3    H245764   8.266   2.195   5.331
15275TIP3   OH245765  -0.007   7.622   6.085
15275TIP3    H145766  -0.042   7.711   6.093
15275TIP3    H245767   0.069   7.621   6.143
15276TIP3   OH245768   6.084   1.483   1.942
15276TIP3    H145769   6.078   1.535   2.021
15276TIP3    H245770   6.040   1.401   1.963
15277TIP3   OH245771   7.824   2.224   1.738
15277TIP3    H145772   7.784   2.298   1.784
15277TIP3    H245773   7.797   2.147   1.789
15278TIP3   OH245774   3.388   2.148   3.273
15278TIP3    H145775   3.439   2.073   3.243
15278TIP3    H245776   3.374   2.200   3.193
15279TIP3   OH245777   2.282   0.220   0.474
15279TIP3    H145778   2.201   0.170   0.485
15279TIP3    H245779   2.292   0.227   0.379
15280TIP3   OH245780   3.360   7.208   3.323
15280TIP3    H145781   3.402   7.208   3.237
15280TIP3    H245782   3.398   7.134   3.369
15281TIP3   OH245783   2.728   1.699   6.068
15281TIP3    H145784   2.743   1.611   6.032
15281TIP3    H245785   2.742   1.689   6.162
15282TIP3   OH245786   6.220   2.325   1.016
15282TIP3    H145787   6.271   2.258   1.062
15282TIP3    H245788   6.177   2.374   1.086
15283TIP3   OH245789   5.009   2.505   3.637
15283TIP3    H145790   4.986   2.482   3.547
15283TIP3    H245791   5.062   2.584   3.628
15284TIP3   OH245792   5.720   2.424   0.913
15284TIP3    H145793   5.673   2.348   0.881
15284TIP3    H245794   5.654   2.473   0.963
15285TIP3   OH245795   2.964   7.567   5.453
15285TIP3    H145796   2.940   7.657   5.474
15285TIP3    H245797   3.057   7.572   5.429
15286TIP3   OH245798   1.305   1.713   0.301
15286TIP3    H145799   1.241   1.646   0.274
15286TIP3    H245800   1.390   1.674   0.280
15287TIP3   OH245801   2.297   6.164   4.280
15287TIP3    H145802   2.279   6.258   4.279
15287TIP3    H245803   2.387   6.156   4.246
15288TIP3   OH245804   4.805   5.387   0.641
15288TIP3    H145805   4.894   5.372   0.610
15288TIP3    H245806   4.813   5.395   0.736
15289TIP3   OH245807   6.712   6.591   4.162
15289TIP3    H145808   6.717   6.642   4.243
15289TIP3    H245809   6.791   6.537   4.163
15290TIP3   OH245810   7.331   1.284   4.820
15290TIP3    H145811   7.339   1.194   4.789
15290TIP3    H245812   7.421   1.317   4.825
15291TIP3   OH245813   1.445   4.202   1.108
15291TIP3    H145814   1.417   4.261   1.038
15291TIP3    H245815   1.392   4.228   1.183
15292TIP3   OH245816   5.681   4.041   4.226
15292TIP3    H145817   5.685   4.052   4.131
15292TIP3    H245818   5.687   3.946   4.239
15293TIP3   OH245819   6.433   5.253   2.895
15293TIP3    H145820   6.380   5.176   2.914
15293TIP3    H245821   6.397   5.288   2.814
15294TIP3   OH245822   4.634   4.782   2.080
15294TIP3    H145823   4.608   4.838   2.006
15294TIP3    H245824   4.630   4.839   2.156
15295TIP3   OH245825   3.555   5.808   3.199
15295TIP3    H145826   3.488   5.866   3.164
15295TIP3    H245827   3.545   5.816   3.294
15296TIP3   OH245828   8.249   6.749   4.896
15296TIP3    H145829   8.333   6.763   4.940
15296TIP3    H245830   8.185   6.743   4.967
15297TIP3   OH245831   1.649   4.814   1.109
15297TIP3    H145832   1.704   4.858   1.175
15297TIP3    H245833   1.709   4.797   1.036
15298TIP3   OH245834   0.995   3.725   2.829
15298TIP3    H145835   0.963   3.642   2.865
15298TIP3    H245836   0.915   3.774   2.807
15299TIP3   OH245837   5.721   5.700   4.806
15299TIP3    H145838   5.680   5.679   4.722
15299TIP3    H245839   5.755   5.789   4.796
15300TIP3   OH245840   3.948   7.431   6.623
15300TIP3    H145841   3.946   7.396   6.712
15300TIP3    H245842   4.041   7.438   6.603
15301TIP3   OH245843   8.396   3.211   3.507
15301TIP3    H145844   8.388   3.199   3.412
15301TIP3    H245845   8.356   3.297   3.524
15302TIP3   OH245846   5.915   3.890   2.384
15302TIP3    H145847   6.001   3.849   2.369
15302TIP3    H245848   5.876   3.837   2.453
15303TIP3   OH245849   0.664   6.321   6.087
15303TIP3    H145850   0.715   6.384   6.138
15303TIP3    H245851   0.729   6.263   6.048
15304TIP3   OH245852   2.590   2.989   5.800
15304TIP3    H145853   2.495   2.991   5.813
15304TIP3    H245854   2.618   3.080   5.811
15305TIP3   OH245855   3.205   1.072   3.636
15305TIP3    H145856   3.153   1.111   3.566
15305TIP3    H245857   3.275   1.024   3.591
15306TIP3   OH245858   5.846   4.625   2.023
15306TIP3    H145859   5.901   4.652   2.097
15306TIP3    H245860   5.815   4.537   2.047
15307TIP3   OH245861   8.091   0.304   0.913
15307TIP3    H145862   8.048   0.237   0.965
15307TIP3    H245863   8.138   0.358   0.977
15308TIP3   OH245864   5.031   4.701   1.136
15308TIP3    H145865   5.054   4.682   1.045
15308TIP3    H245866   5.080   4.781   1.157
15309TIP3   OH245867   7.141   2.446   6.276
15309TIP3    H145868   7.056   2.442   6.232
15309TIP3    H245869   7.183   2.363   6.255
15310TIP3   OH245870   4.141   5.448   0.140
15310TIP3    H145871   4.098   5.404   0.066
15310TIP3    H245872   4.092   5.420   0.217
15311TIP3   OH245873   0.689   5.113   1.933
15311TIP3    H145874   0.705   5.196   1.977
15311TIP3    H245875   0.773   5.089   1.895
15312TIP3   OH245876   3.892   5.859   3.600
15312TIP3    H145877   3.973   5.908   3.588
15312TIP3    H245878   3.846   5.905   3.671
15313TIP3   OH245879   8.036   4.292   1.608
15313TIP3    H145880   7.985   4.366   1.642
15313TIP3    H245881   8.058   4.240   1.685
15314TIP3   OH245882   5.801   6.849   6.425
15314TIP3    H145883   5.894   6.866   6.438
15314TIP3    H245884   5.779   6.783   6.491
15315TIP3   OH245885   6.640   1.541   0.297
15315TIP3    H145886   6.664   1.452   0.271
15315TIP3    H245887   6.679   1.596   0.229
15316TIP3   OH245888   7.245   2.695   2.038
15316TIP3    H145889   7.251   2.604   2.008
15316TIP3    H245890   7.157   2.702   2.075
15317TIP3   OH245891   4.744   5.443   0.136
15317TIP3    H145892   4.838   5.426   0.138
15317TIP3    H245893   4.706   5.363   0.100
15318TIP3   OH245894   0.440   1.444   6.141
15318TIP3    H145895   0.460   1.529   6.102
15318TIP3    H245896   0.457   1.381   6.071
15319TIP3   OH245897   0.804   5.166   6.651
15319TIP3    H145898   0.898   5.184   6.648
15319TIP3    H245899   0.765   5.248   6.682
15320TIP3   OH245900   3.414   3.667   4.347
15320TIP3    H145901   3.469   3.746   4.353
15320TIP3    H245902   3.330   3.700   4.314
15321TIP3   OH245903   6.851   0.006   3.360
15321TIP3    H145904   6.866   0.048   3.275
15321TIP3    H245905   6.774  -0.049   3.345
15322TIP3   OH245906   6.339   1.774   6.737
15322TIP3    H145907   6.394   1.809   6.806
15322TIP3    H245908   6.367   1.683   6.727
15323TIP3   OH245909   3.278   1.060   4.780
15323TIP3    H145910   3.267   1.129   4.846
15323TIP3    H245911   3.300   1.107   4.700
15324TIP3   OH245912   8.227   5.303   2.921
15324TIP3    H145913   8.164   5.237   2.951
15324TIP3    H245914   8.305   5.253   2.896
15325TIP3   OH245915   2.998   4.106   5.030
15325TIP3    H145916   2.912   4.111   5.071
15325TIP3    H245917   3.060   4.106   5.104
15326TIP3   OH245918   0.608   0.148   4.547
15326TIP3    H145919   0.651   0.233   4.539
15326TIP3    H245920   0.599   0.117   4.457
15327TIP3   OH245921   2.377   5.723   0.455
15327TIP3    H145922   2.468   5.736   0.429
15327TIP3    H245923   2.379   5.646   0.512
15328TIP3   OH245924   5.092   4.747   2.742
15328TIP3    H145925   5.120   4.753   2.650
15328TIP3    H245926   5.017   4.806   2.748
15329TIP3   OH245927   8.330   3.104   4.860
15329TIP3    H145928   8.423   3.106   4.884
15329TIP3    H245929   8.316   3.017   4.824
15330TIP3   OH245930   5.328   0.379  -0.050
15330TIP3    H145931   5.389   0.433  -0.101
15330TIP3    H245932   5.343   0.405   0.041
15331TIP3   OH245933   1.467   7.681   6.145
15331TIP3    H145934   1.487   7.717   6.232
15331TIP3    H245935   1.532   7.612   6.133
15332TIP3   OH245936   0.576   0.808   5.276
15332TIP3    H145937   0.548   0.796   5.186
15332TIP3    H245938   0.671   0.805   5.273
15333TIP3   OH245939   5.346   6.097   5.843
15333TIP3    H145940   5.361   6.192   5.849
15333TIP3    H245941   5.395   6.070   5.766
15334TIP3   OH245942   4.972   3.953   0.764
15334TIP3    H145943   4.987   3.883   0.701
15334TIP3    H245944   4.878   3.971   0.759
15335TIP3   OH245945   6.201   2.369   6.552
15335TIP3    H145946   6.237   2.432   6.614
15335TIP3    H245947   6.159   2.302   6.608
15336TIP3   OH245948   5.321   5.723   4.380
15336TIP3    H145949   5.384   5.786   4.415
15336TIP3    H245950   5.259   5.775   4.330
15337TIP3   OH245951   7.503   7.487   4.517
15337TIP3    H145952   7.508   7.581   4.536
15337TIP3    H245953   7.412   7.473   4.489
15338TIP3   OH245954   3.956   2.476   3.890
15338TIP3    H145955   3.985   2.514   3.973
15338TIP3    H245956   3.988   2.536   3.823
15339TIP3   OH245957   5.126   0.088   5.312
15339TIP3    H145958   5.058   0.056   5.371
15339TIP3    H245959   5.197   0.116   5.370
15340TIP3   OH245960   7.923   3.073   5.381
15340TIP3    H145961   7.994   3.014   5.357
15340TIP3    H245962   7.850   3.014   5.401
15341TIP3   OH245963   4.814   0.320   4.491
15341TIP3    H145964   4.831   0.308   4.398
15341TIP3    H245965   4.859   0.401   4.514
15342TIP3   OH245966   7.967   3.107   5.997
15342TIP3    H145967   8.034   3.161   6.039
15342TIP3    H245968   7.884   3.138   6.033
15343TIP3   OH245969   7.156   7.854   4.670
15343TIP3    H145970   7.160   7.843   4.575
15343TIP3    H245971   7.244   7.833   4.700
15344TIP3   OH245972   1.293   4.500   4.153
15344TIP3    H145973   1.222   4.453   4.109
15344TIP3    H245974   1.368   4.441   4.147
15345TIP3   OH245975   3.412   1.680   5.915
15345TIP3    H145976   3.335   1.708   5.963
15345TIP3    H245977   3.433   1.593   5.950
15346TIP3   OH245978   4.163   6.531   3.069
15346TIP3    H145979   4.222   6.519   3.144
15346TIP3    H245980   4.175   6.623   3.044
15347TIP3   OH245981   5.342   1.585   1.621
15347TIP3    H145982   5.308   1.674   1.620
15347TIP3    H245983   5.404   1.584   1.695
15348TIP3   OH245984   6.338   3.538   4.404
15348TIP3    H145985   6.370   3.576   4.486
15348TIP3    H245986   6.401   3.470   4.382
15349TIP3   OH245987   7.849   6.782   1.556
15349TIP3    H145988   7.761   6.786   1.593
15349TIP3    H245989   7.845   6.838   1.479
15350TIP3   OH245990   4.508   7.354   3.494
15350TIP3    H145991   4.570   7.281   3.498
15350TIP3    H245992   4.556   7.423   3.448
15351TIP3   OH245993   5.144   2.105   3.532
15351TIP3    H145994   5.201   2.176   3.561
15351TIP3    H245995   5.084   2.090   3.605
15352TIP3   OH245996   4.261   6.043   6.591
15352TIP3    H145997   4.219   6.005   6.514
15352TIP3    H245998   4.189   6.063   6.651
15353TIP3   OH245999   7.641   6.646   1.313
15353TIP3    H146000   7.594   6.565   1.337
15353TIP3    H246001   7.719   6.616   1.267
15354TIP3   OH246002   3.881   3.418   1.317
15354TIP3    H146003   3.956   3.470   1.288
15354TIP3    H246004   3.912   3.373   1.396
15355TIP3   OH246005   5.198   1.865   2.946
15355TIP3    H146006   5.138   1.927   2.906
15355TIP3    H246007   5.197   1.789   2.888
15356TIP3   OH246008   0.611   3.542   0.590
15356TIP3    H146009   0.635   3.514   0.678
15356TIP3    H246010   0.528   3.498   0.572
15357TIP3   OH246011   7.998   4.439   1.844
15357TIP3    H146012   7.978   4.449   1.937
15357TIP3    H246013   7.914   4.453   1.800
15358TIP3   OH246014   0.897   7.796   6.136
15358TIP3    H146015   0.918   7.874   6.084
15358TIP3    H246016   0.963   7.732   6.109
15359TIP3   OH246017   1.256   7.505   5.652
15359TIP3    H146018   1.205   7.529   5.574
15359TIP3    H246019   1.292   7.588   5.684
15360TIP3   OH246020   2.260   0.078   2.589
15360TIP3    H146021   2.233   0.058   2.499
15360TIP3    H246022   2.187   0.048   2.643
15361TIP3   OH246023   6.586   5.105   2.484
15361TIP3    H146024   6.624   5.171   2.542
15361TIP3    H246025   6.504   5.079   2.527
15362TIP3   OH246026   1.848   6.680   3.474
15362TIP3    H146027   1.894   6.645   3.397
15362TIP3    H246028   1.917   6.703   3.535
15363TIP3   OH246029   3.483   5.989   0.526
15363TIP3    H146030   3.561   5.934   0.528
15363TIP3    H246031   3.410   5.928   0.530
15364TIP3   OH246032   0.161   7.450   4.393
15364TIP3    H146033   0.215   7.472   4.317
15364TIP3    H246034   0.080   7.416   4.356
15365TIP3   OH246035   8.067   7.437   5.561
15365TIP3    H146036   8.094   7.346   5.571
15365TIP3    H246037   8.144   7.488   5.585
15366TIP3   OH246038   0.868   2.622   2.270
15366TIP3    H146039   0.963   2.628   2.267
15366TIP3    H246040   0.842   2.589   2.184
15367TIP3   OH246041   3.439   2.269   0.033
15367TIP3    H146042   3.358   2.245   0.078
15367TIP3    H246043   3.412   2.332  -0.034
15368TIP3   OH246044   8.247   2.392   4.998
15368TIP3    H146045   8.306   2.345   5.056
15368TIP3    H246046   8.185   2.326   4.967
15369TIP3   OH246047   5.181   0.694   3.368
15369TIP3    H146048   5.271   0.718   3.346
15369TIP3    H246049   5.190   0.620   3.429
15370TIP3   OH246050   4.439   3.765   2.574
15370TIP3    H146051   4.377   3.710   2.525
15370TIP3    H246052   4.386   3.840   2.602
15371TIP3   OH246053   3.404   3.841   5.611
15371TIP3    H146054   3.374   3.786   5.683
15371TIP3    H246055   3.499   3.839   5.616
   8.39921   7.91885   6.85792   0.00000   0.00000  -2.79974   0.00000  -2.79974  -3.95942
