Title
29212
    1ASP      N    1   5.795   6.325   2.304 -0.1824  0.0922  0.4844
    1ASP    HT1    2   5.739   6.310   2.217 -0.6887  1.7669  0.4919
    1ASP    HT2    3   5.730   6.374   2.369 -2.1116  1.0266 -1.9864
    1ASP    HT3    4   5.825   6.231   2.335  0.4116  0.2420  0.3682
    1ASP     CA    5   5.936   6.386   2.288  0.3619  0.3681 -0.2288
    1ASP     HA    6   5.974   6.391   2.388 -0.2910 -1.9783  0.2023
    1ASP     CB    7   6.025   6.288   2.203  0.9234  0.0221  0.1906
    1ASP    HB1    8   6.126   6.328   2.181  1.7680 -1.7958  0.5989
    1ASP    HB2    9   5.967   6.269   2.110 -1.9340  1.8623  1.4519
    1ASP     CG   10   6.050   6.156   2.264  0.0487  0.0906  0.3743
    1ASP    OD1   11   5.957   6.110   2.337 -0.2916 -0.4836 -0.1492
    1ASP    OD2   12   6.146   6.083   2.240 -0.2680 -0.0035 -0.4138
    1ASP      C   13   5.931   6.536   2.233 -0.4253 -0.4157  1.5789
    1ASP      O   14   5.925   6.629   2.310 -0.1245 -0.0953 -0.1570
    2GLY      N   15   5.933   6.551   2.099  0.4193 -0.0795 -0.2838
    2GLY     HN   16   5.934   6.473   2.038 -2.7834 -0.5442  0.1075
    2GLY     CA   17   5.933   6.683   2.036 -0.4367 -0.4381  0.0212
    2GLY    HA1   18   5.845   6.738   2.063  0.0342  0.9080 -1.0647
    2GLY    HA2   19   5.920   6.662   1.930  0.5649  1.2644 -0.4761
    2GLY      C   20   6.061   6.775   2.062  0.4903 -0.0300  0.0789
    2GLY      O   21   6.166   6.734   2.105 -0.4573 -0.1564  0.1954
    3ASP      N   22   6.051   6.903   2.027  0.3518  0.4856 -0.1271
    3ASP     HN   23   5.967   6.936   1.986  0.9470  1.2617 -0.7504
    3ASP     CA   24   6.158   7.005   2.050 -0.3601  0.4383 -0.6581
    3ASP     HA   25   6.254   6.974   2.012  0.5966  1.1299  1.0889
    3ASP     CB   26   6.126   7.137   1.968 -0.2782 -0.3154 -0.5430
    3ASP    HB1   27   6.200   7.219   1.984  0.6391 -0.5591 -3.0394
    3ASP    HB2   28   6.026   7.169   2.005 -0.4160 -2.2357  0.8417
    3ASP     CG   29   6.119   7.109   1.826  0.5298  0.1434  0.1273
    3ASP    OD1   30   6.046   7.183   1.758  0.7915 -0.2091  0.5887
    3ASP    OD2   31   6.179   7.017   1.771 -0.6081  0.1074  0.0135
    3ASP      C   32   6.171   7.023   2.198 -1.1810 -0.0037  0.3005
    3ASP      O   33   6.071   7.035   2.275  0.7977  0.2135  0.4323
    4GLY      N   34   6.298   7.018   2.247  0.3722 -0.6131 -0.3503
    4GLY     HN   35   6.374   7.011   2.183  0.4234  0.1570 -0.3866
    4GLY     CA   36   6.342   7.040   2.382  0.3474  0.1617 -0.3218
    4GLY    HA1   37   6.445   7.010   2.387  0.4308  0.4636 -0.2373
    4GLY    HA2   38   6.294   6.967   2.445 -2.0173 -1.2994 -3.4913
    4GLY      C   39   6.346   7.187   2.433  0.2103  0.5552 -0.6233
    4GLY      O   40   6.307   7.280   2.363  0.0401 -0.3020  0.2190
    5PRO      N   41   6.392   7.202   2.558 -0.3570 -0.0973  0.2688
    5PRO     CD   42   6.396   7.092   2.654 -0.0405 -0.0462  0.2004
    5PRO    HD1   43   6.491   7.036   2.649  0.0755  0.0446  1.1673
    5PRO    HD2   44   6.303   7.034   2.636 -0.9971  2.0492 -2.2328
    5PRO     CA   45   6.374   7.330   2.630 -0.5222  0.0859  0.4767
    5PRO     HA   46   6.267   7.341   2.647 -1.5186 -1.3328 -3.6914
    5PRO     CB   47   6.431   7.305   2.766  0.1882  0.0320  0.7562
    5PRO    HB1   48   6.371   7.355   2.844 -2.0001 -2.1879  0.6203
    5PRO    HB2   49   6.539   7.331   2.777 -0.1980  3.5695 -1.9709
    5PRO     CG   50   6.402   7.154   2.791 -0.6592 -0.2163  0.1613
    5PRO    HG1   51   6.484   7.105   2.849  0.2012 -1.1543 -1.7557
    5PRO    HG2   52   6.304   7.129   2.836 -0.7578 -0.6388 -0.2832
    5PRO      C   53   6.430   7.453   2.564  0.5145 -0.1630  0.3139
    5PRO      O   54   6.544   7.454   2.517 -0.1089  0.9535  0.1188
    6GLY      N   55   6.346   7.558   2.563  0.1522 -0.4831  0.6215
    6GLY     HN   56   6.257   7.538   2.603  0.6071 -0.4217  1.7013
    6GLY     CA   57   6.378   7.697   2.536 -0.3951  0.5002  0.5158
    6GLY    HA1   58   6.296   7.759   2.503  0.7984  1.4111 -0.9005
    6GLY    HA2   59   6.458   7.704   2.464 -0.2222  0.8343  0.7356
    6GLY      C   60   6.431   7.762   2.666 -0.1322 -0.0575  0.3072
    6GLY      O   61   6.489   7.699   2.754  0.5551  0.4177  0.1632
    7ASP      N   62   6.411   7.891   2.679 -0.6783 -0.3933  0.0729
    7ASP     HN   63   6.375   7.949   2.606  3.4254  0.1867 -1.7725
    7ASP     CA   64   6.458   7.970   2.790  0.2988 -0.2915 -0.2195
    7ASP     HA   65   6.565   7.968   2.775  0.4227 -0.1325  0.6034
    7ASP     CB   66   6.398   8.114   2.784  0.2783  0.3205 -1.1059
    7ASP    HB1   67   6.434   8.172   2.872  0.9791 -0.6955 -0.7039
    7ASP    HB2   68   6.288   8.109   2.776 -0.0513  1.9053  1.3179
    7ASP     CG   69   6.436   8.190   2.662 -0.5951  0.1790 -0.6435
    7ASP    OD1   70   6.527   8.151   2.585 -0.2837  0.2965  0.3647
    7ASP    OD2   71   6.390   8.302   2.655  0.2803  0.3149  0.2471
    7ASP      C   72   6.415   7.917   2.927 -0.3595 -0.1264 -0.0702
    7ASP      O   73   6.302   7.872   2.942  0.2907 -0.9878 -0.0020
    8PRO      N   74   6.501   7.927   3.034  0.1929  0.7849 -0.2958
    8PRO     CD   75   6.646   7.947   3.017  0.0226  0.3181 -0.3663
    8PRO    HD1   76   6.664   8.056   3.001  2.7025 -0.0271 -0.2186
    8PRO    HD2   77   6.693   7.893   2.932  1.6531  2.0973 -0.6584
    8PRO     CA   78   6.467   7.910   3.173 -0.6620  0.1788  0.0510
    8PRO     HA   79   6.456   7.807   3.202 -1.5219 -0.5386 -2.5111
    8PRO     CB   80   6.596   7.970   3.244  0.3002  0.9256  0.4976
    8PRO    HB1   81   6.610   7.940   3.350 -2.6809 -2.1940  0.1738
    8PRO    HB2   82   6.596   8.081   3.253  0.1386  0.9277  0.4720
    8PRO     CG   83   6.708   7.916   3.153 -0.4345  0.2272  0.0759
    8PRO    HG1   84   6.800   7.977   3.166  1.3380 -2.3590  0.4254
    8PRO    HG2   85   6.722   7.806   3.165  1.2405  0.2703 -1.2161
    8PRO      C   86   6.339   7.973   3.216 -0.4522 -0.6376  0.6448
    8PRO      O   87   6.316   8.095   3.191 -0.4446  1.0045 -0.6141
    9GLY      N   88   6.245   7.901   3.276  0.3037  0.0634 -0.1532
    9GLY     HN   89   6.254   7.802   3.284  0.9335 -0.0273 -1.6091
    9GLY     CA   90   6.117   7.959   3.307 -0.3164 -0.3173  0.6649
    9GLY    HA1   91   6.051   7.873   3.307 -1.6774  0.6698 -0.6535
    9GLY    HA2   92   6.087   8.024   3.226  0.0363 -0.9625  0.0088
    9GLY      C   93   6.112   8.049   3.433 -0.6306  0.2919  0.3634
    9GLY      O   94   6.210   8.116   3.455 -0.0424 -0.4099  0.3084
   10ASP      N   95   5.997   8.041   3.504  0.5137 -0.0876 -0.1799
   10ASP     HN   96   5.919   7.988   3.470  0.1042  0.5856 -0.3211
   10ASP     CA   97   5.984   8.091   3.639 -0.0021  0.3197  0.0283
   10ASP     HA   98   6.004   8.196   3.630 -0.1037  0.3672  0.3257
   10ASP     CB   99   5.840   8.085   3.690  0.0125 -0.1154 -0.1488
   10ASP    HB1  100   5.842   8.147   3.783 -0.9453  1.9569 -1.4327
   10ASP    HB2  101   5.805   7.982   3.713 -1.3101 -0.1559 -2.1029
   10ASP     CG  102   5.735   8.151   3.611 -0.0989 -0.1863 -0.2559
   10ASP    OD1  103   5.616   8.108   3.610 -0.0143 -0.0889  0.3346
   10ASP    OD2  104   5.760   8.260   3.556 -0.3138 -0.3284 -0.5931
   10ASP      C  105   6.085   8.016   3.734  0.1507 -0.6545  0.3059
   10ASP      O  106   6.110   7.898   3.710 -0.2084 -0.0657  0.1689
   11GLY      N  107   6.144   8.091   3.835 -0.4728 -0.1481  0.2293
   11GLY     HN  108   6.115   8.187   3.834  3.7564  1.3320  0.9678
   11GLY     CA  109   6.242   8.049   3.930  0.3552 -0.7744  0.3547
   11GLY    HA1  110   6.193   7.965   3.977 -0.6748  0.0419  0.7598
   11GLY    HA2  111   6.254   8.132   3.998 -0.9622 -0.6318  0.4389
   11GLY      C  112   6.381   8.022   3.878 -0.1030 -0.5980 -0.4968
   11GLY    OT1  113   6.434   7.913   3.915 -0.2659  0.0026 -0.4722
   11GLY    OT2  114   6.447   8.098   3.810  0.0804 -0.5428  0.0261
   12LIT    LIT  115   2.926   3.939   4.198 -0.4779 -0.2283  0.4524
   13LIT    LIT  116   1.272   4.179   0.419  0.2282 -0.2426 -0.3736
   14LIT    LIT  117   6.690   3.556   0.976  0.4778 -1.1083  0.7258
   15LIT    LIT  118   5.303   6.670   0.395 -0.1347  0.2296 -0.2145
   16LIT    LIT  119   1.793   1.168   3.802 -0.7301 -1.2648  0.1203
   17LIT    LIT  120   6.629   5.888   4.756 -0.1378 -0.3042  2.2215
   18LIT    LIT  121   4.690   6.447   5.521 -0.2425  0.1753  0.0429
   19LIT    LIT  122   0.237   3.975   0.486 -0.7406 -0.3424  0.7757
   20LIT    LIT  123   1.291   0.448   1.584  0.2775 -0.0501  0.0714
   21LIT    LIT  124   5.751   5.759   5.287  1.4134  1.0272  0.7400
   22LIT    LIT  125   5.899   5.255   4.313  0.0030  0.1387  0.1342
   23LIT    LIT  126   1.937   4.942   3.045  0.1105 -0.7286 -0.5355
   24LIT    LIT  127   4.996   0.238   1.169  1.1735 -0.0591  0.3276
   25LIT    LIT  128   1.722   1.634   2.657  0.2497  0.6180  0.2984
   26LIT    LIT  129   0.849   1.508   3.394 -0.5439  0.4164  0.5557
   27LIT    LIT  130   4.598   2.651   5.810  0.7530 -1.1164  0.9152
   28LIT    LIT  131   7.177   5.230   3.726 -0.2169 -0.1896  0.5236
   29LIT    LIT  132   1.869   3.740   0.960 -0.5222 -0.3474  0.3619
   30LIT    LIT  133   3.094   1.970   1.857 -0.0098 -0.1883  0.7489
   31LIT    LIT  134   4.026   1.639   2.191  0.1197 -0.1151 -1.2156
   32LIT    LIT  135   2.814   4.442   1.677 -0.5709 -0.0494 -0.6263
   33LIT    LIT  136   5.590   2.094   5.618  0.1904  0.5301  0.6163
   34LIT    LIT  137   5.722   2.618   2.633  0.8178 -0.2829  0.4305
   35LIT    LIT  138   6.929   1.192   0.916 -0.6095  0.1335 -0.3520
   36LIT    LIT  139   1.284   5.055   4.595 -0.3885  0.2908 -0.2785
   37LIT    LIT  140   6.438   5.050   1.141  0.5456 -0.1795  1.3004
   38LIT    LIT  141   0.130   3.044   4.442  0.0779  0.5454 -0.9557
   39LIT    LIT  142   6.026   5.941   2.363 -0.6078 -0.2249  0.4110
   40LIT    LIT  143   4.336   3.332   4.396  0.8504  0.8013  0.8740
   41LIT    LIT  144   0.905   1.607   4.871 -0.2853  0.5052 -0.3553
   42LIT    LIT  145   1.368   0.050   1.714  0.4544  0.1219 -0.3724
   43CLA    CLA  146   5.206   6.545   2.865  0.3386 -0.1746  0.3951
   44CLA    CLA  147   1.223   3.010   2.740 -0.0722 -0.3110 -0.4503
   45CLA    CLA  148   6.217   1.301   1.957  0.3048 -0.2013  0.1171
   46CLA    CLA  149   5.081   2.743   1.097  0.1184 -0.1825  0.3822
   47CLA    CLA  150   2.702   4.605   2.392 -0.5633  0.2488 -0.1100
   48CLA    CLA  151   1.405   5.531   1.153  0.2373 -0.0963  0.2320
   49CLA    CLA  152   0.006   3.993   0.534 -0.0663 -0.1258  0.1574
   50CLA    CLA  153   5.603   1.648   5.354 -0.1120  0.1532  0.3671
   51CLA    CLA  154   1.361   1.160   0.917  0.2426  0.2749  0.1480
   52CLA    CLA  155   0.269   6.045   1.351 -0.1455  0.4040 -0.4607
   53CLA    CLA  156   1.750   2.492   5.374  0.4601 -0.0419  0.2231
   54CLA    CLA  157   4.917   1.024   5.040  0.0525  0.5105 -0.0159
   55CLA    CLA  158   4.766   6.567   5.686  0.0677  0.0617  0.0837
   56CLA    CLA  159   0.883   5.391   4.641 -0.1335 -0.5649 -0.2952
   57CLA    CLA  160   7.159   5.811   0.714 -0.4718 -0.2112  0.1550
   58CLA    CLA  161   4.229   2.791   3.791  0.1418  0.1180  0.3231
   59CLA    CLA  162   1.805   3.263   0.574 -0.2720 -0.1718 -0.4162
   60CLA    CLA  163   6.580   5.770   5.259  0.3196  0.0072  0.2334
   61CLA    CLA  164   4.011   5.955   5.531 -0.0750  0.2354 -0.2268
   62CLA    CLA  165   4.584   3.981   1.382 -0.3341  0.1223  0.4214
   63CLA    CLA  166   2.445   0.647   0.123  0.0494  0.0375 -0.0529
   64CLA    CLA  167   2.078   1.585   3.898 -0.0452 -0.3675 -0.3149
   65CLA    CLA  168   5.499   2.653   2.663 -0.0766 -0.0088  0.1738
   66CLA    CLA  169   6.918   2.356   2.164 -0.0270  0.1306 -0.2315
   67CLA    CLA  170   0.590   0.826   2.874 -0.0324 -0.1870  0.0022
   68CLA    CLA  171   4.555   3.366   5.079  0.3144  0.2487 -0.3244
   69CLA    CLA  172   3.664   6.332   2.309  0.2076 -0.0632 -0.0517
   70TIP3   OH2  173   3.028   2.929   0.500 -0.7016 -0.2357  0.0170
   70TIP3    H1  174   3.119   2.954   0.489 -1.1737  1.9710  0.7049
   70TIP3    H2  175   3.024   2.838   0.469  1.8655 -0.6705  0.7958
   71TIP3   OH2  176   2.021   0.448   1.403 -0.2952  0.4325  0.4497
   71TIP3    H1  177   1.926   0.436   1.393 -0.3121  0.0377  1.0265
   71TIP3    H2  178   2.030   0.539   1.434 -0.6132  0.0116  1.8810
   72TIP3   OH2  179   1.118   1.357   4.079 -0.0323 -0.0682 -0.2466
   72TIP3    H1  180   1.195   1.303   4.099 -0.7403 -0.8900  0.2979
   72TIP3    H2  181   1.148   1.447   4.094 -0.0020 -0.5040  2.9139
   73TIP3   OH2  182   2.648   1.122   0.292  0.2190  0.4382 -0.3792
   73TIP3    H1  183   2.608   1.076   0.218 -2.4351  0.3867  0.9775
   73TIP3    H2  184   2.617   1.075   0.369  1.5061  1.5405  0.8689
   74TIP3   OH2  185   2.010   1.899   3.193  0.3535 -0.2027 -0.8716
   74TIP3    H1  186   1.933   1.948   3.165 -0.0375  0.2829  0.9323
   74TIP3    H2  187   1.982   1.853   3.273  2.1996  0.8509  0.4744
   75TIP3   OH2  188   6.643   2.602   0.514 -0.0183 -0.8008  0.0988
   75TIP3    H1  189   6.578   2.574   0.579  1.1545  0.5439  1.9460
   75TIP3    H2  190   6.724   2.560   0.542  0.1788 -1.6617 -1.6077
   76TIP3   OH2  191   5.658   4.633   0.837  0.0965  0.0915  0.4231
   76TIP3    H1  192   5.685   4.602   0.923  0.2239 -0.6523  0.1330
   76TIP3    H2  193   5.589   4.696   0.854 -0.1164 -0.3043  1.0588
   77TIP3   OH2  194   6.781   2.687   2.643  0.3839 -0.1722 -0.7264
   77TIP3    H1  195   6.756   2.596   2.656  0.2301  0.1140  1.3244
   77TIP3    H2  196   6.869   2.694   2.680  0.0994  0.6582 -0.1666
   78TIP3   OH2  197   4.102   0.059   1.480  0.0179 -0.0154 -0.2532
   78TIP3    H1  198   4.048   0.126   1.437 -1.9444 -2.0069 -1.0825
   78TIP3    H2  199   4.140   0.009   1.408  0.1078 -0.8132  0.3351
   79TIP3   OH2  200   2.228   1.601   5.787 -0.4071  0.4379  0.1618
   79TIP3    H1  201   2.162   1.533   5.798  0.4993 -0.2647  1.6148
   79TIP3    H2  202   2.244   1.633   5.876  1.5677  0.2031 -0.0651
   80TIP3   OH2  203   3.405   4.950   0.656 -0.2032 -0.2004  0.0804
   80TIP3    H1  204   3.468   4.990   0.716  0.4561 -0.3430 -0.4998
   80TIP3    H2  205   3.451   4.945   0.572 -1.9542  2.3145 -1.1511
   81TIP3   OH2  206   1.058   4.020   3.811  0.2864  0.4973 -0.1331
   81TIP3    H1  207   1.023   4.055   3.892  3.4465 -1.5552  2.3650
   81TIP3    H2  208   1.148   4.051   3.808  1.1835 -1.9361 -1.1881
   82TIP3   OH2  209   0.668   6.221   3.134 -0.1723  0.0899  0.1681
   82TIP3    H1  210   0.733   6.251   3.071  0.3240  2.7189  1.7858
   82TIP3    H2  211   0.657   6.128   3.115  2.9893 -0.1335 -1.0763
   83TIP3   OH2  212   5.682   4.095   4.290 -0.3913 -0.1188  0.3847
   83TIP3    H1  213   5.689   3.999   4.288 -1.6546 -0.3086  2.1552
   83TIP3    H2  214   5.762   4.123   4.334 -1.5209 -0.7044  3.0212
   84TIP3   OH2  215   2.916   1.697   3.277 -0.2761  0.3132 -0.4649
   84TIP3    H1  216   2.848   1.713   3.213 -0.0503  0.6331 -0.6306
   84TIP3    H2  217   2.971   1.776   3.274  1.3169 -0.7669 -1.8514
   85TIP3   OH2  218   1.631   1.647   5.443 -0.0614  0.3026  0.6391
   85TIP3    H1  219   1.550   1.660   5.394 -0.2115  1.7592  1.2377
   85TIP3    H2  220   1.652   1.733   5.479  1.9314  0.0359  0.2367
   86TIP3   OH2  221   3.274   3.513   2.084  0.5397  0.1801  1.2289
   86TIP3    H1  222   3.363   3.506   2.048  1.0183 -0.8529  2.5298
   86TIP3    H2  223   3.236   3.426   2.072 -1.0002  1.0511 -0.9216
   87TIP3   OH2  224   0.990   0.593   4.511  0.0104  0.0632  0.0511
   87TIP3    H1  225   1.008   0.681   4.544 -0.7621  0.4080 -0.4008
   87TIP3    H2  226   0.908   0.603   4.462 -0.2230 -0.9626  0.2123
   88TIP3   OH2  227   5.480   5.791   3.615 -0.4442 -0.3675  0.4168
   88TIP3    H1  228   5.556   5.824   3.663 -0.5870 -1.1951  1.2440
   88TIP3    H2  229   5.475   5.846   3.537  1.1421 -0.4264  0.2328
   89TIP3   OH2  230   5.281   6.194   2.546  0.0785  0.3505  0.0962
   89TIP3    H1  231   5.284   6.119   2.605  0.0016 -0.8917 -1.4111
   89TIP3    H2  232   5.352   6.179   2.485  0.3399  1.7594  0.0353
   90TIP3   OH2  233   4.091   4.615   0.229 -0.4948  0.1891  0.2223
   90TIP3    H1  234   4.062   4.697   0.270 -0.0549 -0.4302  1.8712
   90TIP3    H2  235   4.186   4.614   0.242  0.1466  1.2396 -3.3192
   91TIP3   OH2  236   6.450   0.108   1.573 -0.2276 -0.0740 -0.0996
   91TIP3    H1  237   6.412   0.128   1.658  0.4868  0.7372  0.0437
   91TIP3    H2  238   6.498   0.187   1.549  0.4691 -0.6823 -0.7616
   92TIP3   OH2  239   3.451   0.522   2.014 -0.0951 -0.0841  0.2982
   92TIP3    H1  240   3.370   0.477   1.989 -1.2794  1.9606  0.1825
   92TIP3    H2  241   3.446   0.607   1.968  3.3988 -0.8351 -1.8315
   93TIP3   OH2  242   6.719   5.260   4.146  0.4855  0.3938  0.3753
   93TIP3    H1  243   6.719   5.239   4.239  2.2773  1.2976  0.6062
   93TIP3    H2  244   6.798   5.311   4.132  1.0934 -1.0079 -1.9413
   94TIP3   OH2  245   4.933   1.243   1.251 -0.0041  0.0589 -0.4108
   94TIP3    H1  246   5.009   1.269   1.303  1.4130 -2.5962 -0.9618
   94TIP3    H2  247   4.865   1.224   1.315  0.9570 -0.9000  0.3556
   95TIP3   OH2  248   6.084   1.628   0.555 -0.4220  0.2311  0.1829
   95TIP3    H1  249   6.114   1.694   0.493  0.3336  0.3850  0.7010
   95TIP3    H2  250   5.989   1.634   0.552 -0.3723  0.9258 -0.2186
   96TIP3   OH2  251   0.649   5.225   5.127 -0.0812 -0.1341  0.1432
   96TIP3    H1  252   0.662   5.319   5.112 -1.1131 -0.2419 -1.6798
   96TIP3    H2  253   0.736   5.193   5.153  0.0609  1.4755  1.9018
   97TIP3   OH2  254   0.179   3.695   5.588  0.0089 -0.2554 -0.0830
   97TIP3    H1  255   0.158   3.788   5.592  1.1183  0.1109 -1.7919
   97TIP3    H2  256   0.274   3.692   5.601  0.1397 -1.0270 -1.1131
   98TIP3   OH2  257   5.848   0.220   4.351 -0.0977  0.3782 -0.1250
   98TIP3    H1  258   5.843   0.140   4.403  1.7872 -0.4666 -1.1544
   98TIP3    H2  259   5.898   0.195   4.273 -0.6500  2.2271 -1.1321
   99TIP3   OH2  260   5.202   1.191   3.635  0.1834 -0.2115  0.1358
   99TIP3    H1  261   5.231   1.158   3.550  2.5310  0.9933  0.3973
   99TIP3    H2  262   5.262   1.262   3.656 -0.5462 -0.2138  2.6462
  100TIP3   OH2  263   0.794   5.909   0.002 -0.3003 -0.1134 -0.0515
  100TIP3    H1  264   0.701   5.929   0.010 -0.3258  0.0334 -0.7013
  100TIP3    H2  265   0.801   5.817   0.027 -0.7913 -0.4523 -1.1166
  101TIP3   OH2  266   3.943   0.527   2.643  0.0229 -0.1935  0.0072
  101TIP3    H1  267   3.850   0.548   2.630  0.0884 -0.3783 -0.8422
  101TIP3    H2  268   3.946   0.482   2.727 -0.2966  1.9970  1.2508
  102TIP3   OH2  269   2.053   5.017   3.198  0.3226  0.1319  0.3667
  102TIP3    H1  270   2.020   5.016   3.288  0.6726  0.8236  0.5136
  102TIP3    H2  271   2.147   5.031   3.207  0.8854 -2.8329 -0.0113
  103TIP3   OH2  272   5.570   4.310   2.668  0.4945  0.3294  0.5684
  103TIP3    H1  273   5.559   4.391   2.618 -1.2698 -0.8688 -1.1451
  103TIP3    H2  274   5.481   4.277   2.680  1.2523 -2.7589 -1.3236
  104TIP3   OH2  275   0.793   3.883   3.181 -0.2529  0.4189 -0.1969
  104TIP3    H1  276   0.856   3.955   3.176  0.5314  0.0107  2.2242
  104TIP3    H2  277   0.781   3.869   3.275 -0.3634 -2.6149 -0.5553
  105TIP3   OH2  278   1.146   3.357   3.264 -0.6594  0.0082  0.6176
  105TIP3    H1  279   1.130   3.375   3.171 -1.0486  0.4009  0.7588
  105TIP3    H2  280   1.132   3.263   3.272 -1.4283  0.0961  0.4327
  106TIP3   OH2  281   2.547   6.093   1.888 -0.0397 -0.1838 -1.2276
  106TIP3    H1  282   2.627   6.044   1.869  1.4401  1.1244  1.1785
  106TIP3    H2  283   2.553   6.171   1.832  1.0427  0.5058 -0.1992
  107TIP3   OH2  284   4.325   0.437   4.431  0.1587 -0.0315 -0.7004
  107TIP3    H1  285   4.341   0.514   4.485 -1.4783 -0.9932  1.3362
  107TIP3    H2  286   4.237   0.450   4.396  0.2633 -0.5242 -1.1597
  108TIP3   OH2  287   3.242   4.442   4.604 -0.2718  0.4297 -0.3056
  108TIP3    H1  288   3.271   4.464   4.515 -2.0115 -0.0895 -1.0556
  108TIP3    H2  289   3.260   4.521   4.655 -0.6038  1.2984 -1.4755
  109TIP3   OH2  290   0.154   0.384   0.924  0.1194  0.0367 -0.3824
  109TIP3    H1  291   0.225   0.322   0.907  0.7175 -0.0196  2.0104
  109TIP3    H2  292   0.199   0.467   0.942 -0.2396 -0.2619  2.3338
  110TIP3   OH2  293   4.893   3.151   3.671 -0.4305  0.1567  0.4575
  110TIP3    H1  294   4.808   3.195   3.674 -0.1504  0.9352 -1.6205
  110TIP3    H2  295   4.873   3.061   3.645 -0.5431  0.7606 -1.6966
  111TIP3   OH2  296   6.046   5.649   3.350  0.0396 -0.0187  1.3991
  111TIP3    H1  297   6.032   5.707   3.275  2.0186  1.2059  1.9025
  111TIP3    H2  298   5.991   5.572   3.332 -1.6851  1.4292  0.0796
  112TIP3   OH2  299   0.063   1.602   3.735  0.1342 -0.7130  0.8131
  112TIP3    H1  300   0.095   1.685   3.701 -1.0984 -0.0168  1.3086
  112TIP3    H2  301  -0.017   1.624   3.783  0.4606 -2.0066  2.0220
  113TIP3   OH2  302   1.123   4.754   1.791 -0.0187 -0.3522 -0.5121
  113TIP3    H1  303   1.168   4.805   1.724 -0.3316 -0.1267 -0.5502
  113TIP3    H2  304   1.193   4.703   1.833  0.6619  1.7401  1.0086
  114TIP3   OH2  305   2.603   6.694   4.537  0.0144 -0.3188 -0.3209
  114TIP3    H1  306   2.515   6.718   4.566 -0.0593 -0.1500 -0.6855
  114TIP3    H2  307   2.593   6.607   4.499 -0.6290  0.9421 -3.2838
  115TIP3   OH2  308   4.433   0.917   0.127  0.0876  0.2716  0.4105
  115TIP3    H1  309   4.377   0.990   0.155  1.3942  1.0587  1.0646
  115TIP3    H2  310   4.392   0.885   0.047 -1.0641  1.0875  0.6466
  116TIP3   OH2  311   4.602   5.850   2.656  0.6875  1.1137 -0.7978
  116TIP3    H1  312   4.520   5.816   2.621  0.2742  0.4351  0.7425
  116TIP3    H2  313   4.633   5.782   2.715  3.4133  0.4647 -2.7711
  117TIP3   OH2  314   5.751   3.227   5.068  0.3683 -0.2138 -0.1188
  117TIP3    H1  315   5.670   3.224   5.119 -0.1062 -0.4277 -0.8692
  117TIP3    H2  316   5.820   3.201   5.131 -0.3245 -1.4161  0.1739
  118TIP3   OH2  317   2.319   5.886   2.633 -0.0957  0.2836  0.1391
  118TIP3    H1  318   2.383   5.956   2.621 -0.4727  0.3158 -1.9010
  118TIP3    H2  319   2.313   5.843   2.548 -1.0972 -1.1920  0.9071
  119TIP3   OH2  320   3.047   3.955   3.051 -0.0172 -0.4069 -0.1005
  119TIP3    H1  321   2.986   4.029   3.050  0.1108 -0.2903  0.3482
  119TIP3    H2  322   3.075   3.945   2.960 -0.4202 -0.2254 -0.2474
  120TIP3   OH2  323   5.864   0.944   1.459  0.2664 -0.2239  0.1067
  120TIP3    H1  324   5.882   0.897   1.541 -2.6279 -1.6033  0.0755
  120TIP3    H2  325   5.893   0.884   1.390 -0.0404 -0.3525  0.0909
  121TIP3   OH2  326   4.197   4.843   0.030  0.2663 -0.0876 -0.7475
  121TIP3    H1  327   4.196   4.865  -0.063 -0.0468  0.3637 -0.6431
  121TIP3    H2  328   4.177   4.750   0.034  1.1882 -0.3157 -1.1840
  122TIP3   OH2  329   6.176   2.612   3.565 -0.0414  0.8970  0.3062
  122TIP3    H1  330   6.115   2.685   3.554 -0.3830  0.5924  0.1245
  122TIP3    H2  331   6.120   2.534   3.567  0.2435  0.7095  1.4387
  123TIP3   OH2  332   6.350   3.246   0.510 -0.7888  0.2238  0.3478
  123TIP3    H1  333   6.280   3.213   0.453 -2.0053  1.0489  1.3129
  123TIP3    H2  334   6.415   3.175   0.510 -2.2625 -1.1960  0.5300
  124TIP3   OH2  335   1.103   2.564   4.486 -0.0304  0.2664  0.0785
  124TIP3    H1  336   1.082   2.473   4.509 -1.4745  0.5893  0.1387
  124TIP3    H2  337   1.133   2.559   4.395 -3.2339  0.0345 -1.1193
  125TIP3   OH2  338   1.149   2.223   5.508  0.7091  0.4289  0.0948
  125TIP3    H1  339   1.228   2.209   5.456  0.0654 -3.0870 -0.1817
  125TIP3    H2  340   1.167   2.181   5.591 -1.0934 -1.2044 -0.2713
  126TIP3   OH2  341   5.854   0.919   3.372  0.2660 -0.5339  0.0646
  126TIP3    H1  342   5.831   1.004   3.410 -1.6939 -0.7553 -0.5003
  126TIP3    H2  343   5.947   0.926   3.351  0.5330  0.8665  1.5419
  127TIP3   OH2  344   0.446   5.323   0.973 -0.0295  0.0256  0.7397
  127TIP3    H1  345   0.392   5.402   0.984  1.2269  0.9399  0.5844
  127TIP3    H2  346   0.504   5.345   0.900 -1.8794 -2.3295 -1.6365
  128TIP3   OH2  347   4.821   2.436   4.549  0.1002 -0.3980  0.3527
  128TIP3    H1  348   4.875   2.467   4.622 -0.5050  0.5186  0.4231
  128TIP3    H2  349   4.799   2.346   4.572  0.0578 -0.1743  1.2229
  129TIP3   OH2  350   3.591   0.823   1.212  0.1142 -0.3896 -0.9889
  129TIP3    H1  351   3.641   0.831   1.293  0.0615  0.7350 -1.0576
  129TIP3    H2  352   3.647   0.863   1.145 -1.1236  1.5391 -0.9454
  130TIP3   OH2  353   1.226   3.566   5.195  0.2430 -0.0835 -0.5794
  130TIP3    H1  354   1.142   3.570   5.150 -1.1079  1.2072  1.8078
  130TIP3    H2  355   1.223   3.484   5.244  0.3438 -0.0013 -0.4359
  131TIP3   OH2  356   1.327   3.212   1.457  0.7434 -0.0490 -0.0989
  131TIP3    H1  357   1.379   3.132   1.454  0.6814 -0.0705 -1.4387
  131TIP3    H2  358   1.238   3.184   1.433  0.3418  0.1659  1.0577
  132TIP3   OH2  359   2.382   5.223   3.947  0.3532 -0.2841  0.6396
  132TIP3    H1  360   2.309   5.258   3.896  1.1875  0.4134 -0.1127
  132TIP3    H2  361   2.341   5.177   4.020 -0.8202  2.1635  1.6345
  133TIP3   OH2  362   4.336   2.349   0.496  0.7727  0.6177  0.1717
  133TIP3    H1  363   4.391   2.370   0.572  2.2709  0.3820 -0.8129
  133TIP3    H2  364   4.386   2.285   0.446  0.2236  1.3904 -1.4583
  134TIP3   OH2  365   6.729   1.881   5.276  0.0889 -0.0450 -0.0177
  134TIP3    H1  366   6.647   1.893   5.323 -0.1133 -1.0870 -0.0823
  134TIP3    H2  367   6.704   1.854   5.188  0.4772  1.4856 -0.6345
  135TIP3   OH2  368   1.905   2.380   3.613 -0.0099 -0.3488 -0.1654
  135TIP3    H1  369   1.973   2.445   3.596  1.0296 -1.3996 -0.2051
  135TIP3    H2  370   1.854   2.377   3.533  0.4723 -0.1927 -0.4825
  136TIP3   OH2  371   6.512   5.540   1.506 -0.4685 -0.1307 -0.4724
  136TIP3    H1  372   6.542   5.488   1.431 -2.2045 -0.9787 -0.6359
  136TIP3    H2  373   6.557   5.624   1.498  1.3402 -1.1152 -0.9950
  137TIP3   OH2  374   2.619   3.471   2.220  0.0345 -0.0274  0.1726
  137TIP3    H1  375   2.709   3.439   2.219 -0.4330 -1.3969  0.3820
  137TIP3    H2  376   2.615   3.529   2.296  0.2337 -1.5843  1.4350
  138TIP3   OH2  377   0.079   4.990   4.614  0.3529 -0.1170  0.4281
  138TIP3    H1  378   0.148   5.053   4.635  0.2905 -0.5952  2.2026
  138TIP3    H2  379   0.013   5.041   4.567  0.7201  0.9484  1.0430
  139TIP3   OH2  380   0.878   0.587   1.470  0.6625  0.3267 -0.2926
  139TIP3    H1  381   0.888   0.665   1.414  0.6474 -0.2676 -1.1385
  139TIP3    H2  382   0.786   0.562   1.459  0.9237 -0.4083 -0.8327
  140TIP3   OH2  383   3.321   1.003   4.038 -0.1093  0.0538 -0.3587
  140TIP3    H1  384   3.330   0.908   4.029  1.4820  0.2133 -0.6964
  140TIP3    H2  385   3.362   1.039   3.960 -1.0828  1.0260 -0.4425
  141TIP3   OH2  386   1.234   2.519   2.414 -0.7168  0.2549 -0.4100
  141TIP3    H1  387   1.169   2.540   2.347  1.7646  2.3690 -2.3808
  141TIP3    H2  388   1.296   2.461   2.370 -0.5285 -0.6869  1.0218
  142TIP3   OH2  389   2.051   4.065   4.717  0.1448  0.3541 -0.1125
  142TIP3    H1  390   2.041   4.002   4.646 -0.6537  0.7078 -0.3213
  142TIP3    H2  391   2.008   4.144   4.685  0.9860  0.9617  0.2161
  143TIP3   OH2  392   6.235   4.147   3.813 -0.3012  0.7449 -0.0432
  143TIP3    H1  393   6.186   4.105   3.742 -1.4856  2.3302 -0.2127
  143TIP3    H2  394   6.317   4.174   3.772 -0.7244  1.1093 -0.6712
  144TIP3   OH2  395   0.604   5.139   2.350 -0.1156  0.0501 -0.2807
  144TIP3    H1  396   0.569   5.196   2.282 -1.3240  0.3168  0.5261
  144TIP3    H2  397   0.560   5.168   2.430  0.1573 -1.2278  0.3541
  145TIP3   OH2  398   3.492   3.886   2.390  0.1683 -0.3222 -0.1199
  145TIP3    H1  399   3.511   3.976   2.416  3.0627 -0.8190 -0.2755
  145TIP3    H2  400   3.523   3.833   2.463  0.1231 -1.2901 -0.7848
  146TIP3   OH2  401   6.040   1.690   4.439 -0.3533  0.5604  0.6062
  146TIP3    H1  402   6.000   1.768   4.401 -0.4860  0.2105  0.0116
  146TIP3    H2  403   6.109   1.723   4.497  0.5224  1.1022 -0.6869
  147TIP3   OH2  404   1.351   4.583   5.005 -0.0229  0.6307  0.1228
  147TIP3    H1  405   1.308   4.523   5.065  0.7976 -1.0641 -0.8905
  147TIP3    H2  406   1.444   4.575   5.026  0.3430 -0.4438 -1.6760
  148TIP3   OH2  407   6.162   3.739   3.823 -0.1763  0.0014 -0.5892
  148TIP3    H1  408   6.152   3.786   3.740  1.3229 -1.2584 -1.5373
  148TIP3    H2  409   6.239   3.684   3.810 -0.2266 -0.6324  1.4693
  149TIP3   OH2  410   1.564   6.275   1.799  0.8570  0.1076  0.3378
  149TIP3    H1  411   1.532   6.359   1.831  0.1339 -0.5518  1.3933
  149TIP3    H2  412   1.502   6.249   1.732 -0.5941 -0.9019  1.9891
  150TIP3   OH2  413   3.060   1.919   3.282  0.2845  0.5404  0.0526
  150TIP3    H1  414   3.041   1.973   3.206  0.9280 -1.3504 -1.5547
  150TIP3    H2  415   3.146   1.948   3.312  0.6038  0.4602 -0.7608
  151TIP3   OH2  416   5.084   6.371   1.775 -0.2821 -0.1999 -0.4647
  151TIP3    H1  417   5.081   6.464   1.753 -0.2284 -0.3178 -0.9810
  151TIP3    H2  418   4.993   6.347   1.793 -0.1726  0.1781  0.6471
  152TIP3   OH2  419   2.681   5.508   4.398  0.0737  0.3719 -0.3532
  152TIP3    H1  420   2.636   5.471   4.322 -0.1329  2.2980 -1.2219
  152TIP3    H2  421   2.769   5.527   4.367  0.0180  1.0876 -0.0996
  153TIP3   OH2  422   2.204   3.666   1.714 -0.1395  0.2995 -0.0302
  153TIP3    H1  423   2.289   3.704   1.734  1.1815 -1.9887 -0.9344
  153TIP3    H2  424   2.187   3.692   1.624 -0.1278  0.2704 -0.0407
  154TIP3   OH2  425   4.548   4.073   1.696  0.1722  0.3590  0.2839
  154TIP3    H1  426   4.535   4.055   1.603  2.4916 -1.5247  0.2115
  154TIP3    H2  427   4.540   4.168   1.703 -0.2452  0.5399 -1.7959
  155TIP3   OH2  428   5.085   0.689   2.256 -0.6500  0.1633 -0.3582
  155TIP3    H1  429   5.156   0.645   2.304 -0.2783  0.9221 -0.1969
  155TIP3    H2  430   5.071   0.634   2.179  0.6679  0.4297 -0.8030
  156TIP3   OH2  431   7.054   2.813   4.288  0.1345 -0.0932  0.3543
  156TIP3    H1  432   7.061   2.729   4.335  1.1231  0.0470  0.4946
  156TIP3    H2  433   6.989   2.863   4.337  0.2541 -0.4159  0.8509
  157TIP3   OH2  434   5.725   1.021   0.547 -0.1467 -0.2771 -0.4006
  157TIP3    H1  435   5.704   0.938   0.590 -0.7937 -1.5078 -2.8549
  157TIP3    H2  436   5.651   1.078   0.566 -0.4712 -0.8322  0.0135
  158TIP3   OH2  437   2.421   4.276   2.512 -0.0967  0.1016  0.6597
  158TIP3    H1  438   2.369   4.247   2.586  1.5002 -0.6321  1.5606
  158TIP3    H2  439   2.359   4.283   2.439 -1.7277  1.0041  2.0757
  159TIP3   OH2  440   4.493   5.221   5.695  0.5110  0.0753 -0.5029
  159TIP3    H1  441   4.497   5.315   5.673  0.8034  0.8538  2.5289
  159TIP3    H2  442   4.527   5.215   5.784 -0.7102 -2.7631 -0.1193
  160TIP3   OH2  443   1.814   5.751   0.494 -0.9190 -0.1935  0.2864
  160TIP3    H1  444   1.737   5.802   0.519 -0.8002 -0.1277  0.5215
  160TIP3    H2  445   1.780   5.683   0.435 -1.4075 -1.1316  1.5945
  161TIP3   OH2  446   1.434   6.023   3.163 -0.5832  0.4894  0.5427
  161TIP3    H1  447   1.377   5.984   3.229 -1.0606 -0.2270 -0.2676
  161TIP3    H2  448   1.376   6.043   3.089  0.3834 -1.6953 -0.9221
  162TIP3   OH2  449   0.223   3.259   5.527 -0.1254  0.0838  0.2558
  162TIP3    H1  450   0.285   3.293   5.591 -1.3963 -0.2128  1.7262
  162TIP3    H2  451   0.261   3.176   5.498  0.5825  0.3401  0.4275
  163TIP3   OH2  452   7.177   3.768   2.254 -0.5340 -0.0934 -0.4200
  163TIP3    H1  453   7.165   3.845   2.310  0.3000  0.2611 -0.7104
  163TIP3    H2  454   7.151   3.798   2.167  4.2693  1.4598 -1.6040
  164TIP3   OH2  455   3.703   3.365   1.287  0.4150 -0.7204  0.4038
  164TIP3    H1  456   3.723   3.457   1.269 -1.1149  0.0335  2.2291
  164TIP3    H2  457   3.789   3.322   1.291  1.1216  0.4683 -1.1211
  165TIP3   OH2  458   3.581   1.202   5.553 -0.0839  0.1407  0.4069
  165TIP3    H1  459   3.618   1.173   5.636 -0.3375 -1.6087 -0.0576
  165TIP3    H2  460   3.648   1.182   5.488 -0.3036  0.5374  0.0547
  166TIP3   OH2  461   0.214   1.778   0.336  0.3269 -0.0352  0.1354
  166TIP3    H1  462   0.273   1.728   0.392  0.8737  0.4154 -0.0343
  166TIP3    H2  463   0.136   1.792   0.390  0.7983  0.2898  0.7412
  167TIP3   OH2  464   4.473   0.665   2.628  0.4906  0.3583 -0.6236
  167TIP3    H1  465   4.480   0.747   2.677 -0.8818 -0.3714  0.9006
  167TIP3    H2  466   4.558   0.624   2.639  0.3110  0.3261  1.0281
  168TIP3   OH2  467   5.165   2.382   0.781  0.4488  0.8210 -0.1891
  168TIP3    H1  468   5.215   2.461   0.798  1.2081  0.5551 -1.1790
  168TIP3    H2  469   5.077   2.402   0.815  0.8203  1.8062  0.2219
  169TIP3   OH2  470   2.177   3.760   3.267  0.2005  0.7257 -0.0242
  169TIP3    H1  471   2.117   3.720   3.203  1.0701  0.1519 -0.5038
  169TIP3    H2  472   2.200   3.845   3.229 -1.6264  1.7351  0.9807
  170TIP3   OH2  473   4.196   2.094   3.060  0.5320 -0.6526  0.0942
  170TIP3    H1  474   4.275   2.067   3.108  0.8162 -0.0842 -0.0423
  170TIP3    H2  475   4.154   2.158   3.118 -0.4498 -1.7809  0.6790
  171TIP3   OH2  476   1.750   1.626   1.936 -0.4815 -0.6233 -0.7367
  171TIP3    H1  477   1.729   1.676   1.857 -1.3121  1.0754  0.4917
  171TIP3    H2  478   1.762   1.536   1.906  1.2003  0.2895 -3.0777
  172TIP3   OH2  479   0.616   4.638   0.764  0.3322  0.4045  0.1814
  172TIP3    H1  480   0.609   4.724   0.722 -0.0223  1.1650  1.6994
  172TIP3    H2  481   0.706   4.610   0.746  0.7290  1.5002  0.3586
  173TIP3   OH2  482   2.003   2.429   0.210  0.2114 -0.1396  0.7563
  173TIP3    H1  483   1.977   2.407   0.300 -0.6167  1.3175  0.8985
  173TIP3    H2  484   1.920   2.432   0.162  0.4342  1.1303  0.4258
  174TIP3   OH2  485   1.853   6.762   1.277  0.2549 -0.0915  0.0286
  174TIP3    H1  486   1.780   6.715   1.236  1.3259  0.0439 -2.1374
  174TIP3    H2  487   1.924   6.757   1.213  2.1848 -0.2251  2.0792
  175TIP3   OH2  488   0.154   0.034   2.180  0.1009  0.4095 -0.5014
  175TIP3    H1  489   0.111   0.065   2.100 -1.1847  0.5012  0.2112
  175TIP3    H2  490   0.198   0.112   2.216  0.1881  0.4977 -0.7963
  176TIP3   OH2  491   6.219   2.755   0.456  0.1394  0.2692 -0.1915
  176TIP3    H1  492   6.141   2.702   0.465  0.5428 -0.3188 -0.1293
  176TIP3    H2  493   6.242   2.750   0.363 -0.2413  0.9432 -0.3298
  177TIP3   OH2  494   4.792   1.358   2.012 -0.2630 -0.1885  0.5306
  177TIP3    H1  495   4.699   1.334   2.006 -0.1958 -0.4480  0.5568
  177TIP3    H2  496   4.790   1.451   2.036 -0.5205 -0.0949  0.1623
  178TIP3   OH2  497   0.221   3.623   0.168  0.0890 -0.2923  0.4613
  178TIP3    H1  498   0.141   3.652   0.212 -0.4348  1.4701 -1.4834
  178TIP3    H2  499   0.191   3.588   0.084  1.3684  1.4937 -0.8094
  179TIP3   OH2  500   4.393   1.132   1.968 -0.3459  0.6279  0.6829
  179TIP3    H1  501   4.415   1.136   1.875  0.0751  0.5778  0.7753
  179TIP3    H2  502   4.316   1.188   1.978 -1.8206 -1.1679 -0.0816
  180TIP3   OH2  503   2.753   0.089   3.198 -0.1995 -0.2475 -0.5514
  180TIP3    H1  504   2.712   0.155   3.143  0.5990  1.1842  0.4879
  180TIP3    H2  505   2.783   0.022   3.137 -1.8419 -0.1295 -1.5483
  181TIP3   OH2  506   2.186   2.812   0.515  0.1494 -0.3459  0.0414
  181TIP3    H1  507   2.195   2.873   0.442 -0.3613 -1.1744 -0.7236
  181TIP3    H2  508   2.133   2.859   0.579  1.3910  0.7554  0.3223
  182TIP3   OH2  509   3.893   1.547   0.055  0.0599 -0.3242 -0.0147
  182TIP3    H1  510   3.968   1.605   0.067  0.7238 -0.7531 -1.7870
  182TIP3    H2  511   3.834   1.596  -0.002  0.9844 -1.6281 -2.1835
  183TIP3   OH2  512   6.515   6.321   2.626 -0.5018  0.3723  0.1401
  183TIP3    H1  513   6.573   6.390   2.594  2.1090 -1.8124 -0.1254
  183TIP3    H2  514   6.503   6.263   2.551 -1.4767 -0.2628  0.7586
  184TIP3   OH2  515   2.021   6.517   3.338  0.0797 -0.2270  0.0453
  184TIP3    H1  516   2.095   6.575   3.351 -0.3555  0.5194 -0.6921
  184TIP3    H2  517   1.945   6.575   3.332 -0.3985 -0.8840 -0.5092
  185TIP3   OH2  518   1.100   2.920   5.297 -0.0990 -0.1695  0.0559
  185TIP3    H1  519   1.183   2.968   5.297 -0.6067  0.7416 -0.7525
  185TIP3    H2  520   1.126   2.828   5.288  0.7875  0.2680 -3.3516
  186TIP3   OH2  521   1.977   3.605   4.249  0.4111 -0.2831  0.1879
  186TIP3    H1  522   1.948   3.610   4.158 -0.5167  0.7388  0.5299
  186TIP3    H2  523   1.970   3.512   4.271 -1.9054 -0.2077 -0.0025
  187TIP3   OH2  524   6.148   0.461   5.585 -0.3346 -0.0882  0.1440
  187TIP3    H1  525   6.099   0.443   5.505  1.4863  1.3727 -1.3835
  187TIP3    H2  526   6.229   0.410   5.577 -0.2210 -0.1109  1.1893
  188TIP3   OH2  527   0.699   2.746   4.579  0.2366 -0.6613 -0.6888
  188TIP3    H1  528   0.779   2.764   4.627  0.7950 -3.6242 -0.3433
  188TIP3    H2  529   0.726   2.741   4.487  0.2740 -0.8713 -0.6647
  189TIP3   OH2  530   0.033   2.613   3.314  0.2111 -0.1855  0.2648
  189TIP3    H1  531   0.088   2.566   3.376 -0.7224  0.4526  1.6261
  189TIP3    H2  532   0.085   2.689   3.288  0.7062 -0.5914  0.0434
  190TIP3   OH2  533   2.865   4.682   3.910 -0.6541  0.3395  0.3203
  190TIP3    H1  534   2.905   4.701   3.995  0.1741  0.7154 -0.1419
  190TIP3    H2  535   2.938   4.685   3.848 -1.0571 -1.0237 -0.2599
  191TIP3   OH2  536   4.794   0.989   3.338 -0.0800  0.5533  0.7397
  191TIP3    H1  537   4.790   0.961   3.247  0.5061  1.0586  0.5519
  191TIP3    H2  538   4.731   0.933   3.383  0.9325 -0.9605  0.3475
  192TIP3   OH2  539   2.059   0.906   3.388  0.3079 -0.3956 -0.0100
  192TIP3    H1  540   2.118   0.902   3.313 -0.6331  0.0512 -0.8104
  192TIP3    H2  541   1.987   0.847   3.365 -1.0518  1.3642 -0.4551
  193TIP3   OH2  542   1.852   4.615   0.977 -0.1281 -0.2067 -0.1113
  193TIP3    H1  543   1.759   4.638   0.978 -0.1033 -0.1290  0.2191
  193TIP3    H2  544   1.898   4.698   0.973 -0.0726 -0.2489 -0.4023
  194TIP3   OH2  545   1.449   1.256   1.345 -0.7021 -0.3980 -0.1807
  194TIP3    H1  546   1.500   1.319   1.293  0.9076 -1.2466  0.3043
  194TIP3    H2  547   1.418   1.192   1.281 -2.9616  1.1770 -0.7950
  195TIP3   OH2  548   1.427   4.153   3.181 -0.2010 -0.4731  0.7011
  195TIP3    H1  549   1.517   4.141   3.150  0.4123  1.6537  1.4967
  195TIP3    H2  550   1.436   4.197   3.266 -1.9943 -0.5833  0.9918
  196TIP3   OH2  551   2.543   2.067   5.244  0.3395 -0.6170  0.3279
  196TIP3    H1  552   2.481   2.109   5.185  0.6825 -0.9500 -0.2765
  196TIP3    H2  553   2.494   1.997   5.286 -0.0584 -0.0326  0.8644
  197TIP3   OH2  554   4.044   0.508   1.591 -0.4165 -0.1719 -0.2475
  197TIP3    H1  555   4.041   0.600   1.565 -0.3468 -0.2809 -0.6338
  197TIP3    H2  556   4.124   0.474   1.552 -0.5247 -0.4380 -0.2399
  198TIP3   OH2  557   1.584   3.013   3.406  0.7658  0.5699  0.9238
  198TIP3    H1  558   1.574   2.965   3.324 -0.3322 -0.0861  1.4165
  198TIP3    H2  559   1.669   2.986   3.440  0.2779 -0.8671  1.0699
  199TIP3   OH2  560   0.688   3.959   0.941  0.0582  0.8239  0.5087
  199TIP3    H1  561   0.753   4.029   0.944  1.5854 -0.4814 -0.4453
  199TIP3    H2  562   0.648   3.967   0.855 -0.8446  1.4338  0.9771
  200TIP3   OH2  563   1.953   3.166   3.265 -0.0698  0.2476  0.5517
  200TIP3    H1  564   1.900   3.202   3.336  0.2053 -1.0513  1.4448
  200TIP3    H2  565   1.898   3.097   3.228  0.5926 -0.4484  0.8436
  201TIP3   OH2  566   6.421   6.646   5.144 -0.0863  0.1042  0.5408
  201TIP3    H1  567   6.387   6.564   5.179  0.4279  0.3935  1.7573
  201TIP3    H2  568   6.362   6.667   5.072 -0.0635 -1.4680  0.0200
  202TIP3   OH2  569   0.949   1.765   1.449 -0.0722 -0.2430 -0.3157
  202TIP3    H1  570   0.870   1.761   1.394  0.2436 -0.3757 -0.7641
  202TIP3    H2  571   0.986   1.852   1.431  1.0175 -0.9507 -1.7169
  203TIP3   OH2  572   3.672   4.230   3.499  0.0131  0.2327  0.2538
  203TIP3    H1  573   3.623   4.168   3.444 -0.0253  0.4633  0.0239
  203TIP3    H2  574   3.616   4.307   3.502  0.7137  0.8022 -0.6708
  204TIP3   OH2  575   3.188   0.825   1.961  0.4104 -0.6194  0.7258
  204TIP3    H1  576   3.166   0.887   2.030 -0.0526 -0.4265  0.4058
  204TIP3    H2  577   3.108   0.775   1.946  1.0756 -2.0870  1.7771
  205TIP3   OH2  578   7.192   4.386   2.819 -0.3017 -0.0081 -0.6383
  205TIP3    H1  579   7.205   4.296   2.789  2.3379  0.0636  0.0224
  205TIP3    H2  580   7.139   4.427   2.751 -0.7833 -1.8055 -1.4014
  206TIP3   OH2  581   2.508   3.420   5.652  0.0199  0.2672 -0.0051
  206TIP3    H1  582   2.503   3.389   5.742 -0.2179 -0.0205 -0.1117
  206TIP3    H2  583   2.535   3.342   5.602 -1.3852 -0.0070 -0.3931
  207TIP3   OH2  584   1.908   4.560   4.503 -0.8792  0.0721 -0.2570
  207TIP3    H1  585   1.871   4.645   4.480 -0.2786  0.7871  1.3092
  207TIP3    H2  586   2.003   4.574   4.505 -0.8563 -0.0078  2.1711
  208TIP3   OH2  587   6.093   4.611   5.887  0.2328 -0.3453 -0.1050
  208TIP3    H1  588   6.066   4.662   5.811  0.2622  1.3894  0.9905
  208TIP3    H2  589   6.012   4.586   5.930  0.2097  1.4414  0.9997
  209TIP3   OH2  590   5.655   5.658   5.416  0.0484 -0.1841  0.0160
  209TIP3    H1  591   5.560   5.653   5.425  0.0531 -2.3908 -0.5558
  209TIP3    H2  592   5.686   5.570   5.436  1.8942  0.2252 -0.7749
  210TIP3   OH2  593   7.015   5.652   1.601 -0.1771 -0.0080  0.1981
  210TIP3    H1  594   7.098   5.674   1.643  1.2153 -4.5764  0.4267
  210TIP3    H2  595   6.960   5.619   1.672 -0.4655 -1.1401 -0.5203
  211TIP3   OH2  596   6.959   3.322   4.889  0.4246 -0.2324 -0.3128
  211TIP3    H1  597   6.939   3.391   4.952 -1.1403 -1.0757  0.1451
  211TIP3    H2  598   6.983   3.369   4.809  2.6952  0.8680  0.9135
  212TIP3   OH2  599   2.332   5.937   5.235  0.0782 -0.5139 -0.3407
  212TIP3    H1  600   2.421   5.906   5.250 -0.7084 -2.9771 -0.2262
  212TIP3    H2  601   2.342   6.023   5.196  2.4379  0.3885  2.0045
  213TIP3   OH2  602   1.034   0.858   5.541 -0.2343  0.9355 -0.1162
  213TIP3    H1  603   0.948   0.816   5.537  0.4902 -0.6824  0.4642
  213TIP3    H2  604   1.015   0.951   5.535 -1.9864  0.5920 -0.5496
  214TIP3   OH2  605   0.061   3.966   5.565  0.0810  0.2254  0.0834
  214TIP3    H1  606   0.005   3.976   5.642 -0.7090  0.4857 -0.5164
  214TIP3    H2  607   0.017   4.016   5.496  0.4039 -0.6101 -0.7437
  215TIP3   OH2  608   1.381   0.386   0.507 -0.3199 -0.4011 -0.2584
  215TIP3    H1  609   1.309   0.447   0.524  0.4931  0.2361  1.0981
  215TIP3    H2  610   1.348   0.328   0.438 -1.4488  1.0040 -0.9565
  216TIP3   OH2  611   3.734   1.801   2.475 -0.1705  0.0759  0.2143
  216TIP3    H1  612   3.657   1.755   2.510  0.8174 -0.8560  1.2418
  216TIP3    H2  613   3.809   1.758   2.517  0.8672  1.7895  0.2005
  217TIP3   OH2  614   0.526   6.690   5.016 -0.3825  0.6555 -0.9651
  217TIP3    H1  615   0.463   6.757   5.042 -0.0589  0.3469  0.7416
  217TIP3    H2  616   0.611   6.734   5.022 -0.1780  0.1387  0.0717
  218TIP3   OH2  617   5.518   3.584   4.367 -0.2993  0.5345  0.4758
  218TIP3    H1  618   5.538   3.513   4.427  0.6710  0.5874  0.2336
  218TIP3    H2  619   5.581   3.653   4.389 -0.9280  1.1430  0.4043
  219TIP3   OH2  620   6.721   1.898   5.643  0.4269  0.0747  0.4533
  219TIP3    H1  621   6.650   1.885   5.579  1.1477 -2.4840  0.0609
  219TIP3    H2  622   6.676   1.908   5.727 -0.4283  0.1899 -0.0069
  220TIP3   OH2  623   4.877   1.437   2.893  0.2158 -0.1164  0.2558
  220TIP3    H1  624   4.830   1.496   2.952 -1.3422 -0.7153 -0.3382
  220TIP3    H2  625   4.913   1.495   2.826  0.4059  0.3709  0.7782
  221TIP3   OH2  626   3.813   0.420   1.466  0.1467 -0.2318 -0.1574
  221TIP3    H1  627   3.725   0.439   1.500 -0.2692 -2.0822 -0.1108
  221TIP3    H2  628   3.872   0.439   1.539 -0.2492  0.4907 -0.0142
  222TIP3   OH2  629   5.156   4.593   2.047 -0.9463  0.0886  0.2199
  222TIP3    H1  630   5.167   4.672   1.994 -0.1333  0.6252  1.1612
  222TIP3    H2  631   5.178   4.521   1.988  2.5728  0.7963  0.4585
  223TIP3   OH2  632   0.984   0.101   5.711 -0.0658  0.2943  0.2462
  223TIP3    H1  633   0.984   0.168   5.643  0.6322  1.1972  1.1033
  223TIP3    H2  634   0.929   0.137   5.781 -0.3733 -0.4021  0.3703
  224TIP3   OH2  635   6.981   6.443   1.342 -0.2512  0.2713 -0.2549
  224TIP3    H1  636   6.904   6.450   1.399 -0.8505  0.8043 -1.1052
  224TIP3    H2  637   6.962   6.368   1.285 -0.0376  0.2712 -0.3281
  225TIP3   OH2  638   2.996   6.495   3.710 -0.4689  0.1472  0.1021
  225TIP3    H1  639   2.929   6.447   3.759  1.8170 -1.4032  1.9492
  225TIP3    H2  640   3.042   6.547   3.776  1.1482 -0.0946 -0.7684
  226TIP3   OH2  641   6.487   0.264   5.816  0.3720  0.2268  0.5252
  226TIP3    H1  642   6.573   0.238   5.849  0.7362  1.6688  0.7576
  226TIP3    H2  643   6.465   0.344   5.864 -0.2817  0.8786 -0.8078
  227TIP3   OH2  644   0.886   4.343   4.038 -0.0872 -0.4448 -0.1911
  227TIP3    H1  645   0.893   4.365   3.945 -0.9815 -0.1849 -0.2012
  227TIP3    H2  646   0.881   4.427   4.083  2.0060 -0.5033  0.2662
  228TIP3   OH2  647   0.509   0.646   0.925  0.6217  0.9147  0.1938
  228TIP3    H1  648   0.548   0.679   1.006 -0.8021  1.3604  0.7313
  228TIP3    H2  649   0.448   0.715   0.898 -0.7531 -0.2943  0.0987
  229TIP3   OH2  650   0.156   2.956   3.366  0.3257 -0.4859  0.2484
  229TIP3    H1  651   0.092   2.978   3.298  0.1870 -1.2394  0.1275
  229TIP3    H2  652   0.224   2.906   3.320 -0.2607 -1.8650  0.8209
  230TIP3   OH2  653   5.966   0.345   5.402  0.6187 -0.2479 -0.0576
  230TIP3    H1  654   5.901   0.414   5.411  0.8414 -0.1623  1.0603
  230TIP3    H2  655   5.951   0.309   5.315  0.1575  0.8563 -0.4509
  231TIP3   OH2  656   1.887   1.065   4.716 -0.9868  0.1997  0.0201
  231TIP3    H1  657   1.937   1.065   4.634 -1.4207  0.3823 -0.2490
  231TIP3    H2  658   1.913   1.147   4.759 -0.1720 -0.2644  0.4371
  232TIP3   OH2  659   4.740   4.282   2.062 -0.2026 -0.0030  0.1510
  232TIP3    H1  660   4.678   4.355   2.057  0.0203  0.2525  1.0771
  232TIP3    H2  661   4.807   4.311   2.124  0.4510 -0.5766 -0.2776
  233TIP3   OH2  662   3.751   3.589   2.092  0.2284  0.1606  0.5805
  233TIP3    H1  663   3.686   3.656   2.113 -2.7420 -1.9246 -1.2367
  233TIP3    H2  664   3.788   3.617   2.008 -1.1758 -0.5174 -0.2907
  234TIP3   OH2  665   3.534   1.069   0.467 -0.4659 -0.0612 -0.1475
  234TIP3    H1  666   3.564   0.994   0.517  0.4762  0.6991  0.4568
  234TIP3    H2  667   3.599   1.137   0.482 -1.5155  1.0376 -0.3267
  235TIP3   OH2  668   6.611   2.598   0.933  0.1807  0.7622  0.0224
  235TIP3    H1  669   6.600   2.517   0.982  0.6592 -0.3201 -1.5990
  235TIP3    H2  670   6.705   2.614   0.934  0.1368  1.0299 -0.0930
  236TIP3   OH2  671   1.183   6.102   4.084 -0.5848 -0.0027  0.1424
  236TIP3    H1  672   1.278   6.099   4.097 -0.4462  0.2733 -0.7733
  236TIP3    H2  673   1.167   6.188   4.043 -1.1599 -0.2812 -0.2254
  237TIP3   OH2  674   0.501   1.276   5.071  0.2228 -0.5478 -0.6561
  237TIP3    H1  675   0.516   1.368   5.093 -2.9942 -0.4150  1.6236
  237TIP3    H2  676   0.584   1.233   5.091  1.6533  1.7160 -1.3414
  238TIP3   OH2  677   1.021   6.016   0.720 -0.0097  0.3247  0.0774
  238TIP3    H1  678   1.102   6.025   0.670  0.7829 -0.4374  1.1662
  238TIP3    H2  679   1.051   5.991   0.808 -1.4911 -1.3232  0.1473
  239TIP3   OH2  680   3.494   0.508   3.642  0.0624  0.2497  0.3711
  239TIP3    H1  681   3.435   0.450   3.691 -1.5631  1.1587 -0.4368
  239TIP3    H2  682   3.437   0.576   3.606  1.4392  0.5198 -1.4442
  240TIP3   OH2  683   5.658   3.162   4.328 -0.4821  0.3337 -0.6410
  240TIP3    H1  684   5.647   3.126   4.416 -3.7754  1.1494 -0.6088
  240TIP3    H2  685   5.733   3.222   4.337 -0.1377 -0.3145  1.3551
  241TIP3   OH2  686   3.545   6.740   2.721  0.3384 -0.1305  0.6781
  241TIP3    H1  687   3.469   6.722   2.776  0.1137 -1.0414  0.0907
  241TIP3    H2  688   3.519   6.708   2.634  1.8546 -1.6214  0.7393
  242TIP3   OH2  689   0.638   2.326   0.933 -0.3006 -0.0860  0.0987
  242TIP3    H1  690   0.619   2.233   0.919 -1.0618  0.2861 -1.6284
  242TIP3    H2  691   0.584   2.371   0.868  1.9983  1.4131 -0.8731
  243TIP3   OH2  692   2.768   0.641   2.879 -0.9299 -0.4346 -0.4388
  243TIP3    H1  693   2.850   0.670   2.919 -0.5471  1.4694 -2.4009
  243TIP3    H2  694   2.700   0.690   2.926 -0.6266  0.5874 -1.0490
  244TIP3   OH2  695   0.923   1.079   1.117 -0.0844 -1.3214 -0.3120
  244TIP3    H1  696   0.967   1.077   1.032  0.4269  1.4982 -0.2027
  244TIP3    H2  697   0.992   1.063   1.181  0.0841 -0.6272 -0.3149
  245TIP3   OH2  698   1.872   1.559   2.546 -0.3458  0.0725 -1.0237
  245TIP3    H1  699   1.839   1.471   2.562 -0.2128  0.2016  0.0216
  245TIP3    H2  700   1.952   1.545   2.495 -0.1300 -0.4411 -0.5564
  246TIP3   OH2  701   6.098   6.446   3.094  0.4959  0.2100 -0.1551
  246TIP3    H1  702   6.114   6.352   3.086  3.0952  0.6608 -1.4172
  246TIP3    H2  703   6.122   6.466   3.185 -0.3141 -0.3701  0.1939
  247TIP3   OH2  704   3.838   0.479   0.504 -0.1258  0.3056 -0.5428
  247TIP3    H1  705   3.888   0.405   0.469 -0.1789 -0.0228  0.0552
  247TIP3    H2  706   3.809   0.449   0.591  0.8231  1.4361  0.1951
  248TIP3   OH2  707   0.068   2.437   1.384 -0.0193 -0.2626 -0.3568
  248TIP3    H1  708   0.159   2.431   1.353  0.0925  0.9862 -0.2970
  248TIP3    H2  709   0.032   2.350   1.366  1.5783 -1.2585  0.9058
  249TIP3   OH2  710   4.632   3.933   2.514  0.6837 -0.2006  0.0620
  249TIP3    H1  711   4.597   3.855   2.473  1.1033  0.4118 -1.5356
  249TIP3    H2  712   4.559   3.995   2.515  0.9386  0.1176 -0.6756
  250TIP3   OH2  713   5.391   4.920   4.828 -0.2613 -0.0803 -0.2773
  250TIP3    H1  714   5.477   4.938   4.867  0.3353 -0.1404 -1.5122
  250TIP3    H2  715   5.337   4.995   4.854  0.0343 -0.2244  0.8279
  251TIP3   OH2  716   4.950   1.120   5.746 -0.3260  0.2695 -0.1197
  251TIP3    H1  717   4.977   1.158   5.663 -1.0673  1.9577  0.3707
  251TIP3    H2  718   4.872   1.068   5.725 -0.1805  0.2209 -0.5477
  252TIP3   OH2  719   4.927   4.366   0.736  0.0705  0.0595  0.4168
  252TIP3    H1  720   5.007   4.418   0.736 -0.7169  1.3899 -1.4883
  252TIP3    H2  721   4.873   4.405   0.667 -1.0235 -2.6520 -0.3852
  253TIP3   OH2  722   3.950   6.277   5.623  0.1295 -0.0463  0.1987
  253TIP3    H1  723   3.976   6.323   5.702  0.9245 -0.0486 -0.0594
  253TIP3    H2  724   3.985   6.188   5.634  1.7903  0.4263 -0.9173
  254TIP3   OH2  725   2.924   2.219   4.061 -0.3383  0.4081  0.2037
  254TIP3    H1  726   3.018   2.214   4.078 -0.5791 -0.7584  1.4842
  254TIP3    H2  727   2.884   2.221   4.149 -1.5195  0.2707 -0.3033
  255TIP3   OH2  728   5.258   3.323   5.766 -0.2470 -0.3696  0.6881
  255TIP3    H1  729   5.176   3.370   5.784 -0.0536  0.6073 -0.7889
  255TIP3    H2  730   5.253   3.303   5.672  1.0606 -0.5812  0.6550
  256TIP3   OH2  731   2.813   4.684   5.323  0.2375  0.0880 -0.1131
  256TIP3    H1  732   2.863   4.617   5.368  1.9852  0.8186 -0.8727
  256TIP3    H2  733   2.736   4.639   5.289  0.6047 -1.1765  0.6873
  257TIP3   OH2  734   3.391   5.731   0.032 -0.3269  0.7621 -0.2272
  257TIP3    H1  735   3.375   5.775  -0.051 -0.4225 -0.3427 -0.8210
  257TIP3    H2  736   3.483   5.749   0.052  0.4683 -1.0760 -1.9225
  258TIP3   OH2  737   1.185   1.941   4.880  0.3201 -0.2575  0.1179
  258TIP3    H1  738   1.163   1.886   4.955  0.1837 -0.7733 -0.2990
  258TIP3    H2  739   1.142   2.025   4.899 -0.2669 -0.5923  0.3070
  259TIP3   OH2  740   2.685   0.710   4.705 -0.3354 -0.2888  0.0468
  259TIP3    H1  741   2.623   0.743   4.770  0.4352 -0.7336  1.0276
  259TIP3    H2  742   2.698   0.784   4.646 -0.6803  0.2879  0.6717
  260TIP3   OH2  743   4.382   4.878   3.974 -0.5869 -0.2015  0.1306
  260TIP3    H1  744   4.374   4.967   4.008 -0.3666 -0.1733  0.1087
  260TIP3    H2  745   4.349   4.883   3.884  2.1508  0.5181 -0.9337
  261TIP3   OH2  746   5.088   5.006   5.666  0.4172  0.2314 -0.3913
  261TIP3    H1  747   4.996   5.030   5.677  0.7271  0.5823  1.9386
  261TIP3    H2  748   5.121   4.997   5.755  1.5219 -4.4227 -0.9962
  262TIP3   OH2  749   3.934   2.784   4.569  0.3550  0.0486 -0.8189
  262TIP3    H1  750   3.923   2.734   4.488 -1.1149  1.2459 -1.4002
  262TIP3    H2  751   3.984   2.861   4.543 -0.2193  0.4938 -0.6170
  263TIP3   OH2  752   5.626   2.500   2.099  0.0889  0.4040  0.1170
  263TIP3    H1  753   5.638   2.501   2.004 -1.2096  2.6123 -0.0916
  263TIP3    H2  754   5.698   2.554   2.132 -0.6210  1.3440  0.1704
  264TIP3   OH2  755   2.539   0.286   5.462 -0.3090 -0.0914 -0.4382
  264TIP3    H1  756   2.526   0.197   5.430 -0.9477 -0.0936 -0.1817
  264TIP3    H2  757   2.631   0.304   5.445  0.0731 -1.1466  0.3859
  265TIP3   OH2  758   7.203   2.876   5.749  0.4673 -0.2309 -0.0966
  265TIP3    H1  759   7.191   2.896   5.656 -0.4346  0.9135  0.2454
  265TIP3    H2  760   7.120   2.902   5.790 -0.2274 -3.2946  0.6517
  266TIP3   OH2  761   7.171   4.470   3.087 -0.2665 -0.4030 -0.0232
  266TIP3    H1  762   7.254   4.444   3.126 -0.9099  0.9820  2.4600
  266TIP3    H2  763   7.146   4.396   3.031  1.5737 -1.7507  0.8598
  267TIP3   OH2  764   4.833   0.395   0.500  0.5167  0.8089  0.2435
  267TIP3    H1  765   4.826   0.385   0.595 -0.0271  1.0809  0.2362
  267TIP3    H2  766   4.757   0.448   0.476 -0.2478 -0.5760 -0.5562
  268TIP3   OH2  767   3.515   2.125   5.182 -0.6551  0.0840  0.3709
  268TIP3    H1  768   3.485   2.039   5.210 -1.4614 -0.0912 -0.9758
  268TIP3    H2  769   3.435   2.175   5.167 -0.3290 -0.0293 -2.1754
  269TIP3   OH2  770   6.936   1.902   0.655 -0.0139  0.3002 -0.4928
  269TIP3    H1  771   6.875   1.867   0.720 -0.1688 -0.0999 -0.8451
  269TIP3    H2  772   7.018   1.914   0.702  0.6266 -2.3857 -0.7804
  270TIP3   OH2  773   6.231   1.035   3.933 -0.0504  0.4193  0.2874
  270TIP3    H1  774   6.285   1.027   4.012 -0.7645 -1.0197  0.6638
  270TIP3    H2  775   6.245   0.953   3.886  0.9406  1.5631 -1.4920
  271TIP3   OH2  776   4.201   5.536   4.318 -0.0264  0.5532  0.0363
  271TIP3    H1  777   4.217   5.462   4.376  2.7349 -0.4118 -1.8005
  271TIP3    H2  778   4.271   5.598   4.337  1.3887 -0.0873 -2.6153
  272TIP3   OH2  779   3.162   5.111   0.611  0.2060 -0.2824  0.1379
  272TIP3    H1  780   3.222   5.036   0.616  2.6801  1.5134 -0.4309
  272TIP3    H2  781   3.203   5.169   0.548 -1.8437  1.3976  0.2681
  273TIP3   OH2  782   0.718   5.113   3.229 -0.9007 -0.1565  0.6237
  273TIP3    H1  783   0.768   5.157   3.160  0.7532 -0.6172  1.4744
  273TIP3    H2  784   0.698   5.027   3.192 -0.0431 -0.3937  0.7032
  274TIP3   OH2  785   0.521   6.196   3.957  0.3337  0.0457  0.3151
  274TIP3    H1  786   0.609   6.183   3.922  0.2754  0.3982  0.0254
  274TIP3    H2  787   0.498   6.112   3.998  0.6008 -0.2153 -0.0628
  275TIP3   OH2  788   2.544   4.920   2.587  0.2750 -0.1386  0.1670
  275TIP3    H1  789   2.454   4.916   2.556  0.0543  0.8794  0.6396
  275TIP3    H2  790   2.598   4.921   2.508 -0.0107 -2.5853 -0.1160
  276TIP3   OH2  791   1.012   3.808   4.948 -0.2052 -0.4875  0.3197
  276TIP3    H1  792   1.019   3.713   4.953 -0.2598 -0.6469 -1.8140
  276TIP3    H2  793   1.090   3.836   4.900  0.0103  0.6041  1.2499
  277TIP3   OH2  794   2.863   2.004   5.144  0.0148 -0.2066 -0.0037
  277TIP3    H1  795   2.790   1.955   5.106 -0.4839 -0.6824  1.5078
  277TIP3    H2  796   2.911   2.039   5.068 -1.6536 -0.0550 -1.0237
  278TIP3   OH2  797   7.151   3.298   0.061  0.1844 -0.0798 -0.3081
  278TIP3    H1  798   7.176   3.389   0.074  0.1315 -0.0906 -0.1289
  278TIP3    H2  799   7.087   3.280   0.129 -1.0430  0.2264 -1.3545
  279TIP3   OH2  800   1.006   2.107   3.916 -0.0418  0.0112  0.2143
  279TIP3    H1  801   1.059   2.127   3.839 -0.6375  0.1753 -0.1615
  279TIP3    H2  802   0.950   2.034   3.888 -3.3037  2.7154 -0.9792
  280TIP3   OH2  803   2.776   6.108   0.798  0.1770  0.3590  0.4146
  280TIP3    H1  804   2.705   6.060   0.754  0.3070  0.0138  0.5794
  280TIP3    H2  805   2.855   6.061   0.773  0.1948 -0.2570  1.5516
  281TIP3   OH2  806   0.134   5.930   3.832  0.7584 -0.5991  0.9675
  281TIP3    H1  807   0.118   5.864   3.764  0.2500 -0.7925  1.2654
  281TIP3    H2  808   0.178   6.002   3.787  0.3938 -0.7135  0.4306
  282TIP3   OH2  809   5.699   0.945   1.232  0.2344  0.7386 -0.0082
  282TIP3    H1  810   5.748   0.915   1.308 -0.3965 -0.1642  0.0465
  282TIP3    H2  811   5.721   1.039   1.226 -1.0475  1.2612  2.3192
  283TIP3   OH2  812   2.513   1.044   4.293 -0.0037 -0.0450  0.2192
  283TIP3    H1  813   2.554   1.114   4.344 -0.2869  0.5987 -0.4158
  283TIP3    H2  814   2.455   1.090   4.232  0.7452 -0.7534 -1.0736
  284TIP3   OH2  815   3.755   2.112   4.964  0.0211  0.6299  0.5673
  284TIP3    H1  816   3.729   2.074   5.048  1.1160  2.0716  1.5995
  284TIP3    H2  817   3.805   2.190   4.987 -1.6749  2.4634 -1.4321
  285TIP3   OH2  818   0.630   2.939   2.189  0.6203 -0.6379 -0.2767
  285TIP3    H1  819   0.632   2.940   2.284  1.0496  0.0165 -0.2847
  285TIP3    H2  820   0.701   2.881   2.163  0.3951 -0.9498 -0.1979
  286TIP3   OH2  821   5.836   6.275   0.264  0.3246  0.0031  0.4997
  286TIP3    H1  822   5.929   6.268   0.287  0.1013 -0.0672  1.4443
  286TIP3    H2  823   5.815   6.192   0.222  0.2290 -0.8186  2.0831
  287TIP3   OH2  824   0.457   0.881   0.597  0.2266  0.4282  0.0141
  287TIP3    H1  825   0.457   0.872   0.501  0.1553 -0.8721  0.1264
  287TIP3    H2  826   0.542   0.847   0.624  1.1207  2.6714  0.2901
  288TIP3   OH2  827   4.593   1.605   4.531 -0.0431 -0.2796 -0.1673
  288TIP3    H1  828   4.584   1.700   4.524 -1.0187 -0.3885 -0.6145
  288TIP3    H2  829   4.529   1.571   4.468 -0.8226 -1.2502  1.0970
  289TIP3   OH2  830   6.132   2.866   2.204  0.1945  0.4586 -0.1298
  289TIP3    H1  831   6.043   2.864   2.239  0.0185  0.2962 -0.5810
  289TIP3    H2  832   6.184   2.818   2.268 -0.6999 -2.9108 -1.6703
  290TIP3   OH2  833   1.486   0.596   0.019 -0.6076 -0.0836 -0.2105
  290TIP3    H1  834   1.495   0.559   0.107 -0.5698 -0.8941 -0.5454
  290TIP3    H2  835   1.553   0.665   0.015 -1.6604  1.0526  0.9309
  291TIP3   OH2  836   2.738   1.811   4.940  0.2935  0.5484  0.1494
  291TIP3    H1  837   2.679   1.749   4.897  2.0653 -1.0095 -0.1432
  291TIP3    H2  838   2.741   1.782   5.031  0.8439  0.4135  0.0928
  292TIP3   OH2  839   2.114   4.895   3.806  0.5364  0.0696  0.0664
  292TIP3    H1  840   2.120   4.850   3.722 -0.0813 -0.2346  0.1822
  292TIP3    H2  841   2.099   4.825   3.870  0.8797  0.3105  0.4185
  293TIP3   OH2  842   2.524   1.277   2.481  0.3161 -0.5397  0.4089
  293TIP3    H1  843   2.500   1.222   2.407 -1.0892  0.2967  0.2097
  293TIP3    H2  844   2.600   1.327   2.450  0.2892 -0.8412 -0.1521
  294TIP3   OH2  845   7.110   3.250   1.431 -0.7670 -0.6025 -0.2954
  294TIP3    H1  846   7.050   3.215   1.366  0.0967  0.6655 -1.8654
  294TIP3    H2  847   7.196   3.244   1.389  0.2192 -2.1320  1.7782
  295TIP3   OH2  848   2.008   2.422   1.575  0.5544 -0.5372  0.3815
  295TIP3    H1  849   2.076   2.455   1.634  0.6813  1.0545 -0.5998
  295TIP3    H2  850   2.053   2.402   1.494 -0.1863  1.1831 -0.5126
  296TIP3   OH2  851   6.821   5.138   0.632 -0.1403 -0.1960 -0.1597
  296TIP3    H1  852   6.844   5.071   0.697 -2.3747 -0.6830  0.2224
  296TIP3    H2  853   6.768   5.201   0.681  1.4494  1.6059 -0.6478
  297TIP3   OH2  854   2.197   3.015   5.050  0.2138 -0.2293 -0.3644
  297TIP3    H1  855   2.192   2.953   5.122 -1.1334  1.3222  0.9422
  297TIP3    H2  856   2.107   3.029   5.023  0.3820  1.6648 -0.1335
  298TIP3   OH2  857   1.832   6.498   4.046 -0.0906 -0.4255  0.0472
  298TIP3    H1  858   1.909   6.556   4.044  0.4883 -1.1303 -2.7469
  298TIP3    H2  859   1.758   6.557   4.030  0.2772 -0.1867 -0.8378
  299TIP3   OH2  860   3.192   3.047   3.382  0.1145  0.2037 -0.4766
  299TIP3    H1  861   3.221   3.115   3.443  2.0804 -1.4056  0.4790
  299TIP3    H2  862   3.235   3.069   3.300 -0.2768  0.8079 -0.5252
  300TIP3   OH2  863   1.030   4.117   4.066 -0.2166  0.1589 -0.0960
  300TIP3    H1  864   0.985   4.199   4.087 -0.4463  0.0586 -0.1937
  300TIP3    H2  865   0.964   4.049   4.084 -0.5812  0.0907 -1.5969
  301TIP3   OH2  866   6.955   0.445   4.450 -0.8269  0.2810  0.0398
  301TIP3    H1  867   7.007   0.394   4.388  0.0033 -0.9581  1.6760
  301TIP3    H2  868   6.938   0.528   4.405  0.8920 -0.0438 -1.3137
  302TIP3   OH2  869   0.180   2.028   5.144 -0.0211 -0.4923 -0.5156
  302TIP3    H1  870   0.268   2.062   5.126 -0.5555  1.7979  0.7796
  302TIP3    H2  871   0.137   2.099   5.192 -1.4104 -2.9139  2.0945
  303TIP3   OH2  872   5.932   0.467   0.088 -0.0143 -0.4238  0.0819
  303TIP3    H1  873   5.994   0.510   0.029 -1.2123  0.3426 -0.6539
  303TIP3    H2  874   5.951   0.373   0.078  1.3704 -0.1819  0.2798
  304TIP3   OH2  875   0.530   4.261   2.882  0.3411  0.0227  0.2510
  304TIP3    H1  876   0.584   4.197   2.836  1.7133  0.5882  1.0154
  304TIP3    H2  877   0.460   4.209   2.923 -0.1373 -0.6349 -1.3253
  305TIP3   OH2  878   0.967   1.477   2.255  0.2426 -0.3792  0.3767
  305TIP3    H1  879   1.034   1.544   2.263  0.3588 -0.5115  0.5084
  305TIP3    H2  880   0.915   1.485   2.334 -0.3254  0.1869 -0.0428
  306TIP3   OH2  881   2.116   6.029   4.631  0.6037  0.1590  0.0812
  306TIP3    H1  882   2.021   6.042   4.635  0.5802  0.7833 -1.8379
  306TIP3    H2  883   2.138   6.041   4.539  2.5062 -0.3808  0.4346
  307TIP3   OH2  884   5.277   4.747   1.696  0.5299 -0.5643 -0.2954
  307TIP3    H1  885   5.296   4.793   1.614  0.9380 -0.3252 -0.0692
  307TIP3    H2  886   5.215   4.803   1.742 -0.9775 -1.4540 -1.1382
  308TIP3   OH2  887   4.895   1.098   2.230 -0.4759  0.3337  0.1787
  308TIP3    H1  888   4.901   1.045   2.309  1.0473  1.1491  0.6520
  308TIP3    H2  889   4.808   1.139   2.235 -0.7536 -0.3283  0.9633
  309TIP3   OH2  890   6.371   5.961   5.142 -0.3485  0.2648 -0.7927
  309TIP3    H1  891   6.307   5.900   5.106 -0.5861  0.9756 -1.5922
  309TIP3    H2  892   6.438   5.905   5.182  0.4018 -0.5946 -3.1072
  310TIP3   OH2  893   3.561   0.876   5.387 -0.2269  0.1878 -0.1958
  310TIP3    H1  894   3.601   0.962   5.373  0.0969 -0.0554 -0.8395
  310TIP3    H2  895   3.571   0.831   5.303 -0.6570 -0.3724  0.0434
  311TIP3   OH2  896   3.897   1.027   4.932 -0.0411 -0.4830  0.2054
  311TIP3    H1  897   3.902   0.932   4.917  1.0033 -0.3682 -0.2258
  311TIP3    H2  898   3.826   1.037   4.996 -1.7932 -1.3480 -1.4994
  312TIP3   OH2  899   4.580   1.563   2.766  0.0550 -0.0035 -0.1710
  312TIP3    H1  900   4.580   1.503   2.691  1.5188 -0.6959  0.3464
  312TIP3    H2  901   4.559   1.507   2.841  2.5503 -0.1804  0.4865
  313TIP3   OH2  902   3.343   4.655   3.180  0.0217 -0.3552  0.0534
  313TIP3    H1  903   3.255   4.680   3.150  0.5039  1.0233 -0.3121
  313TIP3    H2  904   3.371   4.729   3.235  1.3960 -0.2285 -0.7684
  314TIP3   OH2  905   4.141   1.336   2.465 -0.2626  0.0652 -0.4837
  314TIP3    H1  906   4.166   1.392   2.538  3.1716 -0.3840 -1.1281
  314TIP3    H2  907   4.147   1.247   2.500  0.1646 -0.1043 -0.9851
  315TIP3   OH2  908   4.006   5.729   1.158 -0.3329  0.1463 -0.1360
  315TIP3    H1  909   3.990   5.640   1.190 -1.8118  0.5179  0.2270
  315TIP3    H2  910   4.011   5.782   1.238  2.3015  0.1870 -0.2354
  316TIP3   OH2  911   3.062   3.030   4.450 -0.0233 -0.0170  0.0535
  316TIP3    H1  912   3.133   2.984   4.405  0.7485  0.3834  0.8245
  316TIP3    H2  913   3.085   3.123   4.442 -2.2387  0.4165 -2.6401
  317TIP3   OH2  914   3.987   1.004   4.210 -0.4233 -0.6295  0.3800
  317TIP3    H1  915   3.949   1.072   4.267 -1.5044 -1.3166  0.5118
  317TIP3    H2  916   4.079   1.028   4.202 -0.1093 -0.7795  2.8514
  318TIP3   OH2  917   6.154   1.155   0.410  0.7750  0.1613  0.2683
  318TIP3    H1  918   6.121   1.234   0.368  1.1436  0.1860  0.0147
  318TIP3    H2  919   6.158   1.177   0.503 -0.2762  0.0243  0.3548
  319TIP3   OH2  920   4.116   1.529   3.616  0.0061  0.4221  0.1469
  319TIP3    H1  921   4.201   1.506   3.577 -1.4432 -0.7105 -2.6420
  319TIP3    H2  922   4.064   1.449   3.608 -1.2479  0.9594  2.1863
  320TIP3   OH2  923   1.537   1.479   2.098  0.5617 -0.8519 -0.0085
  320TIP3    H1  924   1.605   1.525   2.049  0.0971 -0.9598 -0.7741
  320TIP3    H2  925   1.581   1.448   2.177  1.2832 -0.5215 -0.2728
  321TIP3   OH2  926   2.995   2.044   2.335  0.0909 -0.0036 -0.1452
  321TIP3    H1  927   2.991   1.952   2.309  1.0725  0.3198 -1.6273
  321TIP3    H2  928   3.032   2.043   2.423  0.5255 -1.0157 -0.3272
  322TIP3   OH2  929   6.243   5.750   1.497 -0.2049 -0.5812  0.0605
  322TIP3    H1  930   6.229   5.673   1.553  0.2055 -1.6849 -1.3060
  322TIP3    H2  931   6.338   5.763   1.497 -0.3389  0.6101  1.1260
  323TIP3   OH2  932   1.576   5.635   2.686 -0.3436  0.4648  0.0167
  323TIP3    H1  933   1.503   5.690   2.714  0.0431  0.5962  0.7836
  323TIP3    H2  934   1.610   5.678   2.608 -0.4398  0.9723  0.2510
  324TIP3   OH2  935   4.460   1.322   0.359 -0.2475 -0.2769 -0.3928
  324TIP3    H1  936   4.537   1.269   0.340  0.3791  0.5325 -0.2092
  324TIP3    H2  937   4.457   1.386   0.288  1.3442  1.9364  1.3906
  325TIP3   OH2  938   1.949   2.973   2.968  0.6275 -0.2189 -0.1205
  325TIP3    H1  939   2.028   3.011   3.006 -0.0414  2.0564 -0.8295
  325TIP3    H2  940   1.962   2.981   2.873  0.2515 -1.3909 -0.2845
  326TIP3   OH2  941   6.647   0.953   0.789  0.0957  0.1735  0.0686
  326TIP3    H1  942   6.730   0.911   0.768 -0.1319 -0.1726 -0.1620
  326TIP3    H2  943   6.670   1.040   0.821  0.5079  0.3480 -0.6751
  327TIP3   OH2  944   2.145   2.744   1.148 -0.1584  0.4094 -0.3802
  327TIP3    H1  945   2.104   2.698   1.075  0.2230  0.1417 -0.4234
  327TIP3    H2  946   2.235   2.758   1.120 -0.0941  0.5808 -0.0878
  328TIP3   OH2  947   3.627   1.852   0.224 -0.2752 -0.2666 -0.5493
  328TIP3    H1  948   3.722   1.866   0.216 -0.2804 -0.7160 -1.5622
  328TIP3    H2  949   3.588   1.939   0.214 -0.0196 -0.2142 -1.1032
  329TIP3   OH2  950   6.768   0.832   2.657 -0.2695 -0.1832  0.6315
  329TIP3    H1  951   6.729   0.852   2.572 -0.2916  1.1892  0.9514
  329TIP3    H2  952   6.705   0.773   2.699 -0.3957 -0.6404 -0.1739
  330TIP3   OH2  953   0.328   4.655   3.285  0.1973  0.3014  0.1480
  330TIP3    H1  954   0.309   4.749   3.286  0.6095  0.4138 -1.1896
  330TIP3    H2  955   0.417   4.648   3.318  0.2087  0.3917  0.1363
  331TIP3   OH2  956   1.853   0.893   1.755  0.1396  0.2114 -0.4869
  331TIP3    H1  957   1.885   0.913   1.844  1.2066  1.6231 -1.1544
  331TIP3    H2  958   1.928   0.851   1.712 -0.1368  0.1950 -0.9542
  332TIP3   OH2  959   0.205   5.182   5.434  0.1044  0.4448  0.7006
  332TIP3    H1  960   0.187   5.099   5.479  1.0611 -0.0093  0.2750
  332TIP3    H2  961   0.296   5.175   5.406 -0.7766  0.1114 -2.4989
  333TIP3   OH2  962   0.183   6.533   3.495 -0.0910  0.1776 -0.0424
  333TIP3    H1  963   0.175   6.550   3.589 -0.8203  0.0498 -0.0767
  333TIP3    H2  964   0.096   6.552   3.460  0.5392  1.6672 -0.9279
  334TIP3   OH2  965   6.929   2.093   1.025 -0.3675 -0.4624  0.0150
  334TIP3    H1  966   6.994   2.143   0.975 -0.8051  1.3196  1.1376
  334TIP3    H2  967   6.977   2.062   1.102 -0.7397  0.5555  0.6682
  335TIP3   OH2  968   7.027   6.709   1.459 -0.2608  0.6213  0.1235
  335TIP3    H1  969   7.009   6.620   1.431 -0.8508  0.1433  1.8890
  335TIP3    H2  970   7.123   6.713   1.465 -0.2191  0.1866 -0.2180
  336TIP3   OH2  971   5.039   4.695   3.455 -0.0354  0.6176  0.0184
  336TIP3    H1  972   4.991   4.764   3.409 -1.2447  2.2391  3.4001
  336TIP3    H2  973   4.989   4.680   3.535  1.3146 -2.8357  0.3642
  337TIP3   OH2  974   7.089   2.535   4.357 -0.1694 -0.2945 -0.0369
  337TIP3    H1  975   7.175   2.520   4.319 -0.9995 -2.3468 -1.3221
  337TIP3    H2  976   7.062   2.449   4.390 -1.0093  0.6828  1.9981
  338TIP3   OH2  977   6.684   0.826   4.315  0.3361  0.5298  0.1729
  338TIP3    H1  978   6.709   0.916   4.294 -0.8652  0.6404 -0.9291
  338TIP3    H2  979   6.741   0.772   4.261  0.8045  0.6328  0.5575
  339TIP3   OH2  980   4.010   4.611   1.547  0.5477 -0.0399 -0.2387
  339TIP3    H1  981   3.937   4.552   1.533  1.0421 -0.3721 -1.4763
  339TIP3    H2  982   4.086   4.566   1.512  0.9701  1.2270 -1.0458
  340TIP3   OH2  983   3.618   5.086   4.198 -0.1817  0.4237 -0.0035
  340TIP3    H1  984   3.602   5.146   4.271  0.2418 -1.2082  1.4963
  340TIP3    H2  985   3.557   5.014   4.213 -0.0519  0.0272 -1.2611
  341TIP3   OH2  986   2.466   1.567   5.614  0.1369 -0.0071 -0.6836
  341TIP3    H1  987   2.549   1.564   5.663 -0.4413 -0.0964  0.3072
  341TIP3    H2  988   2.399   1.574   5.682 -0.6783 -0.0791 -1.4789
  342TIP3   OH2  989   0.943   5.932   1.070  0.3831 -0.0632 -0.2382
  342TIP3    H1  990   0.936   5.838   1.052  0.5086  0.0314 -0.8027
  342TIP3    H2  991   1.023   5.958   1.023  0.5492  0.2507  0.2223
  343TIP3   OH2  992   3.636   2.219   1.866  0.1605 -0.2300 -0.3476
  343TIP3    H1  993   3.643   2.135   1.821  4.2541  0.4335 -1.4151
  343TIP3    H2  994   3.616   2.282   1.796 -1.1404 -0.0722  0.1468
  344TIP3   OH2  995   1.153   6.433   1.139 -0.3460  0.5411 -0.2118
  344TIP3    H1  996   1.167   6.377   1.062  1.7064  0.5576  0.0953
  344TIP3    H2  997   1.066   6.471   1.125 -0.5209 -0.3643 -1.9244
  345TIP3   OH2  998   3.827   4.433   5.052 -0.1339 -0.2851  0.1775
  345TIP3    H1  999   3.777   4.465   4.977 -1.2804 -1.3120  0.4822
  345TIP3    H2 1000   3.780   4.356   5.082  0.9938 -0.6103  1.2089
  346TIP3   OH2 1001   0.338   4.443   1.122  0.1202  0.3668 -0.1661
  346TIP3    H1 1002   0.350   4.511   1.057  0.7674  0.0215 -0.4223
  346TIP3    H2 1003   0.386   4.367   1.087  0.3509  0.1306  0.6310
  347TIP3   OH2 1004   0.475   1.655   1.805  0.0467 -0.7290  0.0999
  347TIP3    H1 1005   0.389   1.618   1.782 -0.3043 -0.7848  1.3822
  347TIP3    H2 1006   0.536   1.582   1.796 -0.4112 -1.2894  1.2298
  348TIP3   OH2 1007   1.001   4.078   3.205 -0.0386 -0.1725 -0.1616
  348TIP3    H1 1008   1.084   4.063   3.159 -0.1839  0.3627 -0.6105
  348TIP3    H2 1009   1.027   4.114   3.290  0.2042 -0.3503 -0.1609
  349TIP3   OH2 1010   1.966   6.597   3.760  0.4690 -0.0317  0.0970
  349TIP3    H1 1011   1.917   6.671   3.724 -0.6694 -0.5841  0.4722
  349TIP3    H2 1012   2.016   6.634   3.833 -1.4097  0.0989  1.3988
  350TIP3   OH2 1013   3.320   2.785   4.603  0.1057 -0.8019 -0.5501
  350TIP3    H1 1014   3.230   2.755   4.590 -0.1666 -0.3141  0.1470
  350TIP3    H2 1015   3.348   2.742   4.684  0.0486  0.0283 -0.0721
  351TIP3   OH2 1016   1.464   1.963   4.588  0.3401 -0.0218  0.2030
  351TIP3    H1 1017   1.416   2.045   4.596  0.8313  0.3018 -0.1304
  351TIP3    H2 1018   1.418   1.914   4.519 -0.5281 -0.4420  1.0602
  352TIP3   OH2 1019   6.048   1.195   5.782  0.0054  0.1061  0.5652
  352TIP3    H1 1020   6.082   1.228   5.699 -0.5711  0.0024  0.2847
  352TIP3    H2 1021   6.036   1.274   5.835  0.6898  0.1422  0.6724
  353TIP3   OH2 1022   2.170   2.710   4.781 -0.2716 -0.8282 -0.4438
  353TIP3    H1 1023   2.103   2.679   4.720 -1.2774 -2.1692  1.2375
  353TIP3    H2 1024   2.121   2.758   4.848  0.6622 -0.3648 -0.0682
  354TIP3   OH2 1025   6.772   4.041   2.088  0.1144  0.2661  0.1445
  354TIP3    H1 1026   6.799   4.095   2.162  0.3401 -0.2307  0.4348
  354TIP3    H2 1027   6.797   4.092   2.011  1.4714  0.0460  0.4012
  355TIP3   OH2 1028   6.052   2.337   2.529 -0.2489 -0.2144  0.0766
  355TIP3    H1 1029   6.007   2.321   2.612 -1.5965 -1.8267 -0.8922
  355TIP3    H2 1030   6.128   2.391   2.552 -1.0752  0.1264  2.2020
  356TIP3   OH2 1031   6.276   3.698   0.385  0.0613 -0.1161 -0.6712
  356TIP3    H1 1032   6.345   3.744   0.434 -1.4685  3.2073 -1.3535
  356TIP3    H2 1033   6.302   3.606   0.388  2.7136  0.5492  1.9693
  357TIP3   OH2 1034   0.920   4.065   4.830  0.0185  0.5086  0.0753
  357TIP3    H1 1035   0.998   4.120   4.837 -0.4873  1.1293  1.2176
  357TIP3    H2 1036   0.940   3.989   4.885 -0.6604  1.3015  1.4782
  358TIP3   OH2 1037   3.140   1.022   4.417 -0.6319 -0.1518 -0.0122
  358TIP3    H1 1038   3.202   1.021   4.344  0.3217  0.3881  0.7687
  358TIP3    H2 1039   3.142   0.934   4.452  0.6102  0.1720  0.7537
  359TIP3   OH2 1040   6.195   4.234   4.853  0.0644 -1.1652 -0.3201
  359TIP3    H1 1041   6.127   4.254   4.788 -1.0261 -3.1363  0.1306
  359TIP3    H2 1042   6.174   4.289   4.928  2.0194  2.0237 -1.9075
  360TIP3   OH2 1043   3.975   2.477   5.840 -0.1274 -0.0331 -0.3834
  360TIP3    H1 1044   4.022   2.394   5.829 -2.3095 -1.5476  0.8892
  360TIP3    H2 1045   4.040   2.537   5.877  1.4075 -1.2750 -0.9491
  361TIP3   OH2 1046   3.971   0.972   3.549 -0.2317 -0.3168 -0.5326
  361TIP3    H1 1047   3.917   0.987   3.627  1.4688 -1.0033  0.8636
  361TIP3    H2 1048   3.909   0.966   3.477 -1.9665 -0.7391  0.9290
  362TIP3   OH2 1049   5.716   5.155   5.589 -0.0535  0.4000 -0.3877
  362TIP3    H1 1050   5.626   5.163   5.619  0.3252 -1.1688  1.2911
  362TIP3    H2 1051   5.768   5.204   5.653  0.5259 -0.8791  0.1437
  363TIP3   OH2 1052   4.033   0.681   5.697  0.0367 -0.0437 -0.4619
  363TIP3    H1 1053   4.019   0.741   5.769  0.1025  0.0219 -0.5037
  363TIP3    H2 1054   4.127   0.663   5.698 -0.0357 -0.4351 -0.2201
  364TIP3   OH2 1055   2.820   0.557   3.565  0.8410 -0.2410 -0.1148
  364TIP3    H1 1056   2.851   0.554   3.655 -0.6080  0.5099  0.4324
  364TIP3    H2 1057   2.737   0.604   3.569 -1.1594 -3.3700 -1.2674
  365TIP3   OH2 1058   0.102   1.793   0.092 -0.2269 -0.0203  0.1876
  365TIP3    H1 1059   0.116   1.795   0.187 -0.7481  0.6664  0.2583
  365TIP3    H2 1060   0.007   1.792   0.082 -0.1944 -1.7715 -0.3206
  366TIP3   OH2 1061   0.952   0.377   0.674 -0.0798  0.6673  0.2503
  366TIP3    H1 1062   0.964   0.440   0.745  0.8758 -0.1550  0.8397
  366TIP3    H2 1063   1.034   0.382   0.624  0.5631 -0.9890  1.0481
  367TIP3   OH2 1064   3.385   6.521   0.025 -0.7308 -0.5238 -0.3604
  367TIP3    H1 1065   3.430   6.590   0.075  0.7594 -2.4109  1.0568
  367TIP3    H2 1066   3.426   6.524  -0.061 -1.6513  1.2001 -0.8011
  368TIP3   OH2 1067   7.065   5.129   0.191  0.2450  0.2922  0.2351
  368TIP3    H1 1068   6.985   5.083   0.164  0.7361  1.3511 -3.7502
  368TIP3    H2 1069   7.058   5.135   0.286 -2.7201 -2.6194  0.4077
  369TIP3   OH2 1070   5.089   2.784   2.742  0.8145 -0.3659 -0.2321
  369TIP3    H1 1071   5.068   2.707   2.690 -0.0193 -0.1130 -0.2800
  369TIP3    H2 1072   5.117   2.750   2.827  0.3439 -0.7128 -0.2172
  370TIP3   OH2 1073   4.847   4.043   2.675 -0.1082 -0.6095 -0.2886
  370TIP3    H1 1074   4.811   4.082   2.755  0.5744  0.4785 -0.4889
  370TIP3    H2 1075   4.774   3.995   2.636 -0.5706 -0.7703  0.7491
  371TIP3   OH2 1076   2.338   3.930   0.585 -0.2775  0.2440  0.0597
  371TIP3    H1 1077   2.390   3.992   0.535  0.1571  0.0935  0.3241
  371TIP3    H2 1078   2.351   3.846   0.540  2.3029 -0.4759  1.9419
  372TIP3   OH2 1079   3.178   0.147   1.461 -0.3140  0.5730  0.6520
  372TIP3    H1 1080   3.213   0.114   1.379  1.3115 -0.8481  1.8603
  372TIP3    H2 1081   3.088   0.115   1.463  0.5273 -2.0099  0.7515
  373TIP3   OH2 1082   0.044   4.930   2.574 -0.0927  0.2382 -0.1903
  373TIP3    H1 1083   0.026   4.841   2.604  0.3000  0.0257 -0.5693
  373TIP3    H2 1084   0.096   4.918   2.495 -1.2909  0.7774 -1.0937
  374TIP3   OH2 1085   2.076   6.720   2.033  0.1506 -0.3518 -0.3349
  374TIP3    H1 1086   2.081   6.807   2.071  0.3816 -0.4024 -0.2469
  374TIP3    H2 1087   1.982   6.698   2.034  0.0912 -0.0956 -0.3835
  375TIP3   OH2 1088   1.803   6.549   1.543  0.1418  0.4297 -0.7032
  375TIP3    H1 1089   1.780   6.507   1.460 -0.4484 -0.3124 -0.1698
  375TIP3    H2 1090   1.720   6.586   1.574  0.0784 -0.4441  0.2000
  376TIP3   OH2 1091   1.612   0.155   5.645  0.1816  0.5099  0.2549
  376TIP3    H1 1092   1.660   0.078   5.615  1.4364  0.4481  2.1761
  376TIP3    H2 1093   1.521   0.126   5.655 -0.2790  0.5125 -3.0777
  377TIP3   OH2 1094   5.806   5.383   4.191 -0.2557  0.6886  0.3192
  377TIP3    H1 1095   5.717   5.415   4.172 -0.4031  1.1820  1.7376
  377TIP3    H2 1096   5.861   5.424   4.124 -1.1129  0.1950 -0.7220
  378TIP3   OH2 1097   6.127   2.620   2.935  0.6066  0.1819 -0.1859
  378TIP3    H1 1098   6.067   2.547   2.953  0.2169  0.1570 -1.5202
  378TIP3    H2 1099   6.153   2.651   3.022 -0.8486 -0.2097  0.4241
  379TIP3   OH2 1100   0.854   3.774   5.392 -0.0798 -0.2393 -0.1895
  379TIP3    H1 1101   0.816   3.814   5.314 -1.2680 -0.1459  0.4229
  379TIP3    H2 1102   0.903   3.845   5.434  0.3244 -0.2167 -0.6839
  380TIP3   OH2 1103   6.024   0.385   3.432 -0.4320  0.1281 -0.1167
  380TIP3    H1 1104   6.045   0.477   3.414 -0.5435  0.0894 -0.4363
  380TIP3    H2 1105   5.929   0.379   3.424 -0.2853 -0.3893 -1.8434
  381TIP3   OH2 1106   5.656   0.886   4.847  0.3495 -0.6159  0.3272
  381TIP3    H1 1107   5.654   0.863   4.754  0.1439  0.1268  0.1342
  381TIP3    H2 1108   5.585   0.951   4.857  0.0894 -1.0011  1.0880
  382TIP3   OH2 1109   5.347   5.357   3.474 -0.4136  0.9661 -0.1972
  382TIP3    H1 1110   5.429   5.393   3.508  0.6100 -1.7181  0.4635
  382TIP3    H2 1111   5.283   5.375   3.542  0.7879 -1.1034  1.6026
  383TIP3   OH2 1112   2.064   0.979   0.311  0.3191 -0.1482  0.6784
  383TIP3    H1 1113   2.085   0.927   0.233 -0.3610 -0.0825  0.4366
  383TIP3    H2 1114   2.018   0.917   0.368  0.6443 -0.1454  0.9395
  384TIP3   OH2 1115   5.704   3.407   4.582 -0.3262 -0.2507  0.1096
  384TIP3    H1 1116   5.735   3.493   4.611  0.2235 -0.4887  0.2221
  384TIP3    H2 1117   5.762   3.382   4.511 -1.6989  0.3466 -1.2831
  385TIP3   OH2 1118   3.714   3.929   5.110 -0.1539 -0.0826  0.2105
  385TIP3    H1 1119   3.690   3.869   5.181 -0.7954  2.4037  2.2952
  385TIP3    H2 1120   3.633   3.939   5.060 -0.3921 -0.0478  0.5939
  386TIP3   OH2 1121   4.952   0.960   5.363 -0.0945 -0.1155  0.4131
  386TIP3    H1 1122   4.859   0.984   5.372  0.0508  0.4408  0.5039
  386TIP3    H2 1123   4.977   0.995   5.277 -0.1907 -1.0293  0.0072
  387TIP3   OH2 1124   3.499   1.010   1.476 -0.0350  0.1794 -0.8849
  387TIP3    H1 1125   3.486   1.072   1.404  0.4130  1.8667  0.4335
  387TIP3    H2 1126   3.421   1.020   1.530  1.5010  2.2010  1.1502
  388TIP3   OH2 1127   1.273   4.577   0.929 -0.1281  0.5390  0.0351
  388TIP3    H1 1128   1.320   4.524   0.993  0.6453 -0.3173 -1.2036
  388TIP3    H2 1129   1.191   4.530   0.914 -0.3342  0.7693  0.4309
  389TIP3   OH2 1130   4.699   0.967   0.161  0.0297 -0.1604  0.1406
  389TIP3    H1 1131   4.609   0.937   0.157 -0.3601  0.8887  0.6952
  389TIP3    H2 1132   4.738   0.917   0.233 -0.5692  0.5133  0.9558
  390TIP3   OH2 1133   3.495   5.338   2.015 -0.2590  0.3554  0.3545
  390TIP3    H1 1134   3.578   5.351   2.061 -1.0430 -1.0052  2.2545
  390TIP3    H2 1135   3.430   5.330   2.084 -1.6857 -0.5151 -1.0368
  391TIP3   OH2 1136   1.987   4.903   1.065 -0.0476 -0.0224  0.5118
  391TIP3    H1 1137   2.071   4.929   1.025 -0.5108  0.9619  0.1300
  391TIP3    H2 1138   2.003   4.904   1.159  0.1386  1.0585  0.4797
  392TIP3   OH2 1139   7.076   3.701   1.790 -0.2284 -0.6514  0.0168
  392TIP3    H1 1140   7.086   3.640   1.717 -1.0322 -0.8565  0.0699
  392TIP3    H2 1141   7.006   3.760   1.764 -0.6258 -0.8190  0.6748
  393TIP3   OH2 1142   1.476   4.485   0.243  0.1792 -0.7189 -0.1821
  393TIP3    H1 1143   1.427   4.539   0.304 -0.8767 -2.0684  0.2248
  393TIP3    H2 1144   1.518   4.547   0.183 -0.9560  0.5291  0.2764
  394TIP3   OH2 1145   0.832   5.100   5.762  0.2236  0.2249  0.2785
  394TIP3    H1 1146   0.754   5.131   5.808  0.3494  1.6920 -0.4401
  394TIP3    H2 1147   0.805   5.096   5.670  0.5320 -0.8398  0.2248
  395TIP3   OH2 1148   0.096   3.229   3.560 -0.3000  0.0167  0.5022
  395TIP3    H1 1149   0.014   3.266   3.528 -0.3513 -1.9028 -1.8234
  395TIP3    H2 1150   0.164   3.273   3.510  0.0351  0.7581  1.5816
  396TIP3   OH2 1151   0.630   3.792   5.591 -0.0763 -0.1750  0.0893
  396TIP3    H1 1152   0.706   3.733   5.594  1.0586  0.9536 -2.5997
  396TIP3    H2 1153   0.623   3.816   5.499 -1.2848  2.8710  0.8574
  397TIP3   OH2 1154   7.003   6.292   3.844  0.0421 -0.4461 -0.2629
  397TIP3    H1 1155   6.932   6.342   3.884  0.9422 -0.6450  1.7525
  397TIP3    H2 1156   7.083   6.336   3.873  0.7785 -1.0362 -1.3116
  398TIP3   OH2 1157   5.648   3.676   1.811 -0.0892 -0.1706 -0.0444
  398TIP3    H1 1158   5.694   3.760   1.806  1.7898 -1.0231  1.5676
  398TIP3    H2 1159   5.696   3.626   1.877 -1.7740 -2.1537 -0.2147
  399TIP3   OH2 1160   3.286   2.789   1.967  0.1561  0.1152 -0.1376
  399TIP3    H1 1161   3.247   2.870   1.931  1.6346 -0.1503 -2.5947
  399TIP3    H2 1162   3.365   2.818   2.011 -1.6102  0.4268  3.1199
  400TIP3   OH2 1163   4.190   4.863   4.625  0.2299 -0.6562 -0.6142
  400TIP3    H1 1164   4.226   4.782   4.662 -0.7624 -1.2267 -0.8588
  400TIP3    H2 1165   4.123   4.890   4.688 -1.3901 -1.5675 -1.8767
  401TIP3   OH2 1166   5.028   1.601   3.202 -0.4998 -0.0322  0.0589
  401TIP3    H1 1167   5.008   1.589   3.294 -0.5303  1.0082  0.2026
  401TIP3    H2 1168   5.082   1.526   3.178  0.3717  0.2255  1.1813
  402TIP3   OH2 1169   5.976   5.297   5.544  0.3052  0.1678  0.4166
  402TIP3    H1 1170   6.042   5.250   5.493 -0.1529  0.9005 -0.9270
  402TIP3    H2 1171   5.998   5.390   5.532 -1.7299  0.5164 -1.2550
  403TIP3   OH2 1172   3.086   2.380   5.079  0.6650  0.2509 -0.3624
  403TIP3    H1 1173   3.125   2.467   5.084  2.3425 -0.3640 -1.8938
  403TIP3    H2 1174   3.147   2.329   5.026 -0.7597 -1.6047 -0.3099
  404TIP3   OH2 1175   2.431   4.774   3.770  0.0380  0.4282 -0.1127
  404TIP3    H1 1176   2.375   4.742   3.699 -0.4092 -1.0415  0.8462
  404TIP3    H2 1177   2.436   4.869   3.756 -0.4558  0.2439 -1.7863
  405TIP3   OH2 1178   5.449   2.544   4.513 -0.4284 -0.6842 -0.4428
  405TIP3    H1 1179   5.491   2.523   4.429 -1.0338  1.5244 -1.3602
  405TIP3    H2 1180   5.511   2.513   4.579  1.6048  0.4067 -1.7311
  406TIP3   OH2 1181   6.530   6.437   1.054  0.1319  0.0501 -0.3073
  406TIP3    H1 1182   6.495   6.477   0.975  0.0731 -1.2366 -0.9531
  406TIP3    H2 1183   6.613   6.483   1.070 -1.5451  2.8669  1.0201
  407TIP3   OH2 1184   5.381   2.808   1.697 -0.0584 -0.1521 -0.8505
  407TIP3    H1 1185   5.393   2.849   1.782  1.7107 -1.3557 -0.4506
  407TIP3    H2 1186   5.296   2.764   1.703 -0.0841  0.0191  0.1869
  408TIP3   OH2 1187   6.190   2.341   2.942  0.2444  0.5724 -0.2150
  408TIP3    H1 1188   6.244   2.270   2.979  0.4789 -0.8901 -3.0491
  408TIP3    H2 1189   6.250   2.387   2.883 -1.1959 -0.2301 -2.3997
  409TIP3   OH2 1190   4.261   2.690   1.611 -0.3907  0.9934  0.0668
  409TIP3    H1 1191   4.223   2.603   1.624 -0.4024  0.7782 -1.2623
  409TIP3    H2 1192   4.336   2.675   1.554  0.0022  1.7843  0.3542
  410TIP3   OH2 1193   4.355   1.178   0.927 -0.8578  0.8929 -0.0682
  410TIP3    H1 1194   4.297   1.224   0.867  1.9310  2.5736 -1.6441
  410TIP3    H2 1195   4.380   1.243   0.992  1.1994  1.0331 -0.9063
  411TIP3   OH2 1196   3.532   2.674   0.184 -0.1906  0.9192  0.0610
  411TIP3    H1 1197   3.595   2.745   0.175  0.4468  0.1724 -1.7708
  411TIP3    H2 1198   3.542   2.645   0.275  0.2781  2.4502  0.5327
  412TIP3   OH2 1199   4.378   6.667   2.518  0.0188  0.7273  0.0471
  412TIP3    H1 1200   4.384   6.713   2.602  1.3115  0.0832  0.3397
  412TIP3    H2 1201   4.317   6.719   2.466 -2.2450  0.1708  1.9836
  413TIP3   OH2 1202   0.268   1.004   2.233 -0.9022 -0.0578  0.6458
  413TIP3    H1 1203   0.347   0.959   2.263 -0.5719  0.5623  0.7107
  413TIP3    H2 1204   0.210   1.004   2.310  0.2762  2.2990  1.6150
  414TIP3   OH2 1205   2.521   3.066   1.762  0.1322 -0.3530 -0.3135
  414TIP3    H1 1206   2.537   2.971   1.757  2.5086 -0.0542  0.3989
  414TIP3    H2 1207   2.510   3.093   1.671  1.3298 -1.0716 -0.7013
  415TIP3   OH2 1208   5.859   1.861   1.351  0.5632  0.5622 -0.4883
  415TIP3    H1 1209   5.803   1.849   1.274 -1.1959  1.4853  0.5695
  415TIP3    H2 1210   5.820   1.804   1.418  1.7648  0.1404 -0.1291
  416TIP3   OH2 1211   0.629   2.318   5.514 -0.8043 -0.2440 -0.1867
  416TIP3    H1 1212   0.639   2.411   5.533 -1.3453 -0.2868  0.3594
  416TIP3    H2 1213   0.710   2.292   5.471 -0.0231  0.1397  1.0177
  417TIP3   OH2 1214   1.250   5.030   5.344 -0.2306  0.3420  0.1776
  417TIP3    H1 1215   1.276   4.940   5.324  0.3223  0.4795  0.2678
  417TIP3    H2 1216   1.186   5.022   5.414 -0.3210  0.0063  0.0559
  418TIP3   OH2 1217   0.590   6.170   2.386  0.6442 -0.2911 -0.0962
  418TIP3    H1 1218   0.515   6.229   2.379  0.6854 -0.1579  0.5995
  418TIP3    H2 1219   0.665   6.224   2.363  0.6372 -0.1731  0.1559
  419TIP3   OH2 1220   5.488   1.077   0.328  0.2182 -0.0183  0.0196
  419TIP3    H1 1221   5.580   1.055   0.313  0.0625 -1.0482  0.4829
  419TIP3    H2 1222   5.448   0.995   0.356 -0.9320  0.3310 -0.5388
  420TIP3   OH2 1223   4.128   0.744   0.075  0.0368  0.2887  0.2134
  420TIP3    H1 1224   4.089   0.700   0.151 -1.5577  0.1052 -0.6598
  420TIP3    H2 1225   4.211   0.698   0.060 -0.4721 -0.8504  0.7627
  421TIP3   OH2 1226   3.261   3.296   0.199  0.3230 -0.3757  0.1890
  421TIP3    H1 1227   3.187   3.244   0.169  0.7126 -0.4726 -0.6424
  421TIP3    H2 1228   3.270   3.275   0.292  0.2231 -1.4856 -0.0435
  422TIP3   OH2 1229   3.416   1.749   0.384 -0.3035 -0.0603 -0.0362
  422TIP3    H1 1230   3.484   1.802   0.343  0.2848 -1.0121 -0.3369
  422TIP3    H2 1231   3.448   1.659   0.376 -1.5657 -0.5235 -0.1108
  423TIP3   OH2 1232   7.052   5.210   3.577  0.2625  0.0326  0.0845
  423TIP3    H1 1233   6.988   5.264   3.531  0.9885  1.2514  0.4587
  423TIP3    H2 1234   7.050   5.126   3.531 -1.9828 -0.1679  0.4455
  424TIP3   OH2 1235   3.144   2.234   0.546  0.3384  0.4724  0.3899
  424TIP3    H1 1236   3.056   2.201   0.561  0.4284  0.1275  0.1800
  424TIP3    H2 1237   3.165   2.284   0.624  0.7828 -1.2429  1.4177
  425TIP3   OH2 1238   7.136   1.513   1.984  0.0441  0.4939  0.4840
  425TIP3    H1 1239   7.157   1.607   1.981  2.0792  0.0576 -0.8360
  425TIP3    H2 1240   7.140   1.485   1.892  0.5213 -1.1087  0.9721
  426TIP3   OH2 1241   2.477   0.818   4.860 -0.1669 -0.4295 -0.0649
  426TIP3    H1 1242   2.461   0.788   4.950  1.2922 -0.1056  0.3317
  426TIP3    H2 1243   2.390   0.826   4.821 -0.8423 -0.2812  1.4173
  427TIP3   OH2 1244   0.066   5.683   0.018  0.0949  0.1233 -0.0647
  427TIP3    H1 1245   0.036   5.594   0.034  2.4548 -0.5330  1.1615
  427TIP3    H2 1246   0.008   5.738   0.071 -1.2313 -0.6620 -0.6543
  428TIP3   OH2 1247   2.285   0.993   2.505 -0.0841 -0.0778 -0.3866
  428TIP3    H1 1248   2.277   1.058   2.435  0.6029 -0.6751 -1.0332
  428TIP3    H2 1249   2.374   1.004   2.538 -0.3467  0.0800  0.2816
  429TIP3   OH2 1250   5.349   2.803   1.229  0.1324  0.1314  0.1737
  429TIP3    H1 1251   5.389   2.746   1.164  1.6856 -0.0334  1.2100
  429TIP3    H2 1252   5.255   2.795   1.214  0.4316  0.9697 -2.7572
  430TIP3   OH2 1253   1.579   2.998   4.106  0.5005  0.2609 -0.4741
  430TIP3    H1 1254   1.610   3.082   4.071  0.1592  0.4725 -0.2787
  430TIP3    H2 1255   1.524   2.962   4.036  0.8438  0.0826 -0.6546
  431TIP3   OH2 1256   4.101   2.655   5.390 -0.3323 -0.4268  0.0185
  431TIP3    H1 1257   4.077   2.686   5.477 -0.9731  0.2259 -0.3884
  431TIP3    H2 1258   4.085   2.729   5.332 -1.6382 -1.4058 -0.9249
  432TIP3   OH2 1259   3.521   0.258   0.441  0.7301 -1.2082 -0.1263
  432TIP3    H1 1260   3.604   0.258   0.489  0.0125 -0.6738  1.1606
  432TIP3    H2 1261   3.525   0.179   0.387  1.2501 -2.2837  1.4079
  433TIP3   OH2 1262   0.815   6.578   5.425 -0.5742 -0.3600  0.1533
  433TIP3    H1 1263   0.723   6.602   5.413 -0.4787  0.5684  1.0771
  433TIP3    H2 1264   0.834   6.603   5.516  0.3299 -1.4213  0.2698
  434TIP3   OH2 1265   3.079   6.128   5.578  0.4599 -0.1167  0.6530
  434TIP3    H1 1266   3.156   6.146   5.524 -0.4006  0.0077 -0.5863
  434TIP3    H2 1267   3.075   6.201   5.640  0.0325  1.1669 -0.8244
  435TIP3   OH2 1268   2.198   1.223   3.001 -0.0560  0.4700 -0.1855
  435TIP3    H1 1269   2.135   1.263   3.060 -0.3698  0.4449 -0.5035
  435TIP3    H2 1270   2.277   1.276   3.010  0.2047 -0.0724  0.9432
  436TIP3   OH2 1271   1.665   3.509   5.274  0.3547 -0.3643  0.1489
  436TIP3    H1 1272   1.744   3.545   5.234  1.3371  0.9158  2.9542
  436TIP3    H2 1273   1.607   3.585   5.285 -0.1340 -0.7911  0.5625
  437TIP3   OH2 1274   2.930   4.166   4.600 -0.1713  0.3933 -0.1672
  437TIP3    H1 1275   2.937   4.230   4.529 -0.2363  1.0295  0.4004
  437TIP3    H2 1276   2.995   4.099   4.578  0.0858  0.7851 -0.6202
  438TIP3   OH2 1277   4.111   2.239   5.771  0.2393 -0.6562 -0.3731
  438TIP3    H1 1278   4.070   2.229   5.685 -0.4324 -2.1549  0.0725
  438TIP3    H2 1279   4.118   2.149   5.804 -1.2724 -0.0188  1.9107
  439TIP3   OH2 1280   5.835   0.182   1.954  0.3319  0.3972  0.0419
  439TIP3    H1 1281   5.885   0.220   2.026  0.2561 -0.1817  0.4137
  439TIP3    H2 1282   5.894   0.187   1.879  1.3211 -1.0414  0.6597
  440TIP3   OH2 1283   0.710   6.290   1.509  0.5372  0.3671 -0.3450
  440TIP3    H1 1284   0.640   6.244   1.463  0.0492  1.2423 -0.4902
  440TIP3    H2 1285   0.756   6.221   1.557 -0.1682 -0.2717 -0.5706
  441TIP3   OH2 1286  -0.003   4.135   0.250 -0.1825  0.3747  0.0092
  441TIP3    H1 1287   0.003   4.102   0.340  1.6781  0.1334 -0.1667
  441TIP3    H2 1288   0.042   4.069   0.197 -1.2819  0.5016 -1.1297
  442TIP3   OH2 1289   2.970   2.714   5.619  0.0261  0.6024 -0.1204
  442TIP3    H1 1290   3.046   2.657   5.630 -1.9578 -2.4114 -0.7248
  442TIP3    H2 1291   2.921   2.704   5.701 -1.7033 -0.8751 -1.2539
  443TIP3   OH2 1292   2.731   5.285   4.576  0.3093  0.6010 -0.3381
  443TIP3    H1 1293   2.776   5.359   4.537  1.2031 -0.4942 -1.4553
  443TIP3    H2 1294   2.641   5.316   4.591  0.4233  1.6044 -1.6353
  444TIP3   OH2 1295   0.774   4.009   5.633 -0.1486  0.5056 -0.5194
  444TIP3    H1 1296   0.690   3.963   5.624 -0.9575  1.5453  1.2126
  444TIP3    H2 1297   0.834   3.941   5.666 -0.1146 -0.3818 -2.2858
  445TIP3   OH2 1298   0.172   3.362   1.976  0.6226  0.2647 -0.8825
  445TIP3    H1 1299   0.252   3.315   1.953  0.1078 -1.0779 -0.0636
  445TIP3    H2 1300   0.126   3.373   1.893  0.7719 -0.6766 -1.1027
  446TIP3   OH2 1301   0.527   3.598   3.058  0.4728  0.6524  0.6773
  446TIP3    H1 1302   0.483   3.677   3.026 -3.5606 -1.5291  0.1971
  446TIP3    H2 1303   0.513   3.533   2.989  1.2241 -1.2460  2.2236
  447TIP3   OH2 1304   0.327   1.124   5.331  0.1010 -0.2208 -0.0503
  447TIP3    H1 1305   0.291   1.138   5.419 -0.1767 -1.3918  0.0385
  447TIP3    H2 1306   0.256   1.152   5.272  0.5606  1.2819  0.0593
  448TIP3   OH2 1307   6.382   1.677   4.858 -0.2725 -0.2207  0.3218
  448TIP3    H1 1308   6.305   1.718   4.820 -0.4686 -1.2517 -0.4464
  448TIP3    H2 1309   6.412   1.739   4.925 -0.2485  1.3922 -1.1094
  449TIP3   OH2 1310   1.730   0.145   5.134  0.1391 -0.2245 -0.2969
  449TIP3    H1 1311   1.646   0.152   5.178  0.3617  2.0311 -0.0891
  449TIP3    H2 1312   1.771   0.068   5.171 -1.1399 -0.3965  0.8237
  450TIP3   OH2 1313   2.346   0.445   1.851 -0.1150  0.2026  0.0268
  450TIP3    H1 1314   2.394   0.442   1.768 -2.1727  1.4342 -1.2729
  450TIP3    H2 1315   2.367   0.531   1.887  1.2352 -0.5458  1.1506
  451TIP3   OH2 1316   6.349   6.653   0.450 -0.6052  0.3051  0.2685
  451TIP3    H1 1317   6.325   6.575   0.499 -1.4679  1.1361  1.2268
  451TIP3    H2 1318   6.266   6.690   0.421 -0.1732  0.5166 -0.7643
  452TIP3   OH2 1319   0.626   2.925   1.682  0.6796  0.5007  0.3500
  452TIP3    H1 1320   0.626   2.834   1.653  1.2631  0.2542  1.0951
  452TIP3    H2 1321   0.542   2.937   1.725 -0.1677  0.8494 -1.3152
  453TIP3   OH2 1322   5.037   0.691   1.617  0.5350 -0.5745  0.0178
  453TIP3    H1 1323   5.078   0.711   1.701  0.6786  0.1106 -0.2123
  453TIP3    H2 1324   5.085   0.744   1.554 -0.4205 -0.0967 -0.3225
  454TIP3   OH2 1325   4.979   5.774   4.808 -0.5465 -0.7801  0.5508
  454TIP3    H1 1326   4.897   5.802   4.766 -0.2482 -1.1219 -0.2822
  454TIP3    H2 1327   4.997   5.841   4.873  0.2283  1.0811 -1.4811
  455TIP3   OH2 1328   4.064   5.735   3.605 -0.6514  0.1726 -0.3100
  455TIP3    H1 1329   4.140   5.723   3.548 -0.3874  0.7948 -0.0953
  455TIP3    H2 1330   4.044   5.646   3.637  0.3135  0.0709  0.0446
  456TIP3   OH2 1331   6.780   3.252   0.216  0.6176 -0.2303  0.1618
  456TIP3    H1 1332   6.787   3.226   0.124  1.0927 -0.0953  0.1574
  456TIP3    H2 1333   6.871   3.256   0.247  0.4484 -0.5304  0.7092
  457TIP3   OH2 1334   2.250   5.884   5.626 -0.0680  0.6088 -0.3905
  457TIP3    H1 1335   2.290   5.971   5.615  1.6602 -0.1810 -0.6751
  457TIP3    H2 1336   2.169   5.888   5.576  0.4689  1.7567 -1.2044
  458TIP3   OH2 1337   0.930   5.507   0.628  0.0290 -0.2073 -0.0936
  458TIP3    H1 1338   0.959   5.483   0.716 -1.7030 -2.0163  0.0646
  458TIP3    H2 1339   0.906   5.599   0.635  1.8978  0.2666  0.7299
  459TIP3   OH2 1340   4.830   0.676   4.142 -0.2650 -0.0014 -0.0062
  459TIP3    H1 1341   4.855   0.592   4.103  1.3538  1.0706 -1.4140
  459TIP3    H2 1342   4.865   0.742   4.082 -2.0869  1.7042  0.6999
  460TIP3   OH2 1343   4.006   1.268   3.604  0.2063  0.1339  0.2709
  460TIP3    H1 1344   3.962   1.251   3.687 -1.2247 -0.8329 -0.6484
  460TIP3    H2 1345   4.094   1.231   3.615 -0.5301 -1.5539  0.7871
  461TIP3   OH2 1346   6.491   1.000   5.425  0.0157 -0.5109 -0.0679
  461TIP3    H1 1347   6.453   1.080   5.390 -0.0015 -0.9871 -1.1807
  461TIP3    H2 1348   6.572   0.988   5.375 -0.0894 -1.2903 -0.0653
  462TIP3   OH2 1349   3.524   2.429   4.837 -0.0006  0.0972  0.4641
  462TIP3    H1 1350   3.528   2.367   4.764  0.8044 -0.3035  0.8284
  462TIP3    H2 1351   3.502   2.375   4.913  0.2903  0.3226  0.7114
  463TIP3   OH2 1352   4.045   1.167   3.296 -0.6600 -0.7393  0.1373
  463TIP3    H1 1353   3.961   1.143   3.256 -0.2478 -0.2266 -1.0889
  463TIP3    H2 1354   4.024   1.181   3.389 -1.5688 -2.3745  0.2149
  464TIP3   OH2 1355   3.687   5.140   2.807 -0.0451  0.5668 -0.2368
  464TIP3    H1 1356   3.615   5.160   2.747 -0.5804 -0.2488  0.1182
  464TIP3    H2 1357   3.669   5.051   2.837  1.7743 -0.1035 -1.0388
  465TIP3   OH2 1358   4.070   4.510   4.643  0.1291 -0.3047  0.1434
  465TIP3    H1 1359   3.981   4.491   4.671 -0.2733 -0.3047 -1.0702
  465TIP3    H2 1360   4.109   4.425   4.627 -0.6195 -0.2966 -2.1198
  466TIP3   OH2 1361   2.266   4.036   3.770  0.1201  0.0931  0.2530
  466TIP3    H1 1362   2.247   3.998   3.856 -0.9052 -0.9548 -0.4027
  466TIP3    H2 1363   2.361   4.040   3.766  0.1873 -0.0460  1.3520
  467TIP3   OH2 1364   2.985   2.444   0.137  0.1316  0.3855 -0.1367
  467TIP3    H1 1365   2.932   2.524   0.141 -1.2050 -0.4634 -0.3587
  467TIP3    H2 1366   2.928   2.380   0.095  1.4168 -0.5198 -0.5615
  468TIP3   OH2 1367   0.581   4.377   4.033  0.7798  0.0546  0.0453
  468TIP3    H1 1368   0.675   4.372   4.052  0.9839  1.1316 -0.6304
  468TIP3    H2 1369   0.539   4.359   4.118  1.6256  1.3105  0.7636
  469TIP3   OH2 1370   4.090   2.207   0.688  0.3696 -0.5169  0.3350
  469TIP3    H1 1371   4.004   2.166   0.699 -0.1705  0.1895 -1.0247
  469TIP3    H2 1372   4.150   2.133   0.677 -0.3773 -0.9904 -0.7428
  470TIP3   OH2 1373   5.851   6.631   1.507  0.0419 -0.3483  0.2062
  470TIP3    H1 1374   5.859   6.538   1.483  0.6815 -0.1174 -0.5575
  470TIP3    H2 1375   5.757   6.647   1.512 -0.0920 -0.8682 -0.4049
  471TIP3   OH2 1376   3.012   5.683   5.227  0.0693 -0.3960 -0.7085
  471TIP3    H1 1377   3.038   5.738   5.301  0.0219 -1.6918  0.3159
  471TIP3    H2 1378   3.012   5.742   5.152 -1.3005  1.3066  0.5469
  472TIP3   OH2 1379   4.334   1.146   0.591 -0.1281 -0.2075 -0.3385
  472TIP3    H1 1380   4.399   1.175   0.654 -1.6399  3.3241 -0.1846
  472TIP3    H2 1381   4.386   1.107   0.520  1.7358 -2.1293  1.9124
  473TIP3   OH2 1382   3.903   6.789   2.109  0.2852  0.3718 -0.1552
  473TIP3    H1 1383   3.905   6.773   2.204  0.1962  0.7683 -0.0812
  473TIP3    H2 1384   3.992   6.770   2.079  0.2172 -0.1159 -0.0552
  474TIP3   OH2 1385   5.575   2.422   5.296 -0.1356 -0.6229  0.3078
  474TIP3    H1 1386   5.492   2.426   5.248  0.0334 -0.0671  0.0517
  474TIP3    H2 1387   5.642   2.414   5.228  0.0612 -0.4634  0.4811
  475TIP3   OH2 1388   0.373   1.014   0.298  0.6164 -0.1164 -0.0236
  475TIP3    H1 1389   0.324   1.091   0.328 -0.9770 -0.2028 -2.0890
  475TIP3    H2 1390   0.305   0.953   0.268  1.9315 -1.3408 -0.6422
  476TIP3   OH2 1391   2.363   5.841   3.713 -0.2327 -0.2431 -0.4662
  476TIP3    H1 1392   2.303   5.913   3.693  0.1605 -0.1740 -1.4687
  476TIP3    H2 1393   2.418   5.833   3.635 -0.7698 -2.1589 -0.7067
  477TIP3   OH2 1394   4.303   5.098   4.958  0.3277  0.6716  0.2577
  477TIP3    H1 1395   4.363   5.072   5.028  1.8219  1.1705 -0.7869
  477TIP3    H2 1396   4.336   5.056   4.879 -0.9567  0.6238 -0.2946
  478TIP3   OH2 1397   3.523   1.175   4.819  0.3411  0.1728 -0.8096
  478TIP3    H1 1398   3.447   1.134   4.860 -1.3279  1.7571 -2.1503
  478TIP3    H2 1399   3.547   1.116   4.747  1.4773 -1.1570  0.5982
  479TIP3   OH2 1400   4.814   5.561   3.374  0.4647 -0.2032  0.8290
  479TIP3    H1 1401   4.760   5.494   3.332 -0.8119  1.6598 -0.6797
  479TIP3    H2 1402   4.851   5.518   3.451 -0.7919 -2.4320  0.2601
  480TIP3   OH2 1403   2.356   4.199   3.218  0.1113 -0.4638 -0.0419
  480TIP3    H1 1404   2.418   4.259   3.176 -0.5041  0.0602 -0.2237
  480TIP3    H2 1405   2.294   4.175   3.149 -0.5629 -0.0653  0.4048
  481TIP3   OH2 1406   2.712   5.134   1.189 -0.2350  0.2015 -0.2717
  481TIP3    H1 1407   2.747   5.051   1.156 -2.5171 -0.7469 -0.4455
  481TIP3    H2 1408   2.785   5.171   1.239  0.6848 -2.2012  0.3403
  482TIP3   OH2 1409   0.082   5.075   5.815 -0.4546  0.1730 -0.5988
  482TIP3    H1 1410   0.032   5.155   5.802 -0.6391  0.0320 -0.7730
  482TIP3    H2 1411   0.106   5.047   5.727  1.2704  1.0703 -0.4465
  483TIP3   OH2 1412   3.038   4.603   0.417  0.5400  0.2159 -0.1074
  483TIP3    H1 1413   3.069   4.634   0.502 -0.0971  1.1794 -0.2200
  483TIP3    H2 1414   3.024   4.682   0.365 -0.0670 -0.3034 -0.7657
  484TIP3   OH2 1415   2.656   5.117   3.436 -0.1041  0.4616  0.2403
  484TIP3    H1 1416   2.697   5.061   3.502  0.0600 -0.6682 -0.7909
  484TIP3    H2 1417   2.577   5.070   3.410 -0.6578  1.3451  0.2820
  485TIP3   OH2 1418   0.790   1.489   1.352 -0.2797 -0.1866 -0.1138
  485TIP3    H1 1419   0.833   1.545   1.287 -1.0438  2.5953  1.5920
  485TIP3    H2 1420   0.860   1.465   1.413 -0.3835  1.2061  0.5963
  486TIP3   OH2 1421   0.498   3.636   1.020 -0.3984  0.2985 -0.1841
  486TIP3    H1 1422   0.528   3.641   0.930 -1.0372 -0.9316 -0.4864
  486TIP3    H2 1423   0.526   3.550   1.050 -2.6589 -0.4803 -0.1522
  487TIP3   OH2 1424   0.452   3.511   4.397  0.5255  0.6962 -0.3680
  487TIP3    H1 1425   0.492   3.502   4.484 -1.1075 -0.5315  0.3213
  487TIP3    H2 1426   0.400   3.591   4.403  0.8318  0.8922 -0.3708
  488TIP3   OH2 1427   1.833   5.188   5.440 -0.0572 -0.0955  0.1387
  488TIP3    H1 1428   1.797   5.099   5.436 -2.8327  0.7628  2.2234
  488TIP3    H2 1429   1.774   5.240   5.386  1.4078  0.5550 -0.8754
  489TIP3   OH2 1430   1.633   0.327   0.421  0.4946  0.6334  0.4133
  489TIP3    H1 1431   1.679   0.247   0.446  1.7459  1.4546  0.8334
  489TIP3    H2 1432   1.555   0.327   0.476  0.1313 -0.6059 -0.0551
  490TIP3   OH2 1433   5.717   0.403   2.724 -0.0208 -0.1112 -0.2949
  490TIP3    H1 1434   5.647   0.406   2.790  0.5477  0.4701  0.2893
  490TIP3    H2 1435   5.796   0.385   2.774  0.5888  1.4183 -0.6560
  491TIP3   OH2 1436   2.114   3.143   3.553  0.0888 -0.0258  0.1802
  491TIP3    H1 1437   2.110   3.072   3.489  0.5460 -0.6692  0.8478
  491TIP3    H2 1438   2.188   3.198   3.525 -0.2764  0.1968 -0.3457
  492TIP3   OH2 1439   6.297   3.211   0.800  0.1459 -0.4551  0.3656
  492TIP3    H1 1440   6.301   3.230   0.706 -3.4776 -0.6802 -0.0129
  492TIP3    H2 1441   6.299   3.116   0.805 -1.1981 -0.5201  0.2732
  493TIP3   OH2 1442   2.981   0.294   1.188  0.0180 -0.6404  0.1644
  493TIP3    H1 1443   3.013   0.379   1.158 -0.1637 -0.9118 -0.8457
  493TIP3    H2 1444   3.061   0.244   1.207  0.1751 -0.7491 -0.7264
  494TIP3   OH2 1445   2.497   4.176   0.141 -0.2225  0.4611  0.0695
  494TIP3    H1 1446   2.529   4.129   0.218 -0.6414  0.4686  0.2532
  494TIP3    H2 1447   2.435   4.241   0.177 -0.0790  0.7686 -0.2326
  495TIP3   OH2 1448   4.423   2.808   4.670  0.3971 -0.2816 -0.3347
  495TIP3    H1 1449   4.500   2.754   4.658  0.5796 -0.2138  0.5128
  495TIP3    H2 1450   4.390   2.785   4.757  0.3596  0.8081 -0.0475
  496TIP3   OH2 1451   0.525   1.924   1.818 -0.8305  0.0395  0.3679
  496TIP3    H1 1452   0.600   1.936   1.876 -0.7680 -0.4577  0.3895
  496TIP3    H2 1453   0.519   1.830   1.804  1.3767  0.2869 -3.3865
  497TIP3   OH2 1454   2.802   2.191   0.076 -0.2459  0.1564 -0.1564
  497TIP3    H1 1455   2.863   2.151   0.138 -2.0243 -0.2541  1.4080
  497TIP3    H2 1456   2.765   2.116   0.028 -1.2644  0.1630  0.5891
  498TIP3   OH2 1457   0.579   3.152   1.547  0.4338 -0.3047 -0.1299
  498TIP3    H1 1458   0.614   3.068   1.579  1.7021  0.0523 -0.5054
  498TIP3    H2 1459   0.598   3.214   1.617  1.6327  0.1182 -0.7850
  499TIP3   OH2 1460   2.166   6.548   4.481 -0.3457  0.3036  0.6753
  499TIP3    H1 1461   2.160   6.454   4.502 -1.2210  0.4867  1.3262
  499TIP3    H2 1462   2.078   6.571   4.453 -0.0052  0.8315  0.0304
  500TIP3   OH2 1463   7.001   5.757   3.870 -0.7301  0.1202 -0.0360
  500TIP3    H1 1464   6.983   5.851   3.861 -1.1067  0.1820  1.1907
  500TIP3    H2 1465   7.078   5.742   3.816 -0.7890  1.0995 -0.4094
  501TIP3   OH2 1466   4.187   2.451   1.668  0.0866  0.2210 -0.1038
  501TIP3    H1 1467   4.212   2.420   1.581 -1.7457 -0.5342 -0.4125
  501TIP3    H2 1468   4.102   2.411   1.684  0.2127  0.6472  1.8990
  502TIP3   OH2 1469   3.309   0.375   2.599 -0.5370 -0.4022 -0.3835
  502TIP3    H1 1470   3.356   0.415   2.526 -2.2736  0.4512 -1.0794
  502TIP3    H2 1471   3.364   0.392   2.675  0.0114  1.0626 -1.0687
  503TIP3   OH2 1472   1.438   6.498   1.919  0.8994  0.0890  0.1396
  503TIP3    H1 1473   1.405   6.484   2.008  1.5804 -0.6847  0.2822
  503TIP3    H2 1474   1.361   6.522   1.868  0.4662  0.3420  0.8955
  504TIP3   OH2 1475   0.995   6.259   2.543 -0.4974 -0.0660 -0.0038
  504TIP3    H1 1476   1.032   6.347   2.531 -1.6685  0.3252 -0.8720
  504TIP3    H2 1477   0.913   6.273   2.590  0.0257 -0.8546  1.2030
  505TIP3   OH2 1478   5.618   5.985   2.397  0.0157 -0.1014  0.4808
  505TIP3    H1 1479   5.557   5.913   2.411 -0.2897 -0.0398 -0.4655
  505TIP3    H2 1480   5.563   6.059   2.370  0.5231 -0.1678 -0.8330
  506TIP3   OH2 1481   4.203   4.260   4.642 -0.2735 -0.0022  0.4765
  506TIP3    H1 1482   4.226   4.234   4.731  0.2453 -2.5977 -0.3184
  506TIP3    H2 1483   4.133   4.200   4.616 -0.9123  1.1635 -0.6349
  507TIP3   OH2 1484   6.233   5.151   5.210  0.2319  0.3438 -0.4242
  507TIP3    H1 1485   6.322   5.132   5.180  0.0428  0.5707 -1.1406
  507TIP3    H2 1486   6.242   5.166   5.304  1.1494  1.6260 -0.6929
  508TIP3   OH2 1487   4.137   0.108   0.791 -0.2123  0.6591 -0.0013
  508TIP3    H1 1488   4.121   0.016   0.812  2.5444  0.3745  1.1818
  508TIP3    H2 1489   4.103   0.156   0.866  0.2408  0.4391  0.3468
  509TIP3   OH2 1490   2.371   1.923   3.443 -0.2645  0.2488 -0.2441
  509TIP3    H1 1491   2.431   1.995   3.426 -0.4912  0.7852  1.1141
  509TIP3    H2 1492   2.422   1.861   3.496 -0.6359  0.3041  0.1860
  510TIP3   OH2 1493   3.428   5.258   1.151 -0.3522 -0.1563  0.2852
  510TIP3    H1 1494   3.340   5.293   1.165  0.0314  0.2691  1.7984
  510TIP3    H2 1495   3.479   5.290   1.226  0.9422 -0.8915 -0.2507
  511TIP3   OH2 1496   2.012   0.698   0.281 -0.0435 -0.7013 -0.1519
  511TIP3    H1 1497   2.098   0.670   0.313 -0.5811 -4.6492 -1.6920
  511TIP3    H2 1498   2.027   0.723   0.190  0.0184  2.4122  0.6074
  512TIP3   OH2 1499   5.515   0.193   2.695 -0.7075  0.4287  0.3995
  512TIP3    H1 1500   5.575   0.120   2.679 -0.1948  0.5447  1.6571
  512TIP3    H2 1501   5.546   0.232   2.777 -1.0757  1.9598 -0.1476
  513TIP3   OH2 1502   3.118   3.012   2.960 -0.5393  0.2084 -0.7039
  513TIP3    H1 1503   3.165   2.991   2.879  0.9403 -0.6762  0.3554
  513TIP3    H2 1504   3.185   3.045   3.019 -1.0277 -1.9202  1.1468
  514TIP3   OH2 1505   6.575   4.700   2.800 -0.4324 -0.0812 -0.3648
  514TIP3    H1 1506   6.523   4.667   2.727 -1.3626 -1.1562  0.7370
  514TIP3    H2 1507   6.510   4.728   2.865  0.2480 -2.4871  1.5228
  515TIP3   OH2 1508   2.108   3.260   1.792  0.4968 -0.4574 -0.1201
  515TIP3    H1 1509   2.143   3.269   1.703  1.6297 -0.7512  0.2791
  515TIP3    H2 1510   2.067   3.345   1.810  0.6675 -0.2321 -0.7495
  516TIP3   OH2 1511   3.378   5.931   3.314 -0.0293  0.0860  0.2151
  516TIP3    H1 1512   3.330   5.849   3.315 -1.6711  0.9723 -0.6402
  516TIP3    H2 1513   3.310   5.998   3.323  1.2582  1.3563  0.8797
  517TIP3   OH2 1514   6.277   6.734   5.477  0.1429  0.0444  0.9005
  517TIP3    H1 1515   6.298   6.817   5.434 -0.2140  0.6611  1.8584
  517TIP3    H2 1516   6.362   6.696   5.499  0.3324 -0.4195 -0.5679
  518TIP3   OH2 1517   2.568   1.718   2.426  0.1760  0.0906  0.0631
  518TIP3    H1 1518   2.501   1.779   2.457  2.6344  2.4953  1.0194
  518TIP3    H2 1519   2.603   1.760   2.347  2.1974  0.1763  0.9681
  519TIP3   OH2 1520   2.705   5.781   3.118  0.0550  0.2975 -0.0281
  519TIP3    H1 1521   2.696   5.738   3.203  0.1332 -0.4102 -0.3676
  519TIP3    H2 1522   2.688   5.874   3.135 -0.7153  0.0452  0.6128
  520TIP3   OH2 1523   2.671   0.803   4.010 -0.6140 -0.1866  0.3737
  520TIP3    H1 1524   2.741   0.767   4.065 -1.0668 -0.7573  0.5998
  520TIP3    H2 1525   2.638   0.727   3.961  2.0525  0.8115 -3.3586
  521TIP3   OH2 1526   5.850   4.832   5.109 -0.0697 -0.1634  0.7978
  521TIP3    H1 1527   5.885   4.798   5.191  0.7448  0.5859  0.7746
  521TIP3    H2 1528   5.916   4.894   5.078  0.2682 -1.3671 -1.0812
  522TIP3   OH2 1529   3.911   4.160   5.526 -0.3014  0.5553  1.1379
  522TIP3    H1 1530   3.947   4.073   5.509  0.0660  0.3697  2.7151
  522TIP3    H2 1531   3.909   4.202   5.440  2.6981  0.1955  0.7818
  523TIP3   OH2 1532   4.797   0.441   2.064 -0.4753 -0.3709 -0.1683
  523TIP3    H1 1533   4.804   0.358   2.017  3.8378 -1.3623  1.7267
  523TIP3    H2 1534   4.888   0.468   2.080 -1.6651  2.7641  2.6318
  524TIP3   OH2 1535   6.989   5.830   3.529 -0.4280 -0.2445 -0.2341
  524TIP3    H1 1536   6.908   5.878   3.513 -0.3078 -0.2108 -0.7576
  524TIP3    H2 1537   6.977   5.747   3.482 -0.4310 -0.5260  0.2494
  525TIP3   OH2 1538   1.481   1.230   2.426  0.0554  0.5907 -0.1767
  525TIP3    H1 1539   1.508   1.175   2.352 -0.4672  1.4074 -0.9935
  525TIP3    H2 1540   1.512   1.318   2.404  0.5958  0.7030  0.9604
  526TIP3   OH2 1541   6.215   4.939   0.307 -0.2041  0.7283  0.1583
  526TIP3    H1 1542   6.139   4.987   0.275 -1.3190 -2.0022 -1.6899
  526TIP3    H2 1543   6.284   4.959   0.244 -0.8473 -0.4794 -0.9784
  527TIP3   OH2 1544   4.062   3.229   4.781 -0.1140 -0.0931  0.2806
  527TIP3    H1 1545   4.008   3.172   4.837  0.0422 -1.1234 -0.5927
  527TIP3    H2 1546   4.151   3.215   4.812  0.0366 -1.0680 -0.5280
  528TIP3   OH2 1547   5.363   0.625   1.208  0.2318  0.0180  0.8739
  528TIP3    H1 1548   5.427   0.573   1.257  1.3022  1.3376  0.9416
  528TIP3    H2 1549   5.382   0.715   1.233 -1.9382  0.4406  1.1979
  529TIP3   OH2 1550   2.605   4.844   5.019 -0.4529  0.4335 -0.5079
  529TIP3    H1 1551   2.535   4.862   4.956 -1.6682  0.5287  0.8312
  529TIP3    H2 1552   2.658   4.923   5.019 -1.8295  1.3924  0.3307
  530TIP3   OH2 1553   4.891   5.289   3.432  0.0546 -0.2267 -0.0836
  530TIP3    H1 1554   4.875   5.287   3.338  0.5796 -0.6192 -0.1743
  530TIP3    H2 1555   4.870   5.200   3.462 -0.2701 -0.0557  0.1972
  531TIP3   OH2 1556   1.691   6.393   2.699  0.1384  0.6858 -0.5743
  531TIP3    H1 1557   1.668   6.321   2.758  2.6573  0.9052  0.8067
  531TIP3    H2 1558   1.680   6.356   2.611  1.2854 -1.3929  0.0884
  532TIP3   OH2 1559   4.061   4.255   5.231  0.0917  0.0198  0.0415
  532TIP3    H1 1560   4.089   4.338   5.271 -0.5987  0.7450 -0.9304
  532TIP3    H2 1561   4.018   4.281   5.150 -1.9581 -1.1605  0.6978
  533TIP3   OH2 1562   3.640   2.626   3.036  0.2456  0.3594  0.3333
  533TIP3    H1 1563   3.550   2.645   3.010  0.1910  2.6258  1.8959
  533TIP3    H2 1564   3.691   2.639   2.955 -0.8675 -2.1903 -0.8934
  534TIP3   OH2 1565   2.130   5.825   3.527 -0.1772 -0.1203 -0.2937
  534TIP3    H1 1566   2.132   5.856   3.436  2.2018  0.3907 -0.1373
  534TIP3    H2 1567   2.116   5.731   3.521  0.9044 -0.2293 -1.2565
  535TIP3   OH2 1568   4.054   1.442   3.206  0.0507  0.8020 -0.2110
  535TIP3    H1 1569   4.070   1.353   3.235  0.9280  0.9993 -0.0468
  535TIP3    H2 1570   4.004   1.482   3.277 -0.4893  0.3991 -0.3602
  536TIP3   OH2 1571   5.557   0.806   0.809 -0.8610  0.2349  0.1081
  536TIP3    H1 1572   5.478   0.843   0.848 -0.5496  0.5527  0.4436
  536TIP3    H2 1573   5.624   0.813   0.877 -0.7334 -0.7333  0.0958
  537TIP3   OH2 1574   5.602   5.669   3.324 -0.1504  0.0936  0.0671
  537TIP3    H1 1575   5.652   5.750   3.340 -0.0725 -0.3215  2.1738
  537TIP3    H2 1576   5.562   5.683   3.238  2.7596  0.8573 -1.2862
  538TIP3   OH2 1577   4.077   4.212   0.020  0.4240  0.2362  0.0784
  538TIP3    H1 1578   4.039   4.128  -0.004 -0.9317  0.5014  1.1564
  538TIP3    H2 1579   4.150   4.189   0.077  0.7226 -0.2312 -0.4825
  539TIP3   OH2 1580   6.695   0.807   4.611 -0.1850  0.4937  0.4525
  539TIP3    H1 1581   6.766   0.750   4.639 -0.7792  0.2015  1.4113
  539TIP3    H2 1582   6.700   0.806   4.515 -0.1557 -1.1590  0.4381
  540TIP3   OH2 1583   4.832   1.345   5.058  0.2178  0.3272 -0.2897
  540TIP3    H1 1584   4.863   1.258   5.033  1.1790  0.4352  0.4744
  540TIP3    H2 1585   4.737   1.339   5.050  0.2739 -0.7720 -0.3282
  541TIP3   OH2 1586   3.676   3.794   3.266  0.4429  0.0933  0.1662
  541TIP3    H1 1587   3.726   3.728   3.313  1.3634  0.6238 -0.0527
  541TIP3    H2 1588   3.719   3.877   3.286 -0.7177  0.6569  0.4664
  542TIP3   OH2 1589   1.426   6.618   2.505 -0.4051 -0.2555 -0.0316
  542TIP3    H1 1590   1.449   6.711   2.497 -1.0955  0.0324  1.1012
  542TIP3    H2 1591   1.405   6.606   2.597 -3.3761 -0.8246 -0.6785
  543TIP3   OH2 1592   2.712   5.686   2.206 -0.5341 -0.6168 -0.1589
  543TIP3    H1 1593   2.686   5.661   2.295 -2.6298 -0.0070 -0.5303
  543TIP3    H2 1594   2.652   5.757   2.183  0.0617 -0.6540 -2.0086
  544TIP3   OH2 1595   0.160   3.234   1.643 -0.9956  0.0700 -0.0948
  544TIP3    H1 1596   0.223   3.306   1.642 -0.6212 -0.2607 -1.2936
  544TIP3    H2 1597   0.191   3.174   1.576 -0.9380 -1.5414  1.3057
  545TIP3   OH2 1598   5.306   2.622   2.409  0.1305 -0.2585  0.2257
  545TIP3    H1 1599   5.253   2.696   2.438 -1.7900 -1.2531 -0.5564
  545TIP3    H2 1600   5.355   2.596   2.487 -1.2060  0.1494  1.2464
  546TIP3   OH2 1601   1.720   2.182   5.431 -0.5080  0.0066 -0.3458
  546TIP3    H1 1602   1.740   2.191   5.525 -0.8712 -0.7289 -0.1978
  546TIP3    H2 1603   1.724   2.272   5.398 -4.0109  0.8703  1.1037
  547TIP3   OH2 1604   5.007   4.370   5.106  0.6593  0.2092  0.0694
  547TIP3    H1 1605   4.993   4.310   5.033  1.0799  0.3266 -0.1109
  547TIP3    H2 1606   5.046   4.316   5.175  3.1479  0.6953 -0.8714
  548TIP3   OH2 1607   0.953   1.776   1.099 -0.2920  0.1084  0.2487
  548TIP3    H1 1608   0.980   1.866   1.080 -0.7309  0.2458  0.2637
  548TIP3    H2 1609   0.889   1.785   1.170  0.6996 -0.3327  1.2265
  549TIP3   OH2 1610   6.709   2.212   3.708 -0.1053  0.1459  0.3314
  549TIP3    H1 1611   6.745   2.202   3.796 -0.0559 -1.8571  0.1200
  549TIP3    H2 1612   6.785   2.236   3.654  0.0738  0.2392  0.6227
  550TIP3   OH2 1613   1.557   6.157   5.133  0.0965 -0.0160  0.0659
  550TIP3    H1 1614   1.485   6.188   5.188 -0.9299  0.9205 -1.6988
  550TIP3    H2 1615   1.517   6.093   5.075  1.1950 -1.1220  0.4678
  551TIP3   OH2 1616   6.659   6.401   4.730  0.1648  0.4991 -0.1913
  551TIP3    H1 1617   6.697   6.415   4.817  0.7283 -1.2707 -0.1025
  551TIP3    H2 1618   6.565   6.398   4.745  0.3079 -1.7026  0.7560
  552TIP3   OH2 1619   5.465   5.101   5.704 -0.2666  0.2797 -0.3962
  552TIP3    H1 1620   5.421   5.036   5.759 -1.3055  0.9214 -0.4391
  552TIP3    H2 1621   5.408   5.111   5.628  0.0226  1.0241 -0.5264
  553TIP3   OH2 1622   5.912   5.944   1.820 -0.6466  0.2282  0.4526
  553TIP3    H1 1623   5.983   5.881   1.813 -1.7630 -1.0026 -0.2974
  553TIP3    H2 1624   5.842   5.907   1.767 -1.8953  1.3486  1.2561
  554TIP3   OH2 1625   0.796   6.302   0.964 -0.5771  0.0575  0.0843
  554TIP3    H1 1626   0.855   6.305   0.888 -0.2700 -2.4714  0.1161
  554TIP3    H2 1627   0.827   6.372   1.022  0.9467  0.2515 -0.9134
  555TIP3   OH2 1628   5.403   1.695   3.886  0.0533  0.0239  0.2448
  555TIP3    H1 1629   5.376   1.669   3.974 -0.7187 -1.8924 -0.5014
  555TIP3    H2 1630   5.476   1.756   3.900  0.2262 -0.5641  2.1843
  556TIP3   OH2 1631   4.095   3.122   5.815 -0.4707  0.2995 -0.1852
  556TIP3    H1 1632   4.020   3.127   5.756 -1.5285  1.5190  1.1737
  556TIP3    H2 1633   4.061   3.080   5.894  0.7207 -0.6307 -0.1348
  557TIP3   OH2 1634   2.448   0.759   2.380 -0.1072  0.5118 -0.1452
  557TIP3    H1 1635   2.392   0.681   2.374  1.8099 -0.9274 -0.0164
  557TIP3    H2 1636   2.392   0.830   2.348 -2.0426 -0.8223  0.0700
  558TIP3   OH2 1637   1.668   1.174   1.984 -0.0202 -0.1586  0.1272
  558TIP3    H1 1638   1.716   1.160   1.903 -0.9943  0.4209 -0.5741
  558TIP3    H2 1639   1.735   1.176   2.052  0.8974  0.2521 -0.7694
  559TIP3   OH2 1640   0.915   5.861   3.319 -0.4297  0.1390  0.6459
  559TIP3    H1 1641   0.971   5.906   3.256 -1.7393 -0.8148 -1.3157
  559TIP3    H2 1642   0.963   5.865   3.402  1.6662  0.9008 -0.5371
  560TIP3   OH2 1643   1.936   1.468   2.252  0.2403 -0.3000 -0.0184
  560TIP3    H1 1644   2.013   1.442   2.302 -0.3711 -1.7647  0.2339
  560TIP3    H2 1645   1.969   1.528   2.185  1.3438  0.2811  1.0234
  561TIP3   OH2 1646   1.917   5.997   1.347 -1.1376  0.0491 -0.5234
  561TIP3    H1 1647   1.985   5.930   1.349 -2.0924 -0.9412 -0.7422
  561TIP3    H2 1648   1.908   6.021   1.255  0.7198  2.1116 -0.2620
  562TIP3   OH2 1649   6.855   1.542   5.840 -0.1745  0.3038  0.0501
  562TIP3    H1 1650   6.780   1.583   5.798 -0.9736  0.4426  1.5299
  562TIP3    H2 1651   6.915   1.522   5.768 -0.5853  2.3160 -0.9330
  563TIP3   OH2 1652   6.463   5.765   2.281 -0.5642  0.7283  0.2238
  563TIP3    H1 1653   6.444   5.690   2.336 -0.2126  0.8658  0.5342
  563TIP3    H2 1654   6.553   5.752   2.251 -0.9192  0.3883 -0.7505
  564TIP3   OH2 1655   2.943   3.712   1.210  0.4147 -0.5083 -0.1985
  564TIP3    H1 1656   2.875   3.678   1.151  0.6831 -3.0895  0.8305
  564TIP3    H2 1657   2.995   3.771   1.156  0.4495 -2.4932 -2.4853
  565TIP3   OH2 1658   3.501   0.131   3.702  0.4453 -0.1691  0.0324
  565TIP3    H1 1659   3.455   0.054   3.734  1.0410  0.2167  1.9676
  565TIP3    H2 1660   3.441   0.204   3.719  1.3512  0.2280  1.7956
  566TIP3   OH2 1661   5.400   6.044   3.173  0.4743 -0.2908  0.1945
  566TIP3    H1 1662   5.357   6.123   3.143 -0.3679 -0.2178  1.5160
  566TIP3    H2 1663   5.407   5.989   3.095 -0.2581  0.4866 -0.4328
  567TIP3   OH2 1664   1.494   3.803   5.545  0.1244  0.3004 -0.1250
  567TIP3    H1 1665   1.430   3.747   5.501  0.6705 -1.5598  1.3448
  567TIP3    H2 1666   1.472   3.797   5.638  1.6263  0.7018  0.2816
  568TIP3   OH2 1667   7.160   3.339   3.177 -0.0409  0.1366 -0.0531
  568TIP3    H1 1668   7.118   3.370   3.097 -0.8753 -0.5163  0.1171
  568TIP3    H2 1669   7.124   3.394   3.247 -0.2283 -0.0898  0.0288
  569TIP3   OH2 1670   0.122   2.972   3.665 -0.4636  0.1870 -0.0683
  569TIP3    H1 1671   0.094   3.063   3.671 -0.5316  0.1059  1.0954
  569TIP3    H2 1672   0.160   2.964   3.577 -0.0230  1.4576 -0.0163
  570TIP3   OH2 1673   3.422   2.339   5.589 -0.0068 -0.5861  0.0601
  570TIP3    H1 1674   3.344   2.316   5.640 -0.2833  0.5211  0.1649
  570TIP3    H2 1675   3.390   2.350   5.500  0.1076 -0.5546  0.0228
  571TIP3   OH2 1676   5.488   0.606   0.621  0.2255  0.3825  1.0633
  571TIP3    H1 1677   5.517   0.515   0.617 -1.6289 -0.2473  0.5000
  571TIP3    H2 1678   5.510   0.635   0.709  1.0411 -0.5508  1.1785
  572TIP3   OH2 1679   6.010   0.180   0.086  0.5552 -0.4808  0.5983
  572TIP3    H1 1680   5.938   0.126   0.053  0.9597 -1.5665  1.4130
  572TIP3    H2 1681   6.032   0.141   0.171  2.1295 -0.1962  0.3519
  573TIP3   OH2 1682   4.544   1.550   0.486 -0.4161 -0.3077 -0.5737
  573TIP3    H1 1683   4.496   1.471   0.462 -2.7222  1.0346 -0.7484
  573TIP3    H2 1684   4.622   1.518   0.532 -2.9654 -2.6989  2.5834
  574TIP3   OH2 1685   3.939   5.905   2.373 -0.8248 -0.4383  0.1826
  574TIP3    H1 1686   3.899   5.837   2.319 -1.1648  0.4679 -0.7509
  574TIP3    H2 1687   3.885   5.982   2.357  1.2255  0.8211 -1.0740
  575TIP3   OH2 1688   5.648   0.354   2.188  0.5652 -0.0566 -0.1882
  575TIP3    H1 1689   5.685   0.267   2.178  3.7484  1.0994  0.3721
  575TIP3    H2 1690   5.655   0.373   2.282 -0.5744  0.6111 -0.2191
  576TIP3   OH2 1691   5.493   4.721   4.274 -0.5239  0.6463 -0.3306
  576TIP3    H1 1692   5.412   4.711   4.224 -0.6663 -0.6501  0.1203
  576TIP3    H2 1693   5.507   4.636   4.315  1.5103  0.5557 -1.0634
  577TIP3   OH2 1694   2.322   3.536   4.360  0.0186  0.0965 -0.1232
  577TIP3    H1 1695   2.414   3.510   4.364 -0.6660 -2.5118  0.9629
  577TIP3    H2 1696   2.297   3.523   4.269  0.3594 -0.6811 -0.1126
  578TIP3   OH2 1697   4.033   0.631   0.314  0.9418 -0.1551  0.6088
  578TIP3    H1 1698   4.071   0.707   0.359 -0.4685 -0.2127  1.9695
  578TIP3    H2 1699   3.992   0.580   0.384 -0.2135 -0.9255 -0.5953
  579TIP3   OH2 1700   3.496   5.594   0.444  0.0645 -0.0839 -0.7262
  579TIP3    H1 1701   3.509   5.534   0.370  1.1371  1.9450 -2.2768
  579TIP3    H2 1702   3.473   5.677   0.403 -0.7560  0.7629  1.3407
  580TIP3   OH2 1703   3.257   5.810   0.689 -0.3456  0.6952 -0.2072
  580TIP3    H1 1704   3.215   5.744   0.744 -0.8786  0.8857 -0.3819
  580TIP3    H2 1705   3.347   5.813   0.721 -0.2807 -0.1970 -0.2751
  581TIP3   OH2 1706   6.013   6.093   4.205  0.1104  0.3245  0.6496
  581TIP3    H1 1707   5.990   6.159   4.270 -0.4671  0.6252  0.1550
  581TIP3    H2 1708   5.960   6.116   4.128 -0.2425 -0.8280  0.5303
  582TIP3   OH2 1709   4.533   5.096   2.427 -0.1074 -0.2009 -0.0033
  582TIP3    H1 1710   4.591   5.039   2.377 -0.1584  0.0121 -0.3050
  582TIP3    H2 1711   4.445   5.067   2.406 -0.1651  0.5193 -0.8046
  583TIP3   OH2 1712   5.158   0.791   2.614  0.2433 -0.0466 -0.2508
  583TIP3    H1 1713   5.170   0.701   2.646  0.3182  0.4004  1.0218
  583TIP3    H2 1714   5.072   0.789   2.572 -0.3645 -0.3985  0.9660
  584TIP3   OH2 1715   4.384   6.269   1.459 -0.2116  0.5130  0.0258
  584TIP3    H1 1716   4.376   6.359   1.428 -1.7864  0.7435  0.9644
  584TIP3    H2 1717   4.294   6.235   1.457  0.1721 -0.6226  0.8735
  585TIP3   OH2 1718   4.606   1.448   3.221 -0.1630  0.2929 -0.2888
  585TIP3    H1 1719   4.525   1.489   3.252 -0.1917 -0.3233  0.4956
  585TIP3    H2 1720   4.590   1.354   3.231  0.8779  0.1757  0.4871
  586TIP3   OH2 1721   0.523   1.092   2.977 -0.4793 -0.2745 -0.1452
  586TIP3    H1 1722   0.544   1.027   2.910  1.0367  0.9612 -0.9341
  586TIP3    H2 1723   0.516   1.175   2.929  0.1958  0.5728  1.1531
  587TIP3   OH2 1724   4.818   2.503   1.541  0.0455  0.2857 -0.3064
  587TIP3    H1 1725   4.896   2.545   1.507  0.2922  0.3414  0.3037
  587TIP3    H2 1726   4.808   2.423   1.490  1.1961 -0.3306  0.4045
  588TIP3   OH2 1727   1.751   5.925   1.589  0.6135 -0.4502 -0.1969
  588TIP3    H1 1728   1.805   5.935   1.511 -0.1150  1.3187 -0.5150
  588TIP3    H2 1729   1.661   5.930   1.557  0.1859 -2.9159  0.3781
  589TIP3   OH2 1730   1.906   3.433   2.093 -0.0518  0.0378  0.7719
  589TIP3    H1 1731   1.954   3.468   2.018  1.9729  2.0671  2.8212
  589TIP3    H2 1732   1.955   3.354   2.117 -0.9545 -0.8581 -0.2028
  590TIP3   OH2 1733   4.670   3.295   0.730  0.6972 -0.1119 -0.3896
  590TIP3    H1 1734   4.587   3.247   0.734  0.6260 -0.1489 -1.8882
  590TIP3    H2 1735   4.727   3.249   0.791 -0.4020 -0.0223  0.7521
  591TIP3   OH2 1736   4.110   0.441   1.283 -0.2234 -0.3231  0.0478
  591TIP3    H1 1737   4.142   0.530   1.267 -1.2135  0.2702  1.1942
  591TIP3    H2 1738   4.186   0.395   1.320  0.6284 -0.3165 -1.6220
  592TIP3   OH2 1739   4.646   5.072   3.172  0.0199 -0.2189  0.6142
  592TIP3    H1 1740   4.561   5.104   3.143 -0.7385 -1.7892  1.0280
  592TIP3    H2 1741   4.643   4.977   3.157  1.7741 -0.2901  0.4438
  593TIP3   OH2 1742   3.817   1.676   5.294  0.0091  0.2607 -0.1589
  593TIP3    H1 1743   3.745   1.667   5.357 -0.4938  0.8747 -0.6358
  593TIP3    H2 1744   3.862   1.592   5.297 -0.5067 -0.0029  0.4158
  594TIP3   OH2 1745   0.735   5.825   3.838 -0.1975  0.3958  0.0901
  594TIP3    H1 1746   0.804   5.849   3.900  1.6779  0.0609 -1.7617
  594TIP3    H2 1747   0.686   5.756   3.882  2.0930 -0.9810  0.6250
  595TIP3   OH2 1748   7.032   6.044   0.870  0.7090  0.3274 -0.2238
  595TIP3    H1 1749   7.091   6.114   0.842 -0.5289  0.9675 -1.3602
  595TIP3    H2 1750   7.058   5.968   0.818  0.2810  0.7313 -1.0552
  596TIP3   OH2 1751   7.081   6.696   5.256  0.1017  0.0572  0.3591
  596TIP3    H1 1752   7.073   6.633   5.328  1.2581 -1.0179 -0.4107
  596TIP3    H2 1753   6.997   6.690   5.210  0.3034 -1.1713  0.1180
  597TIP3   OH2 1754   2.591   0.313   0.803  0.1982 -0.0891 -0.6378
  597TIP3    H1 1755   2.661   0.335   0.866  0.6324  0.2050 -1.2178
  597TIP3    H2 1756   2.635   0.262   0.735 -0.1991 -0.0847 -0.9015
  598TIP3   OH2 1757   0.249   5.185   1.464 -0.7648 -0.0730 -0.2317
  598TIP3    H1 1758   0.168   5.235   1.454 -1.7292 -1.1776  1.5110
  598TIP3    H2 1759   0.222   5.103   1.506  1.4881  0.4104  2.4918
  599TIP3   OH2 1760   0.115   1.077   2.460 -0.2301  0.1819 -0.0844
  599TIP3    H1 1761   0.109   1.167   2.429 -0.0677 -0.8876 -3.7324
  599TIP3    H2 1762   0.191   1.076   2.517  0.2207  2.2116 -0.5739
  600TIP3   OH2 1763   0.925   4.050   2.415 -0.1713  0.5640  0.5880
  600TIP3    H1 1764   0.997   4.105   2.447  1.1380 -0.2977 -0.7481
  600TIP3    H2 1765   0.898   3.998   2.491  2.4559 -1.0167  0.5513
  601TIP3   OH2 1766   1.271   4.315   0.276 -0.0766  0.1813 -0.5971
  601TIP3    H1 1767   1.344   4.372   0.250  2.5391 -1.6636  2.0622
  601TIP3    H2 1768   1.223   4.300   0.195  1.7930  2.4202 -2.2812
  602TIP3   OH2 1769   3.052   2.459   3.142 -0.1198 -0.1935  0.2873
  602TIP3    H1 1770   3.018   2.528   3.198  1.0845  0.5888  0.0871
  602TIP3    H2 1771   2.977   2.434   3.087 -1.1298 -0.5013  1.7398
  603TIP3   OH2 1772   2.115   5.376   4.715  0.4467  0.5651  0.4229
  603TIP3    H1 1773   2.194   5.430   4.727  2.8105 -2.0027 -1.9873
  603TIP3    H2 1774   2.146   5.286   4.727 -2.7560 -0.4652  1.7995
  604TIP3   OH2 1775   5.208   3.010   0.742  0.7151 -0.6514  0.4365
  604TIP3    H1 1776   5.192   3.092   0.696 -1.3707 -0.1268  1.9444
  604TIP3    H2 1777   5.296   3.020   0.779  0.9138  0.4403 -0.2723
  605TIP3   OH2 1778   3.654   5.064   1.759 -0.3247 -0.6731 -0.6461
  605TIP3    H1 1779   3.572   5.077   1.806  1.7109  3.3323  2.5400
  605TIP3    H2 1780   3.672   4.971   1.768 -3.8260 -1.4545 -0.3610
  606TIP3   OH2 1781   2.416   5.604   3.369  0.0839  0.1019  0.3988
  606TIP3    H1 1782   2.457   5.689   3.389 -1.0402  0.8619 -0.4197
  606TIP3    H2 1783   2.327   5.626   3.344  0.0449 -1.2517 -0.7375
  607TIP3   OH2 1784   7.122   1.022   5.124  0.1063 -0.8069  0.2445
  607TIP3    H1 1785   7.051   1.040   5.185 -0.1105  0.0381 -0.2353
  607TIP3    H2 1786   7.086   0.955   5.065 -0.3339 -0.3132 -0.0565
  608TIP3   OH2 1787   2.688   0.671   1.609  0.1647 -0.1407 -0.1043
  608TIP3    H1 1788   2.642   0.592   1.581 -2.4719  1.6073 -1.0151
  608TIP3    H2 1789   2.654   0.688   1.697 -0.1493  0.5885 -0.3623
  609TIP3   OH2 1790   6.329   4.937   3.946  0.6149 -0.0862 -0.3763
  609TIP3    H1 1791   6.258   4.874   3.934  1.1898 -0.8290 -0.0178
  609TIP3    H2 1792   6.380   4.902   4.019  0.5439  1.1953  0.3107
  610TIP3   OH2 1793   7.142   3.171   2.384 -0.6973 -0.1920  0.0333
  610TIP3    H1 1794   7.174   3.111   2.317 -0.6190 -2.6126  2.0925
  610TIP3    H2 1795   7.220   3.214   2.418 -0.4708 -0.6975  0.1539
  611TIP3   OH2 1796   4.158   1.446   0.699 -0.0007  0.5924  0.0939
  611TIP3    H1 1797   4.242   1.461   0.743  0.1181 -1.8836  0.8798
  611TIP3    H2 1798   4.175   1.463   0.607  0.9793  1.4617  0.4149
  612TIP3   OH2 1799   0.352   0.221   3.499  0.3555  0.2862 -0.0147
  612TIP3    H1 1800   0.388   0.309   3.487  2.4158 -0.4923  0.0459
  612TIP3    H2 1801   0.397   0.187   3.577 -1.1317 -0.4806  0.5440
  613TIP3   OH2 1802   0.537   6.532   4.783  1.4314 -0.6253  0.1447
  613TIP3    H1 1803   0.524   6.596   4.854 -0.2380 -1.7031  0.8741
  613TIP3    H2 1804   0.548   6.585   4.704 -1.9900  0.6426  0.3625
  614TIP3   OH2 1805   3.400   6.108   0.749 -0.1890 -0.4315  0.3523
  614TIP3    H1 1806   3.432   6.059   0.673  0.6374  0.4999  0.0661
  614TIP3    H2 1807   3.436   6.062   0.824  0.6965 -0.2193  0.0832
  615TIP3   OH2 1808   4.174   4.620   4.060  0.2494  0.1736 -0.0437
  615TIP3    H1 1809   4.266   4.614   4.087  0.5752  0.2490 -1.1116
  615TIP3    H2 1810   4.144   4.703   4.097  0.8510  0.5509 -0.3851
  616TIP3   OH2 1811   3.408   2.620   1.771 -0.0361 -0.1386  0.8190
  616TIP3    H1 1812   3.479   2.683   1.787  1.1195 -1.2205  0.1099
  616TIP3    H2 1813   3.343   2.641   1.838  1.4210  0.2151  2.1992
  617TIP3   OH2 1814   3.499   1.020   1.014 -0.3627  0.2897 -0.4131
  617TIP3    H1 1815   3.490   1.093   0.954 -4.7125  1.2029  1.0029
  617TIP3    H2 1816   3.459   0.946   0.969  0.7654 -0.3342 -0.4369
  618TIP3   OH2 1817   4.791   6.323   1.278 -1.3670 -0.0773 -0.1388
  618TIP3    H1 1818   4.711   6.349   1.231  0.0647  0.8115 -2.2125
  618TIP3    H2 1819   4.833   6.405   1.301  0.0576 -0.5121 -1.0946
  619TIP3   OH2 1820   1.724   6.353   5.796 -0.7390 -0.2493 -0.2898
  619TIP3    H1 1821   1.673   6.314   5.725  0.6773 -2.8576 -0.0067
  619TIP3    H2 1822   1.784   6.413   5.752 -1.3775 -0.1554 -1.0509
  620TIP3   OH2 1823   6.221   3.801   3.446 -0.3904  0.2696  0.3519
  620TIP3    H1 1824   6.170   3.870   3.488  0.7113  1.3529 -0.0384
  620TIP3    H2 1825   6.308   3.809   3.484  0.4818  0.8753 -1.6175
  621TIP3   OH2 1826   4.408   1.449   0.817  0.1445 -0.1850  0.0060
  621TIP3    H1 1827   4.501   1.446   0.791  0.2757 -2.8103  0.5039
  621TIP3    H2 1828   4.410   1.446   0.913 -0.4776  2.3992  0.1712
  622TIP3   OH2 1829   3.680   3.470   0.936 -0.3777 -0.5830 -0.1081
  622TIP3    H1 1830   3.765   3.429   0.951 -0.1574  0.8194  3.3607
  622TIP3    H2 1831   3.616   3.402   0.959 -0.1571 -0.7853 -0.0862
  623TIP3   OH2 1832   6.911   1.353   1.286 -0.0438 -0.2695  0.4876
  623TIP3    H1 1833   6.855   1.418   1.328 -0.5120  0.0930 -0.6448
  623TIP3    H2 1834   6.944   1.398   1.208  1.0419 -0.8140  0.6166
  624TIP3   OH2 1835   3.923   2.514   5.561  0.0844 -0.1420 -0.9497
  624TIP3    H1 1836   3.930   2.565   5.642 -2.3009  0.1436 -0.8447
  624TIP3    H2 1837   3.951   2.426   5.587  1.8560  0.5177 -0.5088
  625TIP3   OH2 1838   6.748   6.710   5.377  1.0939 -0.3350  0.0777
  625TIP3    H1 1839   6.765   6.716   5.282 -0.8430 -0.7202 -0.3240
  625TIP3    H2 1840   6.827   6.747   5.417  1.1029  1.7867 -1.7162
  626TIP3   OH2 1841   2.060   2.032   1.527  0.0729 -0.0571 -0.1047
  626TIP3    H1 1842   2.091   2.116   1.562  0.9145 -0.7072  0.7591
  626TIP3    H2 1843   1.997   2.000   1.591  0.4154 -0.4908  0.0249
  627TIP3   OH2 1844   6.671   2.493   5.644 -0.2659  0.2387  0.3459
  627TIP3    H1 1845   6.602   2.530   5.590 -0.7835 -0.2207  0.6936
  627TIP3    H2 1846   6.671   2.400   5.624 -0.5288  0.0475  1.2025
  628TIP3   OH2 1847   5.221   6.675   1.148  0.3970  0.1453  0.3500
  628TIP3    H1 1848   5.127   6.663   1.160  0.3574  1.5550  1.6365
  628TIP3    H2 1849   5.233   6.769   1.139  1.5074 -0.1402 -1.7544
  629TIP3   OH2 1850   0.873   5.607   4.007  0.1002 -0.4385  0.2197
  629TIP3    H1 1851   0.940   5.664   3.971 -0.9172  0.1485 -0.8102
  629TIP3    H2 1852   0.916   5.523   4.019  1.3993  0.3058  0.9907
  630TIP3   OH2 1853   3.351   3.241   0.463  0.0618  0.1269  0.5386
  630TIP3    H1 1854   3.418   3.277   0.521 -3.2684  2.4020  3.3298
  630TIP3    H2 1855   3.304   3.177   0.517 -0.3881 -1.1146 -1.2141
  631TIP3   OH2 1856   7.195   4.527   5.426  0.3465 -0.1507  0.2362
  631TIP3    H1 1857   7.177   4.545   5.334 -0.2888  0.3947  0.4548
  631TIP3    H2 1858   7.241   4.605   5.457  0.9436 -0.5168  0.2800
  632TIP3   OH2 1859   1.578   0.719   4.723 -0.1500  0.2460  0.7814
  632TIP3    H1 1860   1.616   0.755   4.803 -1.9432  1.2834  1.2213
  632TIP3    H2 1861   1.505   0.665   4.753 -0.2830 -0.0837 -0.1063
  633TIP3   OH2 1862   1.852   4.380   4.973  0.2963  0.5374  0.0673
  633TIP3    H1 1863   1.924   4.384   4.910  0.5065 -0.0869  0.2678
  633TIP3    H2 1864   1.814   4.293   4.961 -0.2366  0.7535  0.1742
  634TIP3   OH2 1865   1.914   5.417   4.282  0.7129  0.2083  0.6420
  634TIP3    H1 1866   1.825   5.420   4.246  0.3360 -0.9603  1.4012
  634TIP3    H2 1867   1.969   5.455   4.214 -0.3552  0.8547  0.1100
  635TIP3   OH2 1868   4.291   6.605   1.807 -0.0504  0.1000  0.3642
  635TIP3    H1 1869   4.288   6.526   1.753  1.2494  0.0566  0.3242
  635TIP3    H2 1870   4.292   6.677   1.745 -1.2983  0.1758  0.4015
  636TIP3   OH2 1871   1.696   0.567   2.141 -0.1554 -0.1803 -0.4968
  636TIP3    H1 1872   1.722   0.651   2.179 -0.6740  0.5820 -1.7826
  636TIP3    H2 1873   1.622   0.539   2.195  0.3960 -0.1237  0.3133
  637TIP3   OH2 1874   3.785   5.377   2.133 -0.2308  0.0634  0.5212
  637TIP3    H1 1875   3.831   5.319   2.193 -0.9922 -0.0660  1.0035
  637TIP3    H2 1876   3.800   5.339   2.046 -0.2579 -0.5452  0.7750
  638TIP3   OH2 1877   2.975   4.493   3.319 -0.0349 -0.5592  0.2781
  638TIP3    H1 1878   2.989   4.476   3.226 -0.4037 -1.0931  0.3135
  638TIP3    H2 1879   2.975   4.588   3.326 -0.2335 -0.5095 -0.3092
  639TIP3   OH2 1880   5.723   3.987   0.599  0.3137 -0.0143 -0.6353
  639TIP3    H1 1881   5.686   3.944   0.676  0.8146 -1.9120 -1.4015
  639TIP3    H2 1882   5.649   4.001   0.540  0.3690 -1.3636 -1.0544
  640TIP3   OH2 1883   3.281   1.625   1.030  0.3642  0.0877 -0.0253
  640TIP3    H1 1884   3.211   1.615   1.095 -1.1280  0.4515 -1.4972
  640TIP3    H2 1885   3.334   1.546   1.040 -0.5609 -0.4504  0.7990
  641TIP3   OH2 1886   1.972   5.532   5.347 -0.4995  0.2676  0.0945
  641TIP3    H1 1887   1.947   5.621   5.323 -0.2728  0.6482  1.2148
  641TIP3    H2 1888   1.891   5.481   5.339 -0.6338  0.5693 -0.5239
  642TIP3   OH2 1889   2.025   4.295   0.618  0.3102  0.2952  0.2567
  642TIP3    H1 1890   1.973   4.216   0.631  1.6541 -0.3720  2.0088
  642TIP3    H2 1891   2.083   4.275   0.545 -2.0690  1.2038 -2.0140
  643TIP3   OH2 1892   3.625   1.931   2.833  0.2843 -0.4089 -0.2217
  643TIP3    H1 1893   3.534   1.904   2.841  0.6336 -1.3125  0.9901
  643TIP3    H2 1894   3.675   1.850   2.841  1.3549  0.4464  2.9643
  644TIP3   OH2 1895   0.814   5.351   2.253 -0.0107  0.3554 -0.4372
  644TIP3    H1 1896   0.779   5.266   2.278  0.5613 -0.0080 -0.8684
  644TIP3    H2 1897   0.793   5.359   2.160 -0.5356  0.9208 -0.2776
  645TIP3   OH2 1898   4.082   4.995   3.862 -0.7865  0.1434  0.0913
  645TIP3    H1 1899   4.164   4.972   3.819 -0.6886  0.9879 -0.2081
  645TIP3    H2 1900   4.078   4.938   3.939  0.6732  0.8889  0.7745
  646TIP3   OH2 1901   0.610   2.030   0.859 -0.7231  0.2449 -0.6900
  646TIP3    H1 1902   0.569   2.068   0.781  0.3358 -1.4176 -2.1168
  646TIP3    H2 1903   0.673   1.967   0.825  0.8045  0.4665  1.4953
  647TIP3   OH2 1904   3.933   5.766   3.040 -0.2747  0.5222 -0.0968
  647TIP3    H1 1905   3.936   5.748   3.134  0.2869  1.9268  0.1740
  647TIP3    H2 1906   3.901   5.856   3.034 -1.0644  0.1904 -1.2984
  648TIP3   OH2 1907   5.250   3.394   5.099 -0.0576 -0.5335 -0.9085
  648TIP3    H1 1908   5.212   3.369   5.015 -0.4558  1.6056 -1.4285
  648TIP3    H2 1909   5.176   3.392   5.160 -0.5627  1.2723 -1.4002
  649TIP3   OH2 1910   1.934   5.854   5.858  0.5858 -0.4333  0.0630
  649TIP3    H1 1911   1.901   5.921   5.798  0.2120 -0.8862 -0.2360
  649TIP3    H2 1912   1.916   5.889   5.945 -1.5146 -1.0549 -0.0784
  650TIP3   OH2 1913   1.400   1.284   1.898 -0.0739  0.2500  0.2284
  650TIP3    H1 1914   1.382   1.354   1.960  0.3278  0.4679  0.0975
  650TIP3    H2 1915   1.488   1.253   1.920  0.4861  1.0016 -0.8643
  651TIP3   OH2 1916   0.846   3.598   2.135  0.3212  0.2896 -0.0261
  651TIP3    H1 1917   0.936   3.565   2.137 -0.0305 -0.7680 -0.8583
  651TIP3    H2 1918   0.854   3.691   2.157  1.8426  0.6868 -1.9962
  652TIP3   OH2 1919   4.798   4.293   4.200 -0.4971 -0.2145 -0.0226
  652TIP3    H1 1920   4.780   4.327   4.288 -1.8547  1.3687 -0.8555
  652TIP3    H2 1921   4.711   4.276   4.163 -0.0576  0.8789 -1.6778
  653TIP3   OH2 1922   4.282   4.445   0.625  0.2622 -0.2543  0.1321
  653TIP3    H1 1923   4.239   4.401   0.699 -0.5388  0.0749 -0.1282
  653TIP3    H2 1924   4.225   4.520   0.606  1.0441  0.2871 -0.1181
  654TIP3   OH2 1925   3.512   2.881   4.255 -0.0935 -0.4691 -0.3698
  654TIP3    H1 1926   3.532   2.873   4.348 -0.8547 -0.0116 -0.1598
  654TIP3    H2 1927   3.417   2.894   4.252  0.1736  1.7076 -1.0543
  655TIP3   OH2 1928   5.994   6.672   1.069  0.2145  0.2091  0.3289
  655TIP3    H1 1929   5.923   6.608   1.061  0.2004  0.3870 -1.5804
  655TIP3    H2 1930   5.958   6.752   1.031  0.9740  0.6936  0.6205
  656TIP3   OH2 1931   7.120   1.548   5.722 -0.1604  0.4756  0.2754
  656TIP3    H1 1932   7.145   1.595   5.802  1.1726 -1.0439  0.8008
  656TIP3    H2 1933   7.148   1.606   5.651 -0.7394  1.5407  0.8805
  657TIP3   OH2 1934   0.837   6.143   3.867  0.0756 -0.5030  0.3420
  657TIP3    H1 1935   0.885   6.181   3.793 -0.8388  0.7538  0.3481
  657TIP3    H2 1936   0.870   6.054   3.874  1.2446 -0.1830 -0.6479
  658TIP3   OH2 1937   4.241   6.279   5.471 -0.3686  0.2316  0.3653
  658TIP3    H1 1938   4.146   6.283   5.484 -0.7006 -1.0261 -1.2940
  658TIP3    H2 1939   4.262   6.185   5.474  0.7217  0.4467  0.0192
  659TIP3   OH2 1940   3.840   4.935   1.947  0.3594  0.2674  0.2614
  659TIP3    H1 1941   3.919   4.890   1.979 -0.4102 -1.4828 -0.1875
  659TIP3    H2 1942   3.773   4.915   2.013 -0.2501 -0.0904 -0.4610
  660TIP3   OH2 1943   2.574   2.971   4.682 -0.3629  0.7936 -0.4666
  660TIP3    H1 1944   2.487   2.954   4.647 -0.5915 -0.4882  0.6093
  660TIP3    H2 1945   2.559   2.990   4.775  0.3922  2.0146 -0.5665
  661TIP3   OH2 1946   2.426   4.900   2.117  0.2873 -0.3628  0.7157
  661TIP3    H1 1947   2.424   4.849   2.198 -1.9918 -2.0825 -0.3252
  661TIP3    H2 1948   2.508   4.875   2.075  0.5995 -0.8824  1.6119
  662TIP3   OH2 1949   2.943   0.496   5.014  0.2930 -0.4854  0.0666
  662TIP3    H1 1950   3.035   0.522   5.004 -0.6894  3.5628 -0.1157
  662TIP3    H2 1951   2.912   0.483   4.925  0.6610 -2.0972  0.1381
  663TIP3   OH2 1952   2.263   4.582   1.609 -0.5654 -0.0271 -0.6669
  663TIP3    H1 1953   2.213   4.510   1.570 -0.5455  0.4167 -1.5266
  663TIP3    H2 1954   2.229   4.588   1.699 -1.6296 -0.1255 -1.0413
  664TIP3   OH2 1955   0.828   5.319   3.047  0.0561  0.0084 -0.0523
  664TIP3    H1 1956   0.835   5.414   3.054  2.7823 -0.2037  1.3710
  664TIP3    H2 1957   0.792   5.304   2.959 -1.0261  2.3153 -0.0786
  665TIP3   OH2 1958   5.486   5.618   2.705  0.3675  0.2710 -0.3750
  665TIP3    H1 1959   5.421   5.607   2.775 -1.1125 -0.1423 -1.7430
  665TIP3    H2 1960   5.524   5.531   2.693  0.3452  0.2571 -0.3452
  666TIP3   OH2 1961   1.639   2.914   1.702  0.1468  0.0051 -0.2567
  666TIP3    H1 1962   1.648   2.953   1.789  0.5322 -1.8817  0.5794
  666TIP3    H2 1963   1.587   2.978   1.653  1.1685  1.7865  0.8912
  667TIP3   OH2 1964   1.608   3.170   1.164  0.6221 -0.6189  0.1760
  667TIP3    H1 1965   1.661   3.124   1.230 -1.3038 -2.6017  0.4774
  667TIP3    H2 1966   1.560   3.100   1.120 -1.2332  1.0004 -0.5089
  668TIP3   OH2 1967   3.460   2.765   3.500 -0.0076 -0.0651 -0.2418
  668TIP3    H1 1968   3.527   2.735   3.561 -0.6765 -1.3344 -0.0994
  668TIP3    H2 1969   3.439   2.854   3.528  1.3206  0.1941 -0.0424
  669TIP3   OH2 1970   0.722   0.532   0.634  0.1254  0.0829  0.4317
  669TIP3    H1 1971   0.807   0.517   0.593 -0.3518  0.0555 -0.5821
  669TIP3    H2 1972   0.710   0.458   0.692 -0.2644 -1.2390 -1.2381
  670TIP3   OH2 1973   1.637   2.686   0.516 -0.1317 -0.1455  0.9547
  670TIP3    H1 1974   1.550   2.670   0.554  0.0847 -3.3904  0.4358
  670TIP3    H2 1975   1.628   2.658   0.425  1.2098  0.4558  0.6208
  671TIP3   OH2 1976   4.567   0.419   4.268  0.2187 -0.1592  0.1321
  671TIP3    H1 1977   4.501   0.453   4.328 -0.9227  1.9629 -2.1403
  671TIP3    H2 1978   4.649   0.457   4.299 -0.3803  1.0648  0.2800
  672TIP3   OH2 1979   4.235   1.469   0.402 -0.0214 -0.0899  0.0938
  672TIP3    H1 1980   4.238   1.467   0.306  0.5417 -1.3213  0.1161
  672TIP3    H2 1981   4.278   1.388   0.429  0.1266  0.3997  1.4034
  673TIP3   OH2 1982   4.268   0.945   4.670  0.3040  0.2403  0.5452
  673TIP3    H1 1983   4.283   1.020   4.728  1.6400  1.0040 -0.7339
  673TIP3    H2 1984   4.351   0.898   4.668  0.3447  0.3229 -0.8540
  674TIP3   OH2 1985   5.008   3.407   4.610  0.5338 -0.0450 -0.0840
  674TIP3    H1 1986   4.939   3.469   4.586 -0.2417 -0.1759  1.6456
  674TIP3    H2 1987   5.059   3.394   4.529 -2.9174 -1.8677 -2.2129
  675TIP3   OH2 1988   6.238   4.995   5.629  0.2092 -0.4368 -0.1292
  675TIP3    H1 1989   6.176   5.061   5.659  1.4571  1.0496 -0.6757
  675TIP3    H2 1990   6.307   5.045   5.585  1.8742 -1.9987  0.5632
  676TIP3   OH2 1991   6.656   2.648   4.830  0.3275 -0.1025  0.0310
  676TIP3    H1 1992   6.744   2.635   4.794  0.7218  1.1348  0.4752
  676TIP3    H2 1993   6.671   2.682   4.918 -0.5850  0.3632  0.0218
  677TIP3   OH2 1994   5.536   5.534   5.118 -0.4444 -0.5122 -0.3213
  677TIP3    H1 1995   5.590   5.610   5.141  0.3962 -0.6446 -1.7245
  677TIP3    H2 1996   5.465   5.571   5.066 -2.5840 -0.1524  2.6134
  678TIP3   OH2 1997   6.410   6.152   1.304  0.4076  0.5917  0.3880
  678TIP3    H1 1998   6.406   6.239   1.343 -0.4217  0.4658  0.6073
  678TIP3    H2 1999   6.318   6.128   1.290  0.6615  0.4472 -1.2402
  679TIP3   OH2 2000   2.743   2.063   1.291 -0.4377 -0.0971  0.4398
  679TIP3    H1 2001   2.747   1.989   1.230 -0.0066 -0.0310  0.3825
  679TIP3    H2 2002   2.735   2.140   1.235  2.0792  0.1547  0.3330
  680TIP3   OH2 2003   3.074   4.291   5.480 -0.2834  0.2857  0.1943
  680TIP3    H1 2004   3.066   4.314   5.573  0.2274 -0.2606  0.3787
  680TIP3    H2 2005   3.161   4.323   5.455 -0.8310  1.3821 -0.3810
  681TIP3   OH2 2006   4.569   6.057   0.303 -0.4030 -0.0399 -0.2037
  681TIP3    H1 2007   4.647   6.102   0.334  0.7063 -1.2370 -1.1046
  681TIP3    H2 2008   4.542   6.002   0.376 -0.1415  0.0613 -0.0308
  682TIP3   OH2 2009   1.298   4.860   1.583 -0.3717 -0.6139 -0.6325
  682TIP3    H1 2010   1.377   4.857   1.529  0.0367 -0.3239 -0.0580
  682TIP3    H2 2011   1.251   4.938   1.553  1.7579  1.9024  2.0089
  683TIP3   OH2 2012   4.934   2.994   3.330 -0.3271  0.2736 -0.9482
  683TIP3    H1 2013   4.851   2.973   3.374 -0.7931  1.3177 -1.2925
  683TIP3    H2 2014   5.001   2.982   3.397 -0.8228 -0.0191 -0.5007
  684TIP3   OH2 2015   5.093   1.003   1.641  0.9297 -0.0476  0.0712
  684TIP3    H1 2016   5.158   1.030   1.706 -0.5503  1.0963  1.1317
  684TIP3    H2 2017   5.035   0.944   1.688 -0.3668  1.0634 -0.0836
  685TIP3   OH2 2018   0.110   1.072   4.791 -0.7516  0.4618  0.3963
  685TIP3    H1 2019   0.163   1.104   4.864  0.0488 -0.4045  0.2193
  685TIP3    H2 2020   0.108   0.977   4.803 -0.4598  0.2925 -0.8043
  686TIP3   OH2 2021   5.590   2.318   2.309  0.4387 -0.1015 -0.1142
  686TIP3    H1 2022   5.613   2.386   2.247 -0.0537 -0.6108 -0.8746
  686TIP3    H2 2023   5.674   2.282   2.338  0.6706 -0.4587 -1.1762
  687TIP3   OH2 2024   4.786   5.341   1.235 -0.5173 -0.0099 -0.3812
  687TIP3    H1 2025   4.777   5.265   1.292 -1.5711 -0.5815 -1.2886
  687TIP3    H2 2026   4.856   5.318   1.174 -0.0456  0.2247  0.0590
  688TIP3   OH2 2027   3.900   6.755   4.788 -0.0265  0.4287 -0.4887
  688TIP3    H1 2028   3.964   6.768   4.719  1.8288  1.4382  1.2942
  688TIP3    H2 2029   3.860   6.842   4.801 -0.1206  0.3300 -0.0815
  689TIP3   OH2 2030   6.473   3.913   2.656 -0.1439  0.1000 -0.0114
  689TIP3    H1 2031   6.422   3.953   2.585 -0.4816 -1.0464 -0.4448
  689TIP3    H2 2032   6.559   3.898   2.617  0.0160  0.4980  0.1851
  690TIP3   OH2 2033   5.082   2.979   1.336  0.2173  0.6929  0.1756
  690TIP3    H1 2034   5.104   2.947   1.248  1.8888 -1.1387  1.1642
  690TIP3    H2 2035   5.165   2.978   1.383 -0.6852  1.3637  1.8751
  691TIP3   OH2 2036   5.876   5.666   2.641 -0.3918 -0.2845  0.6427
  691TIP3    H1 2037   5.883   5.725   2.566  0.2728 -1.1562 -0.0109
  691TIP3    H2 2038   5.899   5.720   2.717  0.9652  0.1150 -0.0224
  692TIP3   OH2 2039   2.579   0.855   2.629  0.1597  0.3539 -0.0466
  692TIP3    H1 2040   2.530   0.835   2.549 -3.2203  3.6556  0.9591
  692TIP3    H2 2041   2.528   0.814   2.699  2.6204 -1.7729  0.6781
  693TIP3   OH2 2042   6.769   4.326   1.752  0.0268 -0.2749  0.3759
  693TIP3    H1 2043   6.844   4.301   1.699 -0.9931 -1.8191 -0.4146
  693TIP3    H2 2044   6.805   4.342   1.839  1.3769 -0.1144 -0.1909
  694TIP3   OH2 2045   2.758   3.603   1.399  0.2199  0.0968 -0.1959
  694TIP3    H1 2046   2.833   3.642   1.353  0.2795 -0.3058 -0.4483
  694TIP3    H2 2047   2.682   3.649   1.364  0.1773 -0.8306 -1.4114
  695TIP3   OH2 2048   6.522   0.553   5.386  0.2208 -0.1071 -0.0869
  695TIP3    H1 2049   6.487   0.586   5.469  1.1883  3.1877 -0.8459
  695TIP3    H2 2050   6.617   0.550   5.398  0.2599 -1.6973 -0.4604
  696TIP3   OH2 2051   2.234   5.068   4.198 -0.0692 -0.9280  0.8445
  696TIP3    H1 2052   2.237   4.973   4.186  0.9175 -1.2023  2.8958
  696TIP3    H2 2053   2.193   5.081   4.283 -0.3053  0.5134  0.5440
  697TIP3   OH2 2054   3.701   2.817   4.712 -0.3635  0.5084 -0.1121
  697TIP3    H1 2055   3.771   2.791   4.652 -1.0882 -0.0018 -0.7606
  697TIP3    H2 2056   3.660   2.734   4.738 -1.8185  0.8751 -1.1003
  698TIP3   OH2 2057   6.387   4.948   4.676 -0.9360 -0.8941  0.1329
  698TIP3    H1 2058   6.395   4.866   4.725  1.3461 -0.2989  0.8885
  698TIP3    H2 2059   6.394   4.923   4.584  0.2799 -1.5243  0.3810
  699TIP3   OH2 2060   6.206   2.843   1.082  0.2249 -0.2014  0.0815
  699TIP3    H1 2061   6.127   2.794   1.105  0.1677  0.1201  0.6054
  699TIP3    H2 2062   6.278   2.786   1.109  0.1601  0.4641  1.8059
  700TIP3   OH2 2063   7.081   5.414   1.431 -0.0073  0.4009  0.5300
  700TIP3    H1 2064   7.077   5.468   1.352  0.9279  0.2868  0.3929
  700TIP3    H2 2065   7.025   5.459   1.494 -3.0213 -0.9156 -0.9900
  701TIP3   OH2 2066   6.267   4.948   1.432 -0.3289 -0.3439  0.0273
  701TIP3    H1 2067   6.258   4.974   1.524  0.2263  2.4800 -0.6215
  701TIP3    H2 2068   6.193   4.989   1.388 -0.8894 -2.0980 -0.7767
  702TIP3   OH2 2069   3.088   0.007   2.354  0.3583  0.2414 -0.2609
  702TIP3    H1 2070   3.068   0.009   2.260 -0.4230  1.2639 -0.0915
  702TIP3    H2 2071   3.172   0.050   2.362  1.1404 -1.1441 -0.6262
  703TIP3   OH2 2072   4.909   2.607   1.801  0.0091 -0.4677 -0.8014
  703TIP3    H1 2073   4.980   2.671   1.791  0.7672 -1.2244 -0.3754
  703TIP3    H2 2074   4.871   2.600   1.713 -0.9253  1.4831 -0.6123
  704TIP3   OH2 2075   0.959   3.178   0.948 -0.1292 -0.1917 -0.1658
  704TIP3    H1 2076   0.957   3.174   0.852  1.6937  2.6694 -0.4322
  704TIP3    H2 2077   0.930   3.267   0.969  2.1950  0.2155  1.7368
  705TIP3   OH2 2078   4.671   2.281   1.240  0.3410 -0.2527 -0.2112
  705TIP3    H1 2079   4.751   2.266   1.291 -0.3213 -0.3881  0.8312
  705TIP3    H2 2080   4.654   2.374   1.249 -0.4835 -0.4882  0.9477
  706TIP3   OH2 2081   6.921   6.606   2.354 -0.4020  0.2993  0.5587
  706TIP3    H1 2082   6.956   6.533   2.303 -1.8569 -0.6423  0.8630
  706TIP3    H2 2083   6.828   6.611   2.329 -0.7147  0.9706  1.7897
  707TIP3   OH2 2084   2.107   4.381   1.978 -0.6018 -0.1455 -0.3120
  707TIP3    H1 2085   2.088   4.381   1.884 -2.7871  0.9645  0.0739
  707TIP3    H2 2086   2.167   4.455   1.990 -0.4784 -0.1634 -0.8065
  708TIP3   OH2 2087   3.964   3.808   5.626 -0.4254 -0.0209 -0.2148
  708TIP3    H1 2088   3.995   3.859   5.551 -1.6160  3.4784  1.4640
  708TIP3    H2 2089   4.035   3.813   5.690 -0.3799 -0.9368 -0.1697
  709TIP3   OH2 2090   0.192   4.778   5.381  0.5548  0.7146  0.1113
  709TIP3    H1 2091   0.238   4.695   5.369  1.1458  0.8643  1.2685
  709TIP3    H2 2092   0.142   4.789   5.300  1.8547  0.1220 -0.8059
  710TIP3   OH2 2093   0.205   2.642   5.081 -0.1673 -0.1241  0.1419
  710TIP3    H1 2094   0.230   2.650   4.989 -0.1364 -0.6845  0.0986
  710TIP3    H2 2095   0.109   2.641   5.079 -0.3069  2.8253  0.3706
  711TIP3   OH2 2096   4.295   6.034   4.745 -0.2875  0.1615  0.4584
  711TIP3    H1 2097   4.292   6.036   4.841  3.4619 -1.9006  0.8090
  711TIP3    H2 2098   4.360   6.101   4.722 -0.6377  0.1478 -0.6231
  712TIP3   OH2 2099   4.931   4.505   4.435 -0.7552  0.0433 -1.0259
  712TIP3    H1 2100   4.862   4.554   4.390 -1.8275  0.2833  0.7762
  712TIP3    H2 2101   5.013   4.545   4.407 -1.4865  1.2669 -1.4543
  713TIP3   OH2 2102   6.586   4.961   2.193 -0.4456  0.5520 -0.3386
  713TIP3    H1 2103   6.534   5.036   2.223  0.1079  0.3619  1.2141
  713TIP3    H2 2104   6.558   4.946   2.103 -2.0963  1.2876  0.0206
  714TIP3   OH2 2105   3.082   3.252   5.190 -0.2090  0.7450 -0.4825
  714TIP3    H1 2106   3.055   3.272   5.280 -1.7193  0.2051 -0.7740
  714TIP3    H2 2107   3.176   3.268   5.188 -0.0242  0.1041  1.3831
  715TIP3   OH2 2108   5.089   2.237   1.599  0.3486 -0.2427 -0.3507
  715TIP3    H1 2109   5.114   2.159   1.647 -2.4323 -1.3576 -0.4998
  715TIP3    H2 2110   5.044   2.292   1.664 -0.4688 -0.2357 -0.8993
  716TIP3   OH2 2111   1.399   4.441   5.849 -0.5627 -0.2644 -0.4256
  716TIP3    H1 2112   1.368   4.397   5.770  0.7624  0.5512 -1.4655
  716TIP3    H2 2113   1.398   4.534   5.825  0.5074 -0.0603  0.2613
  717TIP3   OH2 2114   6.607   6.464   5.285  0.3593  0.4236 -0.1750
  717TIP3    H1 2115   6.624   6.553   5.317 -0.4584 -0.2275  2.3476
  717TIP3    H2 2116   6.693   6.428   5.265  0.8765  1.1530  0.6738
  718TIP3   OH2 2117   5.629   5.642   1.430 -0.0162  0.6160 -0.0120
  718TIP3    H1 2118   5.623   5.687   1.346  0.6457  0.8388  0.0520
  718TIP3    H2 2119   5.547   5.662   1.475 -0.3347  0.5623 -0.5724
  719TIP3   OH2 2120   5.014   5.662   2.660  0.4685  0.5861 -0.2429
  719TIP3    H1 2121   4.936   5.673   2.606  0.3234  2.3447  0.2594
  719TIP3    H2 2122   4.986   5.688   2.748  1.2873 -0.0541  0.2189
  720TIP3   OH2 2123   2.351   6.388   4.188 -0.3852 -0.2392 -0.0006
  720TIP3    H1 2124   2.312   6.473   4.207 -2.2084 -0.5895 -1.9025
  720TIP3    H2 2125   2.277   6.328   4.182  0.8660 -2.0359  1.3905
  721TIP3   OH2 2126   3.700   5.461   3.761 -0.6345  0.7404  0.3844
  721TIP3    H1 2127   3.755   5.486   3.835  1.2557  1.5262 -1.2002
  721TIP3    H2 2128   3.633   5.404   3.799  0.8401  0.3207  2.5192
  722TIP3   OH2 2129   6.425   5.500   2.364 -0.1046  0.5339 -0.2418
  722TIP3    H1 2130   6.443   5.412   2.332 -1.5473  0.1770 -0.1428
  722TIP3    H2 2131   6.472   5.505   2.448 -1.4916 -0.8362  0.6736
  723TIP3   OH2 2132   2.845   5.040   3.239  0.3295  0.1001  0.0655
  723TIP3    H1 2133   2.928   5.087   3.232  0.3772  0.4154  2.2902
  723TIP3    H2 2134   2.788   5.099   3.289 -0.6724 -0.8651  0.1038
  724TIP3   OH2 2135   3.686   4.177   5.686  0.4763 -0.3742 -0.1543
  724TIP3    H1 2136   3.659   4.097   5.731 -0.0765  0.1023  0.3678
  724TIP3    H2 2137   3.774   4.157   5.653  1.6917 -0.1351  2.6746
  725TIP3   OH2 2138   2.330   4.425   0.921  0.0831 -0.0340  0.0421
  725TIP3    H1 2139   2.292   4.463   0.841 -1.7036 -0.7682  0.4812
  725TIP3    H2 2140   2.300   4.334   0.920 -2.1577  0.5395  2.7371
  726TIP3   OH2 2141   5.845   2.334   1.826  0.2188 -0.1484 -0.7280
  726TIP3    H1 2142   5.750   2.330   1.829  0.2736 -2.0156  1.4076
  726TIP3    H2 2143   5.868   2.301   1.739 -1.0562  2.1876 -2.0447
  727TIP3   OH2 2144   2.395   4.520   0.078 -0.0462  0.0270 -0.0562
  727TIP3    H1 2145   2.491   4.515   0.078 -0.0586 -0.2059  0.0518
  727TIP3    H2 2146   2.376   4.606   0.041  0.1855 -0.3313 -1.0335
  728TIP3   OH2 2147   0.094   0.592   4.409 -0.0978  0.0439 -0.4518
  728TIP3    H1 2148   0.061   0.504   4.389  0.7110 -0.3642 -0.0448
  728TIP3    H2 2149   0.182   0.577   4.442 -0.0290  1.0013 -0.1829
  729TIP3   OH2 2150   6.757   5.746   0.989 -0.0335  0.5632  0.1186
  729TIP3    H1 2151   6.801   5.813   1.042  1.0924  0.5462 -0.7576
  729TIP3    H2 2152   6.815   5.732   0.915 -0.7881 -0.6047 -0.2842
  730TIP3   OH2 2153   2.330   0.979   2.946 -0.6116 -0.2885 -0.2971
  730TIP3    H1 2154   2.266   1.044   2.976 -0.5219 -0.9605  1.4799
  730TIP3    H2 2155   2.368   1.018   2.868 -1.8417  0.9783 -0.3175
  731TIP3   OH2 2156   2.492   2.845   3.716 -0.1660 -0.0965 -0.2679
  731TIP3    H1 2157   2.418   2.795   3.683 -0.4441  1.0062 -1.4078
  731TIP3    H2 2158   2.454   2.930   3.741  0.7614  0.6820 -1.3740
  732TIP3   OH2 2159   1.263   3.887   4.852 -0.0527  0.1297 -0.0277
  732TIP3    H1 2160   1.324   3.847   4.789 -1.0948 -0.5349 -0.6492
  732TIP3    H2 2161   1.302   3.972   4.872  1.1315 -0.3228 -0.3156
  733TIP3   OH2 2162   1.598   6.355   3.032 -0.2316 -0.1832 -0.2500
  733TIP3    H1 2163   1.642   6.286   2.982 -1.3019 -0.8856 -0.2625
  733TIP3    H2 2164   1.610   6.329   3.124  2.4098  1.5179 -0.0191
  734TIP3   OH2 2165   2.780   3.835   5.403 -0.0919  0.2002 -0.4543
  734TIP3    H1 2166   2.719   3.890   5.354 -1.6596 -0.5416  0.6029
  734TIP3    H2 2167   2.751   3.842   5.494  0.7566 -0.9958 -0.0668
  735TIP3   OH2 2168   4.944   1.988   5.677 -0.2866  0.5583 -0.3283
  735TIP3    H1 2169   4.896   1.928   5.620 -0.2528 -0.9462  1.1534
  735TIP3    H2 2170   4.889   1.998   5.754  0.8433  0.3795  0.5368
  736TIP3   OH2 2171   4.824   3.405   1.311 -0.8244  0.0135 -0.5903
  736TIP3    H1 2172   4.883   3.369   1.245  0.1964  0.6072 -0.0178
  736TIP3    H2 2173   4.801   3.330   1.366  0.0886 -0.0596 -0.2974
  737TIP3   OH2 2174   4.224   0.628   5.228  0.7683  0.6329  0.2072
  737TIP3    H1 2175   4.132   0.647   5.243  0.8239  1.3400 -0.2661
  737TIP3    H2 2176   4.271   0.696   5.279  1.0959 -0.9476  2.1426
  738TIP3   OH2 2177   3.748   4.081   2.209 -0.2611 -0.1557 -0.0420
  738TIP3    H1 2178   3.773   4.163   2.167  1.0125 -0.5077 -0.0081
  738TIP3    H2 2179   3.700   4.108   2.287 -0.1951  0.5510 -0.2401
  739TIP3   OH2 2180   4.861   0.389   1.173 -0.1433 -0.7102 -0.2254
  739TIP3    H1 2181   4.848   0.442   1.251 -0.8069 -0.6974 -0.3371
  739TIP3    H2 2182   4.788   0.413   1.115  1.7171  1.2047 -1.9412
  740TIP3   OH2 2183   2.025   6.693   0.677  0.2097  0.1125 -0.5070
  740TIP3    H1 2184   2.032   6.714   0.584 -1.5858 -1.3522 -1.0277
  740TIP3    H2 2185   2.086   6.753   0.720  1.5510  0.3983 -2.6725
  741TIP3   OH2 2186   6.374   4.486   1.859  0.4802 -0.0014 -0.2795
  741TIP3    H1 2187   6.324   4.428   1.801 -0.0524 -0.1221  0.2956
  741TIP3    H2 2188   6.428   4.427   1.911  1.8870  0.1628 -1.4689
  742TIP3   OH2 2189   0.940   2.860   0.937  0.5816 -0.2046  0.9417
  742TIP3    H1 2190   0.980   2.946   0.949  0.1192  0.1575  0.0210
  742TIP3    H2 2191   0.846   2.877   0.938  0.4572 -0.2999 -1.4983
  743TIP3   OH2 2192   4.335   4.575   5.041  0.4565  0.0939  0.1335
  743TIP3    H1 2193   4.253   4.614   5.009  0.3263  0.0927  0.4584
  743TIP3    H2 2194   4.403   4.636   5.012  0.3131  0.2436  0.1087
  744TIP3   OH2 2195   2.494   3.101   0.081 -0.4716 -0.2120  0.2135
  744TIP3    H1 2196   2.486   3.119  -0.013  1.6837 -0.3464 -0.0345
  744TIP3    H2 2197   2.412   3.057   0.103 -0.1352 -2.2423 -2.1398
  745TIP3   OH2 2198   3.123   0.223   1.752  0.3650 -0.0358 -0.0752
  745TIP3    H1 2199   3.031   0.216   1.780 -0.0316  2.7428 -0.3694
  745TIP3    H2 2200   3.122   0.199   1.660 -0.0754 -0.0108 -0.0788
  746TIP3   OH2 2201   3.499   3.386   3.006 -0.7836 -0.0927 -0.1043
  746TIP3    H1 2202   3.546   3.469   2.997 -0.3442 -0.4044 -0.7386
  746TIP3    H2 2203   3.412   3.404   2.971 -0.1869 -0.3244 -1.8125
  747TIP3   OH2 2204   2.330   6.497   0.569  0.1218 -0.0254 -0.6635
  747TIP3    H1 2205   2.376   6.475   0.488  0.4309  0.7653 -0.7083
  747TIP3    H2 2206   2.238   6.486   0.548  0.1721  0.6655 -1.2815
  748TIP3   OH2 2207   6.474   1.806   1.729 -0.5338 -0.1426  0.2596
  748TIP3    H1 2208   6.514   1.855   1.801  0.1772  0.7075 -0.6838
  748TIP3    H2 2209   6.384   1.837   1.727 -1.0556 -1.4145  1.8340
  749TIP3   OH2 2210   3.950   3.622   2.281 -0.3253  0.1061  0.4361
  749TIP3    H1 2211   3.887   3.596   2.215  0.0008 -2.0728  0.8912
  749TIP3    H2 2212   3.975   3.711   2.257 -0.7377 -0.3459 -1.9584
  750TIP3   OH2 2213   2.709   4.176   3.280  0.5376  0.0749 -0.1815
  750TIP3    H1 2214   2.680   4.258   3.321 -1.9030  0.0756 -1.6734
  750TIP3    H2 2215   2.632   4.145   3.233  2.2739 -1.5332 -2.1446
  751TIP3   OH2 2216   4.088   5.110   4.323  0.1682  0.5793  0.4254
  751TIP3    H1 2217   4.038   5.162   4.385  0.8179  1.8015 -0.0548
  751TIP3    H2 2218   4.170   5.089   4.368  0.1805  0.5365  0.3837
  752TIP3   OH2 2219   5.530   4.524   2.032  0.1386 -0.4400  0.6644
  752TIP3    H1 2220   5.455   4.536   2.090 -1.0846 -0.2418 -0.8909
  752TIP3    H2 2221   5.535   4.429   2.020 -0.1590 -0.4263  0.4137
  753TIP3   OH2 2222   1.244   6.510   0.725 -0.4576 -0.3344 -0.3684
  753TIP3    H1 2223   1.288   6.501   0.810 -0.8854 -2.2472 -0.3085
  753TIP3    H2 2224   1.239   6.421   0.691  1.3200  0.5551 -3.2849
  754TIP3   OH2 2225   1.518   4.053   3.856  0.1745 -0.1564 -0.5145
  754TIP3    H1 2226   1.485   3.978   3.905 -1.1839  0.7924  0.0967
  754TIP3    H2 2227   1.541   4.017   3.770  1.3889 -1.6042  0.3604
  755TIP3   OH2 2228   2.598   1.974   2.217  0.1563 -0.8072 -0.3394
  755TIP3    H1 2229   2.531   1.943   2.156 -0.6027  1.4655 -0.7518
  755TIP3    H2 2230   2.614   2.064   2.191  0.2961  0.0444  2.4253
  756TIP3   OH2 2231   6.135   0.211   2.438  0.0264  0.3958  0.3169
  756TIP3    H1 2232   6.177   0.125   2.438 -0.4349  0.1252 -1.3241
  756TIP3    H2 2233   6.071   0.208   2.508 -0.6610 -0.9679 -0.3495
  757TIP3   OH2 2234   0.954   4.299   2.781  0.0594 -0.3105  0.3194
  757TIP3    H1 2235   0.996   4.315   2.865 -2.2653  0.5523  1.4037
  757TIP3    H2 2236   0.868   4.341   2.789 -2.0231 -3.9622 -0.8195
  758TIP3   OH2 2237   5.838   0.441   0.488  0.0170  0.4178 -0.1440
  758TIP3    H1 2238   5.916   0.425   0.433  0.1578  1.1415 -0.1661
  758TIP3    H2 2239   5.837   0.535   0.501 -1.7097  0.6196 -1.3966
  759TIP3   OH2 2240   1.369   3.661   4.210 -0.3366  0.0636  0.2626
  759TIP3    H1 2241   1.316   3.599   4.260  0.9165 -0.2612  1.2270
  759TIP3    H2 2242   1.459   3.630   4.221  0.0259  0.2218 -1.8657
  760TIP3   OH2 2243   0.677   1.907   3.655  0.1164 -0.0488  0.2483
  760TIP3    H1 2244   0.588   1.924   3.626  1.2892  1.4219 -3.0447
  760TIP3    H2 2245   0.724   1.879   3.576  2.9162  0.7687  1.4669
  761TIP3   OH2 2246   5.408   0.348   2.051 -0.2227 -0.0610  0.1355
  761TIP3    H1 2247   5.489   0.331   2.099 -0.7132 -0.2868  0.8873
  761TIP3    H2 2248   5.376   0.431   2.085  1.2904  1.6999 -2.3552
  762TIP3   OH2 2249   1.382   4.434   3.713 -0.0312  0.3813  0.1897
  762TIP3    H1 2250   1.466   4.387   3.718 -0.3974 -0.3195 -0.0382
  762TIP3    H2 2251   1.370   4.471   3.800  0.8397  1.0788  0.0317
  763TIP3   OH2 2252   5.634   3.745   2.466 -0.2839  0.2329 -0.0353
  763TIP3    H1 2253   5.669   3.758   2.555 -0.4034  1.6716 -0.1836
  763TIP3    H2 2254   5.576   3.819   2.452 -0.6874 -0.2753 -1.1270
  764TIP3   OH2 2255   6.601   2.771   3.598 -0.5569  0.6104 -0.0815
  764TIP3    H1 2256   6.689   2.806   3.611 -0.0957 -1.0351  1.5671
  764TIP3    H2 2257   6.554   2.842   3.553  2.0917  0.8024 -2.8613
  765TIP3   OH2 2258   1.240   1.458   2.644  0.1944 -0.2555  0.1626
  765TIP3    H1 2259   1.265   1.547   2.616 -0.2089  0.0700  0.8056
  765TIP3    H2 2260   1.179   1.473   2.716  0.2985 -1.0680  0.4173
  766TIP3   OH2 2261   6.619   5.749   3.700 -0.0435 -0.4233  0.3860
  766TIP3    H1 2262   6.530   5.717   3.686 -1.1763  3.1883 -1.7413
  766TIP3    H2 2263   6.673   5.696   3.641 -1.8297  1.2449 -3.0222
  767TIP3   OH2 2264   0.515   3.052   2.829 -0.2598 -0.2865  0.1983
  767TIP3    H1 2265   0.503   3.107   2.752  2.1129 -0.7823 -0.6369
  767TIP3    H2 2266   0.578   3.100   2.883  2.5782 -2.3629 -0.9686
  768TIP3   OH2 2267   5.314   5.576   2.243 -0.2720 -0.1151  0.3796
  768TIP3    H1 2268   5.374   5.518   2.291  1.2548  0.3610 -0.8615
  768TIP3    H2 2269   5.331   5.663   2.279 -0.2119  0.0169  0.0346
  769TIP3   OH2 2270   6.312   2.480   1.334  0.0253 -0.2254  0.2402
  769TIP3    H1 2271   6.265   2.540   1.392  3.1917  0.5254  2.2568
  769TIP3    H2 2272   6.333   2.532   1.257 -1.1678 -0.1840 -0.0809
  770TIP3   OH2 2273   4.211   6.208   2.215 -0.4048  0.3996  0.3830
  770TIP3    H1 2274   4.153   6.229   2.142  0.3271  1.3623  0.0590
  770TIP3    H2 2275   4.298   6.232   2.184  0.1876 -1.0813  0.8364
  771TIP3   OH2 2276   3.960   1.657   3.807  0.1194  0.6997 -0.0046
  771TIP3    H1 2277   3.965   1.603   3.728 -0.7790 -1.0145  1.0453
  771TIP3    H2 2278   4.033   1.629   3.861  0.1894  1.2049  0.1696
  772TIP3   OH2 2279   6.031   4.826   2.215 -0.1741 -0.7056  0.1276
  772TIP3    H1 2280   5.990   4.742   2.233 -0.7033 -0.3459  0.6340
  772TIP3    H2 2281   6.018   4.841   2.121  0.2916 -1.3789 -0.0490
  773TIP3   OH2 2282   5.798   5.208   3.279  0.3234  0.0146  0.0478
  773TIP3    H1 2283   5.714   5.172   3.308 -0.9950  1.1913 -2.0731
  773TIP3    H2 2284   5.796   5.200   3.184  1.4286  2.4785 -0.2590
  774TIP3   OH2 2285   4.875   1.157   2.833 -0.4289  0.6744 -0.4044
  774TIP3    H1 2286   4.866   1.248   2.860  1.8955  0.5517  1.1739
  774TIP3    H2 2287   4.814   1.109   2.889  0.4982  1.0034  0.9370
  775TIP3   OH2 2288   6.573   4.023   1.174 -0.0148  0.4915 -0.3816
  775TIP3    H1 2289   6.559   3.975   1.093  1.3901  2.0903 -1.6442
  775TIP3    H2 2290   6.663   4.005   1.198 -0.1962  0.6308  0.4280
  776TIP3   OH2 2291   5.018   3.336   5.249 -0.1931  0.3610  0.6140
  776TIP3    H1 2292   4.987   3.388   5.175  0.3572 -0.6808 -0.3708
  776TIP3    H2 2293   4.957   3.356   5.320 -1.5537  0.3446 -0.5233
  777TIP3   OH2 2294   5.462   4.621   3.154 -0.6511  0.2458  0.0843
  777TIP3    H1 2295   5.418   4.675   3.089 -1.5422  1.1746  1.4121
  777TIP3    H2 2296   5.431   4.655   3.238 -0.5986 -1.8047  0.9772
  778TIP3   OH2 2297   1.481   4.824   2.108 -0.0687 -0.1710  0.0793
  778TIP3    H1 2298   1.414   4.756   2.122  0.5880 -0.4859  2.1778
  778TIP3    H2 2299   1.437   4.906   2.131 -0.4472 -0.0394 -1.0582
  779TIP3   OH2 2300   4.954   5.053   2.369 -0.2056 -0.2611 -0.0995
  779TIP3    H1 2301   4.904   5.116   2.318  0.2553  1.4457  1.4637
  779TIP3    H2 2302   5.009   5.008   2.305 -0.3753  1.0924 -1.2369
  780TIP3   OH2 2303   5.769   1.699   4.557 -0.2182  0.2887 -0.5380
  780TIP3    H1 2304   5.861   1.673   4.565 -0.1295  0.5538 -0.6590
  780TIP3    H2 2305   5.756   1.711   4.462 -0.4917 -0.1516 -0.5556
  781TIP3   OH2 2306   4.702   5.053   1.304 -0.2501 -0.2940  0.1195
  781TIP3    H1 2307   4.613   5.047   1.337 -0.0970  0.7419  0.7683
  781TIP3    H2 2308   4.707   4.987   1.234 -2.1184  0.9054 -1.2382
  782TIP3   OH2 2309   2.203   4.641   4.626 -0.1032  0.6038 -0.2198
  782TIP3    H1 2310   2.205   4.548   4.648 -0.1194  0.5327 -0.5228
  782TIP3    H2 2311   2.195   4.685   4.711  0.2258  0.3424 -0.0506
  783TIP3   OH2 2312   3.907   3.676   3.815  0.3573 -0.1013 -0.3516
  783TIP3    H1 2313   3.835   3.725   3.856 -0.3987 -0.3778 -1.2904
  783TIP3    H2 2314   3.913   3.595   3.867 -0.8392 -0.6182 -0.9666
  784TIP3   OH2 2315   2.954   3.426   1.104 -0.1924  0.0560 -1.1618
  784TIP3    H1 2316   2.999   3.363   1.160 -0.4515  0.8411 -0.0381
  784TIP3    H2 2317   3.023   3.488   1.079  0.1375 -0.8196 -2.5423
  785TIP3   OH2 2318   6.117   6.455   4.232 -0.0519 -0.2244  0.0717
  785TIP3    H1 2319   6.190   6.503   4.270  0.1722 -0.6733  0.2180
  785TIP3    H2 2320   6.156   6.408   4.157  0.0071 -1.1432  0.6599
  786TIP3   OH2 2321   3.083   4.163   0.925  0.1850 -0.4908 -0.1573
  786TIP3    H1 2322   2.998   4.143   0.963 -0.2249  0.9882 -0.2457
  786TIP3    H2 2323   3.064   4.193   0.836  0.2993  3.7557  1.0575
  787TIP3   OH2 2324   4.471   2.231   0.939  0.3813  0.3613 -0.3119
  787TIP3    H1 2325   4.407   2.170   0.976  0.8737  0.4098  0.6473
  787TIP3    H2 2326   4.490   2.195   0.852  1.3334 -1.4079  0.5545
  788TIP3   OH2 2327   0.137   5.144   2.924  0.0709  0.2478  0.2787
  788TIP3    H1 2328   0.186   5.145   2.841  0.2864 -0.5421  0.3939
  788TIP3    H2 2329   0.045   5.145   2.897  0.1211  1.8414  0.0621
  789TIP3   OH2 2330   2.011   4.540   5.340  0.3121 -0.5043 -0.4849
  789TIP3    H1 2331   2.107   4.538   5.343  0.3274 -1.1695 -1.0661
  789TIP3    H2 2332   1.991   4.599   5.268  0.2270  1.4936  1.0921
  790TIP3   OH2 2333   5.496   5.992   3.418 -0.3396  0.0653 -0.1003
  790TIP3    H1 2334   5.469   5.996   3.326 -0.8878  0.6745  0.0807
  790TIP3    H2 2335   5.526   6.080   3.438 -1.7236  0.3826  0.7372
  791TIP3   OH2 2336   1.741   5.682   5.517  0.0693 -0.2522  0.4966
  791TIP3    H1 2337   1.675   5.718   5.575 -0.8753 -1.8569  0.4793
  791TIP3    H2 2338   1.736   5.587   5.530  1.8960 -0.4655 -0.0168
  792TIP3   OH2 2339   4.059   4.111   1.721 -0.4120 -0.0640  0.5408
  792TIP3    H1 2340   4.009   4.177   1.673 -0.7012  0.4064  1.4637
  792TIP3    H2 2341   4.101   4.059   1.653  0.6674  1.6904 -0.2259
  793TIP3   OH2 2342   1.702   0.299   3.118  0.0695 -0.1075 -0.0625
  793TIP3    H1 2343   1.789   0.332   3.098  0.2555 -0.0675  0.7629
  793TIP3    H2 2344   1.709   0.265   3.207 -0.9044  0.4678  0.2603
  794TIP3   OH2 2345   1.133   4.221   3.440  0.4273 -0.3907 -0.1629
  794TIP3    H1 2346   1.179   4.159   3.497  1.9691  0.6398 -0.2221
  794TIP3    H2 2347   1.070   4.264   3.498 -0.6732 -1.9628 -0.1206
  795TIP3   OH2 2348   5.863   2.297   4.725 -0.3644 -0.2503  0.5383
  795TIP3    H1 2349   5.783   2.341   4.754 -0.8382 -0.7295 -0.0288
  795TIP3    H2 2350   5.892   2.347   4.648 -0.1915 -0.1622  0.6591
  796TIP3   OH2 2351   6.370   0.316   5.451  0.2197 -0.0754  0.0627
  796TIP3    H1 2352   6.346   0.315   5.358 -0.5138  2.7013  0.1246
  796TIP3    H2 2353   6.438   0.383   5.458  0.7181 -0.6783  1.4558
  797TIP3   OH2 2354   2.206   0.739   2.893 -0.0561 -0.1992 -0.4420
  797TIP3    H1 2355   2.273   0.805   2.907  0.1867 -0.8650  1.7827
  797TIP3    H2 2356   2.123   0.788   2.897  0.1206 -0.0006  1.1876
  798TIP3   OH2 2357   3.580   4.095   2.863  0.1856  0.2881 -0.3250
  798TIP3    H1 2358   3.594   4.187   2.842  1.1185  0.4143  0.7355
  798TIP3    H2 2359   3.515   4.096   2.933  0.4643  0.1865 -0.0570
  799TIP3   OH2 2360   6.540   5.357   0.151  0.1942  0.0157 -0.0121
  799TIP3    H1 2361   6.634   5.358   0.131  0.0313 -1.4079 -0.9789
  799TIP3    H2 2362   6.521   5.266   0.174 -0.5784  0.6745  2.2225
  800TIP3   OH2 2363   2.942   1.287   1.622  0.1763 -0.1016  0.1927
  800TIP3    H1 2364   2.921   1.235   1.545 -0.3885 -0.1673  0.3849
  800TIP3    H2 2365   2.956   1.223   1.692  0.8672 -0.0513  0.1086
  801TIP3   OH2 2366   3.539   2.935   4.549 -0.4838  0.4469 -0.4917
  801TIP3    H1 2367   3.589   2.914   4.627 -0.9337  5.7166  1.6019
  801TIP3    H2 2368   3.467   2.872   4.549  1.4063 -1.8696  1.2931
  802TIP3   OH2 2369   5.487   3.738   3.533 -0.2967  0.1993 -0.4801
  802TIP3    H1 2370   5.514   3.658   3.578  0.0469  1.1291  1.0619
  802TIP3    H2 2371   5.552   3.749   3.463 -1.1355 -1.5539 -1.6088
  803TIP3   OH2 2372   4.162   5.537   3.013  0.4885 -0.1049  0.2241
  803TIP3    H1 2373   4.122   5.544   2.926 -1.2761 -2.4558  0.7081
  803TIP3    H2 2374   4.231   5.472   3.003  1.6484  1.0912  0.2113
  804TIP3   OH2 2375   0.070   2.789   0.568  0.3041 -0.0134 -0.1352
  804TIP3    H1 2376   0.152   2.784   0.618  0.5594 -1.8500 -0.6858
  804TIP3    H2 2377   0.095   2.834   0.487  0.1171  2.0117  0.8792
  805TIP3   OH2 2378   5.189   1.133   4.646 -0.0091 -0.0897 -0.0492
  805TIP3    H1 2379   5.132   1.193   4.694  2.1362  1.1804  1.0653
  805TIP3    H2 2380   5.270   1.182   4.634  0.9456 -1.8810 -1.4056
  806TIP3   OH2 2381   1.370   5.764   5.731  0.7376 -0.2847 -0.6097
  806TIP3    H1 2382   1.463   5.741   5.739  0.7072 -0.1886  0.1338
  806TIP3    H2 2383   1.341   5.776   5.822  0.7555  2.7086 -0.9292
  807TIP3   OH2 2384   5.298   3.545   3.875 -0.4430  0.1412 -0.2237
  807TIP3    H1 2385   5.312   3.627   3.828 -2.5664  1.3688  1.1566
  807TIP3    H2 2386   5.366   3.544   3.943  0.0283  0.3786 -0.6828
  808TIP3   OH2 2387   7.118   4.936   0.772  0.8211  0.2202  0.3020
  808TIP3    H1 2388   7.187   4.918   0.836 -1.0796 -2.3415  1.8395
  808TIP3    H2 2389   7.047   4.973   0.825  0.3340  1.1171 -0.9346
  809TIP3   OH2 2390   1.078   5.060   0.093  0.0132  0.3957  0.2911
  809TIP3    H1 2391   1.012   4.991   0.103  1.7495 -1.0583  2.7278
  809TIP3    H2 2392   1.082   5.102   0.179  0.1999  2.5018 -0.6826
  810TIP3   OH2 2393   5.772   0.867   1.904  0.2237 -0.1732  0.4268
  810TIP3    H1 2394   5.829   0.938   1.934 -1.8221  1.6948  0.0951
  810TIP3    H2 2395   5.714   0.850   1.979  0.0690 -0.8646  0.1614
  811TIP3   OH2 2396   2.181   3.018   4.752  0.6152  0.0173 -0.3538
  811TIP3    H1 2397   2.101   3.051   4.793  0.9440  1.0674 -0.5373
  811TIP3    H2 2398   2.181   2.924   4.772  0.3095  0.3421  1.2819
  812TIP3   OH2 2399   3.466   2.480   4.018 -0.0550  0.5490  0.4719
  812TIP3    H1 2400   3.393   2.519   3.971 -1.0653 -0.3179  1.2400
  812TIP3    H2 2401   3.426   2.406   4.065  1.4867 -0.4698  0.2333
  813TIP3   OH2 2402   2.543   4.233   4.803  0.2409 -0.2397  0.1256
  813TIP3    H1 2403   2.599   4.186   4.742  0.1342 -2.4371  1.6004
  813TIP3    H2 2404   2.464   4.179   4.810  0.1950  0.0030  2.0814
  814TIP3   OH2 2405   7.141   1.329   4.320  0.3879 -0.9364 -0.4371
  814TIP3    H1 2406   7.066   1.317   4.261 -0.1691  2.3819 -0.5996
  814TIP3    H2 2407   7.104   1.322   4.408  0.2778 -1.2759 -0.5114
  815TIP3   OH2 2408   4.694   0.912   1.985  0.6749 -0.0897 -0.0499
  815TIP3    H1 2409   4.707   0.884   2.076  0.5155  1.2785  0.4066
  815TIP3    H2 2410   4.703   1.007   1.987  1.7500 -0.1158 -1.6601
  816TIP3   OH2 2411   1.295   0.632   1.581 -0.0212 -0.5642 -0.1963
  816TIP3    H1 2412   1.350   0.685   1.523 -1.5650 -1.1446 -2.3365
  816TIP3    H2 2413   1.252   0.696   1.638  1.5604  0.0227  0.3904
  817TIP3   OH2 2414   3.335   2.084   1.360 -0.6000  0.6704  0.3460
  817TIP3    H1 2415   3.344   1.990   1.350 -2.4491  0.4990  0.0018
  817TIP3    H2 2416   3.275   2.111   1.291 -2.6982  1.5698  2.3818
  818TIP3   OH2 2417   6.991   4.232   1.644  0.2086 -0.6034  0.1853
  818TIP3    H1 2418   6.982   4.221   1.550  0.1733  0.9739 -0.0153
  818TIP3    H2 2419   7.081   4.262   1.656  0.7654 -2.3441  0.8418
  819TIP3   OH2 2420   6.769   5.008   3.777 -0.2386  0.7767  0.3042
  819TIP3    H1 2421   6.696   5.046   3.827 -1.7222  0.2783 -1.3618
  819TIP3    H2 2422   6.761   4.914   3.790  0.7307  0.7664  0.8933
  820TIP3   OH2 2423   3.471   3.309   2.559 -0.1648 -0.1141 -0.1506
  820TIP3    H1 2424   3.548   3.276   2.606 -0.4631 -1.9994 -0.9008
  820TIP3    H2 2425   3.484   3.404   2.555  1.5871 -0.2859  0.6652
  821TIP3   OH2 2426   2.137   1.814   2.537 -0.6038 -0.0068  0.5445
  821TIP3    H1 2427   2.167   1.754   2.469  0.8366  3.2116 -1.9164
  821TIP3    H2 2428   2.041   1.808   2.533 -0.5783  0.1398 -1.9369
  822TIP3   OH2 2429   4.824   4.787   4.648  0.5277  0.2053  0.5227
  822TIP3    H1 2430   4.906   4.762   4.606 -0.3170  0.1642 -1.1905
  822TIP3    H2 2431   4.789   4.857   4.592 -1.1239 -0.5397  0.5728
  823TIP3   OH2 2432   2.566   2.460   1.286 -0.3362 -0.1281 -0.1723
  823TIP3    H1 2433   2.472   2.439   1.288 -0.8183  1.8364 -0.6646
  823TIP3    H2 2434   2.585   2.494   1.373 -0.2846  0.3263 -0.3621
  824TIP3   OH2 2435   5.297   0.531   2.670 -0.3392 -0.1011  0.0985
  824TIP3    H1 2436   5.282   0.471   2.743  0.5981  1.5931  1.8032
  824TIP3    H2 2437   5.314   0.475   2.595  1.2083 -1.9916  1.7406
  825TIP3   OH2 2438   5.755   0.678   4.054  0.4959 -0.3333  0.0515
  825TIP3    H1 2439   5.766   0.770   4.032 -0.1532  1.0600  4.6117
  825TIP3    H2 2440   5.818   0.662   4.125 -0.4603 -2.9758  0.4381
  826TIP3   OH2 2441   2.039   5.153   3.900 -0.2515  0.0965 -0.3786
  826TIP3    H1 2442   2.069   5.071   3.862 -0.7065  0.2378 -1.0676
  826TIP3    H2 2443   2.043   5.216   3.827 -1.0756  0.3897 -0.1835
  827TIP3   OH2 2444   2.112   4.502   4.159 -0.0249  0.1941  0.0802
  827TIP3    H1 2445   2.017   4.489   4.156  0.1133 -0.7203 -1.8409
  827TIP3    H2 2446   2.148   4.418   4.130  1.4390  0.1499  1.8373
  828TIP3   OH2 2447   2.231   5.465   3.126 -0.2507 -0.0095 -0.2729
  828TIP3    H1 2448   2.144   5.426   3.121  0.2322 -1.2722  0.7321
  828TIP3    H2 2449   2.278   5.431   3.050 -0.8170  1.2300 -1.2149
  829TIP3   OH2 2450   5.476   6.785   4.481  0.0358  0.0091 -0.0579
  829TIP3    H1 2451   5.451   6.700   4.516 -0.4036  0.5306  0.9588
  829TIP3    H2 2452   5.430   6.848   4.537  1.2562  0.9414 -0.0521
  830TIP3   OH2 2453   5.210   4.755   3.732 -0.1025 -0.0044 -0.0029
  830TIP3    H1 2454   5.226   4.833   3.785  0.4704  0.2032 -0.4760
  830TIP3    H2 2455   5.117   4.760   3.711 -1.1980 -1.7435  3.5946
  831TIP3   OH2 2456   5.817   0.859   2.352 -0.1567 -0.3476 -0.2372
  831TIP3    H1 2457   5.852   0.948   2.344 -0.8330  0.0693  1.1023
  831TIP3    H2 2458   5.885   0.810   2.399 -1.3882  0.5716  2.7547
  832TIP3   OH2 2459   6.772   0.275   3.940  0.1873 -0.4334 -0.1923
  832TIP3    H1 2460   6.855   0.294   3.896  0.3421 -1.1119 -0.1999
  832TIP3    H2 2461   6.706   0.321   3.887  0.6137  0.6145  0.1632
  833TIP3   OH2 2462   4.944   4.127   0.854 -0.3038 -0.6395 -0.7577
  833TIP3    H1 2463   4.942   4.208   0.803 -2.4774 -0.9053 -1.2144
  833TIP3    H2 2464   4.882   4.069   0.809 -1.0560 -1.4791  1.2282
  834TIP3   OH2 2465   5.067   3.690   3.889  0.6209  0.5261  0.1393
  834TIP3    H1 2466   5.106   3.607   3.861 -0.8503 -1.1608  2.7292
  834TIP3    H2 2467   5.140   3.753   3.883  2.1931 -1.2437 -0.4537
  835TIP3   OH2 2468   2.541   4.944   4.773 -0.0571 -0.2174  0.0711
  835TIP3    H1 2469   2.582   4.884   4.711  3.0803 -1.7699  3.3598
  835TIP3    H2 2470   2.610   5.005   4.797 -1.8591  1.8202  0.4163
  836TIP3   OH2 2471   1.060   1.024   5.140 -0.1529 -0.2118 -0.1778
  836TIP3    H1 2472   1.060   0.947   5.197 -1.3216  0.3608  0.6196
  836TIP3    H2 2473   1.060   0.988   5.052  0.9583 -1.1142  0.1658
  837TIP3   OH2 2474   5.784   0.308   5.740  0.0435  0.5597 -0.0057
  837TIP3    H1 2475   5.826   0.298   5.825 -0.6102  0.7626  0.3499
  837TIP3    H2 2476   5.819   0.237   5.687  0.4761  0.4506  0.4257
  838TIP3   OH2 2477   3.662   3.048   5.430  0.1630  0.3341 -0.1387
  838TIP3    H1 2478   3.611   3.128   5.419  1.1910  1.1949  1.0409
  838TIP3    H2 2479   3.752   3.078   5.439  1.0246 -1.1721 -2.6771
  839TIP3   OH2 2480   6.274   2.090   3.341  0.2744 -0.5466 -0.1529
  839TIP3    H1 2481   6.341   2.124   3.401 -0.4290 -0.0134  0.3431
  839TIP3    H2 2482   6.233   2.018   3.390 -1.2275  0.7631  0.5926
  840TIP3   OH2 2483   1.692   2.920   3.841  0.2956  0.1330  0.3118
  840TIP3    H1 2484   1.757   2.874   3.894  0.9320  1.1703  0.4539
  840TIP3    H2 2485   1.633   2.851   3.810  2.1595 -1.0286 -0.8465
  841TIP3   OH2 2486   0.214   3.602   1.557 -0.2834 -0.3829 -0.4891
  841TIP3    H1 2487   0.209   3.640   1.469  1.1623  0.9314 -0.0438
  841TIP3    H2 2488   0.175   3.668   1.614  1.9412  0.3811  0.2510
  842TIP3   OH2 2489   0.393   6.247   3.152  0.3621  0.2586 -0.2036
  842TIP3    H1 2490   0.366   6.266   3.063 -1.3395  1.5068  0.5241
  842TIP3    H2 2491   0.488   6.254   3.151  0.5343 -1.3279 -2.2320
  843TIP3   OH2 2492   2.312   0.006   3.611 -0.3114  0.3297 -0.2936
  843TIP3    H1 2493   2.328  -0.001   3.517 -1.1119 -0.5685 -0.3721
  843TIP3    H2 2494   2.260   0.086   3.621 -0.3119  0.3718 -0.6269
  844TIP3   OH2 2495   0.761   1.490   0.686  0.1764  0.8001 -0.2442
  844TIP3    H1 2496   0.761   1.420   0.622  1.6131  0.7717 -0.2318
  844TIP3    H2 2497   0.670   1.520   0.688 -0.5765 -1.3369  0.0832
  845TIP3   OH2 2498   3.884   1.604   3.033  0.1380 -0.1735  0.3137
  845TIP3    H1 2499   3.841   1.520   3.050  1.3073 -0.5047  1.8137
  845TIP3    H2 2500   3.940   1.618   3.109  0.7773  1.4578 -0.4200
  846TIP3   OH2 2501   3.285   3.873   2.798 -0.0016  0.6124  0.2231
  846TIP3    H1 2502   3.323   3.890   2.884  1.2674 -1.3412  0.1201
  846TIP3    H2 2503   3.228   3.948   2.782 -0.0374  1.1976  2.6121
  847TIP3   OH2 2504   5.619   1.085   5.552  0.8669 -0.1097  0.4102
  847TIP3    H1 2505   5.618   1.007   5.497  0.9837  0.3908 -0.3213
  847TIP3    H2 2506   5.689   1.070   5.615  1.4827 -0.2203 -0.2907
  848TIP3   OH2 2507   5.616   4.092   5.364  0.3390 -0.3255  0.3123
  848TIP3    H1 2508   5.591   4.061   5.451  0.7203 -1.4487  0.0319
  848TIP3    H2 2509   5.546   4.059   5.307  0.0299  0.5061  0.1970
  849TIP3   OH2 2510   0.050   0.712   1.440 -0.1348  0.1096 -0.3671
  849TIP3    H1 2511   0.084   0.796   1.408 -1.5141  0.5213 -0.7995
  849TIP3    H2 2512   0.007   0.734   1.523 -0.1948 -0.2373 -0.3041
  850TIP3   OH2 2513   2.523   0.027   5.350  0.0614  0.2142  0.0039
  850TIP3    H1 2514   2.579   0.017   5.273 -0.2350  3.3410 -0.7272
  850TIP3    H2 2515   2.443  -0.020   5.328  0.9364 -1.1128 -0.4802
  851TIP3   OH2 2516   4.345   2.170   4.634 -0.5454  0.4716 -0.1613
  851TIP3    H1 2517   4.378   2.149   4.547  1.4804  1.1943  0.3700
  851TIP3    H2 2518   4.254   2.195   4.620 -0.8334 -1.2305 -1.7926
  852TIP3   OH2 2519   2.512   5.302   4.888 -1.1329 -0.8600 -0.7265
  852TIP3    H1 2520   2.470   5.370   4.940  1.1856 -0.4960  0.8181
  852TIP3    H2 2521   2.570   5.349   4.827 -0.7288 -1.3974 -0.7666
  853TIP3   OH2 2522   6.734   5.294   4.419  0.2300 -0.5289 -0.7328
  853TIP3    H1 2523   6.822   5.257   4.423  0.4669 -0.1527 -2.1272
  853TIP3    H2 2524   6.688   5.253   4.492  1.6662 -0.4246  0.2837
  854TIP3   OH2 2525   4.047   5.866   4.631 -0.2312  0.4196  0.8153
  854TIP3    H1 2526   4.016   5.797   4.689  2.4414 -2.6490 -1.0783
  854TIP3    H2 2527   4.126   5.900   4.674 -0.0285  0.3700  0.4848
  855TIP3   OH2 2528   0.192   5.355   0.461 -0.1578  0.3567  0.0060
  855TIP3    H1 2529   0.211   5.267   0.427 -1.3665  0.3788 -0.7892
  855TIP3    H2 2530   0.278   5.395   0.473  0.3522 -0.1052 -1.8626
  856TIP3   OH2 2531   4.675   4.912   2.265  0.2229  0.6324  0.9437
  856TIP3    H1 2532   4.715   4.849   2.326 -0.1430 -0.0605  0.4767
  856TIP3    H2 2533   4.748   4.947   2.215  0.2089 -1.2116 -0.4535
  857TIP3   OH2 2534   4.690   3.925   5.405 -0.1468  0.1929 -0.0345
  857TIP3    H1 2535   4.649   4.011   5.403 -0.2325  0.1745  0.6976
  857TIP3    H2 2536   4.780   3.941   5.375  0.1533  0.7282  1.0992
  858TIP3   OH2 2537   3.562   2.100   3.051  0.4282  0.2382  0.4745
  858TIP3    H1 2538   3.601   2.043   2.984 -1.1877 -0.2184 -0.1109
  858TIP3    H2 2539   3.603   2.185   3.037  0.5920 -0.0178 -0.6816
  859TIP3   OH2 2540   1.905   4.114   5.331 -0.0542  0.8838 -0.0276
  859TIP3    H1 2541   1.816   4.136   5.302  0.3885  1.1468 -1.2276
  859TIP3    H2 2542   1.962   4.172   5.280  0.8762 -0.0211 -0.0469
  860TIP3   OH2 2543   3.301   2.913   3.136 -0.4851  0.4641 -0.1515
  860TIP3    H1 2544   3.391   2.939   3.156 -0.6991  1.5723 -0.5694
  860TIP3    H2 2545   3.296   2.822   3.165  0.2880  0.8728  1.3680
  861TIP3   OH2 2546   1.328   3.618   2.406 -0.3322  0.7508  0.3049
  861TIP3    H1 2547   1.382   3.696   2.421 -0.5953  0.9799  0.0937
  861TIP3    H2 2548   1.360   3.554   2.469  0.1837  0.8829  0.1850
  862TIP3   OH2 2549   3.396   1.822   1.184 -0.2314  0.0628 -0.1246
  862TIP3    H1 2550   3.352   1.789   1.106  1.3938  1.3391 -1.6870
  862TIP3    H2 2551   3.478   1.772   1.188  0.2775  0.8938  0.0156
  863TIP3   OH2 2552   1.851   4.279   2.394  0.2765  0.1134 -0.8999
  863TIP3    H1 2553   1.912   4.337   2.348  1.8586 -1.3240 -0.7322
  863TIP3    H2 2554   1.822   4.217   2.328  1.0570 -0.7898 -0.4185
  864TIP3   OH2 2555   0.979   0.032   2.843 -0.4474 -0.1799  0.4503
  864TIP3    H1 2556   0.957   0.089   2.917  1.1167 -0.8589  1.4811
  864TIP3    H2 2557   1.058  -0.014   2.871 -1.9223 -3.2785 -0.0818
  865TIP3   OH2 2558   1.541   4.793   3.132  0.2094 -0.4134  0.2812
  865TIP3    H1 2559   1.495   4.711   3.114  0.8439 -0.2808 -2.2451
  865TIP3    H2 2560   1.520   4.850   3.058  1.2178  1.0822  1.0853
  866TIP3   OH2 2561   7.201   4.824   1.059 -0.2155  0.0588  0.1276
  866TIP3    H1 2562   7.211   4.766   0.983  0.9410 -0.1176  0.4013
  866TIP3    H2 2563   7.107   4.819   1.079 -0.3277 -0.8826 -0.5077
  867TIP3   OH2 2564   5.826   3.874   1.718 -0.1108  0.2809  0.4959
  867TIP3    H1 2565   5.898   3.878   1.654  0.0114 -0.9346  0.5303
  867TIP3    H2 2566   5.748   3.898   1.668  0.1615  0.5273  0.1857
  868TIP3   OH2 2567   4.169   5.931   3.755  0.5536  0.2887  0.0100
  868TIP3    H1 2568   4.113   5.858   3.729  0.8480  0.3923 -0.9554
  868TIP3    H2 2569   4.253   5.890   3.775  0.9302  0.4216 -1.2250
  869TIP3   OH2 2570   0.117   5.703   2.664  0.3260  0.1201 -0.0294
  869TIP3    H1 2571   0.104   5.718   2.758  0.5248 -1.3938  0.2636
  869TIP3    H2 2572   0.180   5.631   2.659  0.9681  0.7309 -1.3486
  870TIP3   OH2 2573   0.617   5.340   0.725 -0.5366 -0.5056 -0.3164
  870TIP3    H1 2574   0.663   5.381   0.799 -0.5100 -1.2317  0.0819
  870TIP3    H2 2575   0.669   5.263   0.705 -0.3762 -0.1493 -1.3093
  871TIP3   OH2 2576   5.604   0.471   1.647 -0.6550  0.5480 -0.2638
  871TIP3    H1 2577   5.638   0.559   1.630 -1.5807  0.7617 -1.1305
  871TIP3    H2 2578   5.513   0.486   1.675 -0.2644 -0.0327  1.4498
  872TIP3   OH2 2579   4.088   6.677   4.970 -0.4868 -0.6629 -0.4151
  872TIP3    H1 2580   4.017   6.692   4.907 -0.4212  0.6193 -0.2282
  872TIP3    H2 2581   4.050   6.704   5.054  0.4220  0.7442 -0.4238
  873TIP3   OH2 2582   3.718   0.099   1.493  0.3010  0.2671  0.0552
  873TIP3    H1 2583   3.765   0.037   1.438 -0.8021  0.6601 -1.3745
  873TIP3    H2 2584   3.757   0.088   1.580  1.0519 -1.4343 -0.4623
  874TIP3   OH2 2585   6.843   6.683   5.107 -0.5954  0.4156 -0.4184
  874TIP3    H1 2586   6.836   6.779   5.108 -2.3900  0.3639  2.2366
  874TIP3    H2 2587   6.776   6.655   5.044 -1.7978  0.8841  0.6122
  875TIP3   OH2 2588   0.529   1.301   2.799 -0.4597 -0.2652 -0.3387
  875TIP3    H1 2589   0.581   1.342   2.729 -0.4004  1.3490  0.5958
  875TIP3    H2 2590   0.439   1.325   2.778 -0.4792 -0.1094 -0.0781
  876TIP3   OH2 2591   2.272   2.619   3.801  0.1732  0.0664  0.1438
  876TIP3    H1 2592   2.324   2.554   3.753 -0.7227  0.2476 -1.1248
  876TIP3    H2 2593   2.197   2.570   3.834 -0.7357  0.4855 -1.1924
  877TIP3   OH2 2594   3.147   1.024   0.267 -0.5765 -0.3782  0.0301
  877TIP3    H1 2595   3.195   0.942   0.275 -0.6683 -0.2964  2.0152
  877TIP3    H2 2596   3.183   1.066   0.189  2.6333 -0.3100  1.4092
  878TIP3   OH2 2597   5.382   3.652   5.198 -0.1118  0.5134 -0.1476
  878TIP3    H1 2598   5.362   3.579   5.141 -0.5681 -0.9513  1.7666
  878TIP3    H2 2599   5.391   3.727   5.140  0.9384 -1.1423 -2.2340
  879TIP3   OH2 2600   5.318   2.012   0.332  0.0264 -0.4748  0.3078
  879TIP3    H1 2601   5.228   2.001   0.303  0.4044  0.2110 -1.2493
  879TIP3    H2 2602   5.325   1.958   0.411 -0.9627 -2.8164 -1.1064
  880TIP3   OH2 2603   4.975   5.586   1.247  0.0542 -0.2508 -0.1805
  880TIP3    H1 2604   4.905   5.528   1.277  0.1504 -0.1125  0.3219
  880TIP3    H2 2605   5.039   5.585   1.319  1.0116 -1.1025 -1.0187
  881TIP3   OH2 2606   0.441   6.401   2.420 -0.6624 -0.5369  0.1487
  881TIP3    H1 2607   0.411   6.478   2.371  1.5054  1.6441  1.9394
  881TIP3    H2 2608   0.535   6.416   2.431 -0.1357 -3.5748  0.4806
  882TIP3   OH2 2609   2.946   4.127   4.245  0.1415  0.0017 -0.7150
  882TIP3    H1 2610   2.858   4.165   4.237  0.0913 -0.2533 -1.4934
  882TIP3    H2 2611   2.995   4.190   4.298 -0.6348 -0.0813  0.1161
  883TIP3   OH2 2612   3.467   6.562   1.543  0.0894 -0.6347 -0.3116
  883TIP3    H1 2613   3.382   6.607   1.548  0.6272  0.5896 -1.5225
  883TIP3    H2 2614   3.518   6.599   1.615  0.2309  0.0729 -0.7649
  884TIP3   OH2 2615   3.381   2.686   5.137 -0.1982 -0.0058  0.2253
  884TIP3    H1 2616   3.435   2.746   5.189 -3.1470  2.5460  0.6106
  884TIP3    H2 2617   3.306   2.666   5.193 -0.4147 -2.3272 -0.7772
  885TIP3   OH2 2618   0.715   3.396   5.536 -0.0302 -0.6041  0.0109
  885TIP3    H1 2619   0.747   3.454   5.605 -1.1468 -0.4403  0.4114
  885TIP3    H2 2620   0.794   3.355   5.500  1.1901  3.1557 -2.1640
  886TIP3   OH2 2621   5.174   0.806   1.861  0.2209 -0.4051 -0.2221
  886TIP3    H1 2622   5.252   0.819   1.915 -0.1479 -1.0337  0.4852
  886TIP3    H2 2623   5.103   0.843   1.913  0.0274  0.0828 -0.8221
  887TIP3   OH2 2624   0.088   1.236   3.233 -0.1389 -0.5078 -0.2054
  887TIP3    H1 2625   0.053   1.149   3.213 -1.5756 -0.3138  1.3110
  887TIP3    H2 2626   0.020   1.297   3.203  1.0765  0.1627 -1.7396
  888TIP3   OH2 2627   5.836   5.559   1.038 -0.0989  0.2495 -0.4567
  888TIP3    H1 2628   5.775   5.557   0.964  0.0698  0.9252 -0.6234
  888TIP3    H2 2629   5.909   5.613   1.008  1.3333 -1.7530 -0.7931
  889TIP3   OH2 2630   6.162   2.652   1.491 -0.4118  0.4554 -0.1004
  889TIP3    H1 2631   6.178   2.707   1.568 -2.3806  0.2200  0.5427
  889TIP3    H2 2632   6.130   2.714   1.425  0.3041  0.5114 -0.3973
  890TIP3   OH2 2633   1.298   2.791   4.951 -0.2945 -0.1604  0.4932
  890TIP3    H1 2634   1.302   2.846   5.030 -0.3739  0.1864  0.2587
  890TIP3    H2 2635   1.244   2.841   4.890 -1.0594 -0.8813  0.5718
  891TIP3   OH2 2636   3.090   1.547   4.622  0.1583  0.4839 -0.0573
  891TIP3    H1 2637   3.175   1.508   4.598 -1.3867 -2.0802 -1.9938
  891TIP3    H2 2638   3.079   1.524   4.714  0.9789 -0.4539 -0.1641
  892TIP3   OH2 2639   6.088   0.405   4.456 -0.3482 -0.3214  0.4579
  892TIP3    H1 2640   6.088   0.357   4.374 -0.4331  0.6928 -0.1486
  892TIP3    H2 2641   6.060   0.340   4.522 -1.8128 -0.7427 -0.5402
  893TIP3   OH2 2642   3.815   0.189   0.185 -0.1819 -0.6978 -0.0652
  893TIP3    H1 2643   3.877   0.215   0.116 -0.3168 -1.8646 -0.6525
  893TIP3    H2 2644   3.740   0.248   0.173  1.1916  1.4647  1.3366
  894TIP3   OH2 2645   4.313   6.226   2.732 -0.1669  0.1468 -0.3252
  894TIP3    H1 2646   4.363   6.168   2.790 -0.5999 -1.1625 -1.2094
  894TIP3    H2 2647   4.266   6.284   2.791 -1.3651 -1.7821  0.7205
  895TIP3   OH2 2648   2.490   6.487   3.862  0.0982 -0.0120 -0.0544
  895TIP3    H1 2649   2.527   6.539   3.933 -0.1444 -1.0967  0.8792
  895TIP3    H2 2650   2.396   6.484   3.880 -0.1108  0.5098 -0.9655
  896TIP3   OH2 2651   0.545   0.455   5.245  0.0102 -0.1169  0.0211
  896TIP3    H1 2652   0.495   0.447   5.327 -1.2701 -0.0498 -0.7145
  896TIP3    H2 2653   0.636   0.457   5.273 -0.4269  1.4621  1.5816
  897TIP3   OH2 2654   6.114   3.272   2.635 -0.1952 -0.5357  1.0191
  897TIP3    H1 2655   6.148   3.270   2.546  1.1971 -0.2697  1.5220
  897TIP3    H2 2656   6.087   3.363   2.649 -0.6781 -0.6417  0.7740
  898TIP3   OH2 2657   3.440   4.379   2.606 -0.2659  0.5915  0.0184
  898TIP3    H1 2658   3.398   4.465   2.600 -0.3977  0.4436 -1.8172
  898TIP3    H2 2659   3.534   4.399   2.605 -0.2149  0.7031 -3.0135
  899TIP3   OH2 2660   1.261   0.178   5.181  0.1880 -0.1332  0.1902
  899TIP3    H1 2661   1.265   0.085   5.159 -0.7282  0.3994 -2.5665
  899TIP3    H2 2662   1.189   0.184   5.243 -0.1445 -1.1722 -0.0684
  900TIP3   OH2 2663   6.143   0.672   3.505  0.9688 -0.0550 -0.0415
  900TIP3    H1 2664   6.143   0.738   3.436  1.5544  2.0089  1.8239
  900TIP3    H2 2665   6.233   0.640   3.507  0.9707 -0.0580 -0.1978
  901TIP3   OH2 2666   2.942   4.418   2.525 -0.6247 -0.2620  0.2057
  901TIP3    H1 2667   2.870   4.454   2.474 -0.2855  0.0217 -0.0847
  901TIP3    H2 2668   2.949   4.327   2.497  0.4465  0.2406 -1.3097
  902TIP3   OH2 2669   0.978   3.853   4.627  0.2119  0.5665 -0.0494
  902TIP3    H1 2670   0.950   3.929   4.678  1.2870  0.9641 -0.0362
  902TIP3    H2 2671   1.044   3.887   4.567  1.4269 -0.5205  0.6270
  903TIP3   OH2 2672   3.039   3.331   3.092 -0.5033  0.3320 -0.4430
  903TIP3    H1 2673   2.989   3.309   3.171  0.4363 -0.6635 -0.0987
  903TIP3    H2 2674   2.973   3.354   3.027 -1.2659  2.1933  0.9149
  904TIP3   OH2 2675   3.502   6.640   0.238 -0.0010 -0.3729 -0.4545
  904TIP3    H1 2676   3.463   6.603   0.317  2.6483 -1.0209  0.6735
  904TIP3    H2 2677   3.541   6.723   0.267  0.9591 -0.5933 -1.0550
  905TIP3   OH2 2678   5.061   5.377   2.147  0.2014  1.1704  0.1023
  905TIP3    H1 2679   5.115   5.334   2.214  2.1772  1.1478 -1.4069
  905TIP3    H2 2680   5.124   5.404   2.080 -1.8766 -1.7686 -3.4068
  906TIP3   OH2 2681   2.647   3.639   4.693 -0.2262  1.0189  0.2318
  906TIP3    H1 2682   2.587   3.711   4.710 -1.3640  0.2813 -0.5703
  906TIP3    H2 2683   2.603   3.561   4.727 -0.0234  0.3757 -0.9140
  907TIP3   OH2 2684   1.283   1.019   1.542 -0.5745  0.4268 -0.4551
  907TIP3    H1 2685   1.363   1.046   1.586 -0.3479  1.0015 -1.1906
  907TIP3    H2 2686   1.240   0.960   1.604 -0.0328  0.8256  0.3153
  908TIP3   OH2 2687   6.675   0.902   2.405 -0.1556  0.3724  0.4057
  908TIP3    H1 2688   6.708   0.906   2.316 -0.3773  1.6180  0.3662
  908TIP3    H2 2689   6.644   0.990   2.424 -2.2291 -0.3926  0.9243
  909TIP3   OH2 2690   4.592   5.128   1.059  0.3855  0.2602 -0.5910
  909TIP3    H1 2691   4.640   5.163   1.134 -0.1935 -0.0745 -0.0537
  909TIP3    H2 2692   4.660   5.102   0.997  1.0088 -1.6992  0.8081
  910TIP3   OH2 2693   0.940   5.557   5.133 -0.7725 -0.5829  0.0835
  910TIP3    H1 2694   0.897   5.568   5.218 -2.6046  3.0708 -1.1210
  910TIP3    H2 2695   0.878   5.505   5.081 -0.9187 -0.5018  0.1769
  911TIP3   OH2 2696   2.587   2.319   4.900 -0.3544 -0.3023 -0.6473
  911TIP3    H1 2697   2.555   2.409   4.891 -1.6249 -0.6733 -0.0880
  911TIP3    H2 2698   2.678   2.329   4.928 -0.9120  0.8419  0.9470
  912TIP3   OH2 2699   7.042   4.898   3.924 -0.2852  0.2273 -0.4330
  912TIP3    H1 2700   7.018   4.877   3.833  0.2425  0.0494 -0.5361
  912TIP3    H2 2701   7.126   4.854   3.937 -1.2530 -1.3868  0.7580
  913TIP3   OH2 2702   0.340   2.704   5.690 -0.7851  0.3218 -0.6778
  913TIP3    H1 2703   0.256   2.664   5.713  0.0627 -0.2398  1.7014
  913TIP3    H2 2704   0.349   2.777   5.751  2.4155 -2.3310  2.4727
  914TIP3   OH2 2705   4.432   3.491   1.783  0.2699  0.0637 -0.0774
  914TIP3    H1 2706   4.346   3.520   1.814  1.1237 -0.2610  2.9379
  914TIP3    H2 2707   4.483   3.571   1.775 -0.0547  0.1823 -1.0955
  915TIP3   OH2 2708   2.719   5.856   3.642 -0.0740 -0.0910  0.4169
  915TIP3    H1 2709   2.784   5.901   3.588  0.3316  0.5546  1.4267
  915TIP3    H2 2710   2.718   5.904   3.724  0.8650 -2.2706  1.8121
  916TIP3   OH2 2711   1.388   3.515   1.033  0.2093 -0.1003 -0.1876
  916TIP3    H1 2712   1.405   3.466   1.113 -0.6564 -0.2214 -0.0705
  916TIP3    H2 2713   1.470   3.560   1.015  0.2567  0.3625  1.0661
  917TIP3   OH2 2714   5.833   0.615   5.370 -0.1040  0.3546  0.4912
  917TIP3    H1 2715   5.913   0.606   5.319  0.5224  1.2566  1.2754
  917TIP3    H2 2716   5.786   0.687   5.328 -0.8295 -0.5877 -0.3544
  918TIP3   OH2 2717   4.934   3.810   5.143  0.5091 -0.4899  0.2343
  918TIP3    H1 2718   4.892   3.725   5.156 -1.7476  0.8792  2.9699
  918TIP3    H2 2719   4.886   3.850   5.071 -0.2157 -0.5270  0.6873
  919TIP3   OH2 2720   4.828   6.644   3.920 -0.1563  0.2373 -0.3971
  919TIP3    H1 2721   4.787   6.584   3.982 -1.2556  0.5592 -0.7865
  919TIP3    H2 2722   4.886   6.588   3.868  1.7039  0.1547  1.6369
  920TIP3   OH2 2723   7.020   2.795   5.292  0.4738 -0.4992  0.2589
  920TIP3    H1 2724   6.962   2.853   5.342  1.5860  0.2454  0.7279
  920TIP3    H2 2725   7.053   2.733   5.357 -0.9342 -1.8871 -0.2927
  921TIP3   OH2 2726   1.448   2.247   0.100  0.9634  0.4102 -0.1796
  921TIP3    H1 2727   1.467   2.158   0.070  1.0097 -0.0255  1.0825
  921TIP3    H2 2728   1.438   2.298   0.019  0.7665 -0.7695 -0.9282
  922TIP3   OH2 2729   0.247   3.102   5.086 -0.6161 -0.8229 -0.1252
  922TIP3    H1 2730   0.171   3.048   5.106  0.2232 -1.7178  0.7740
  922TIP3    H2 2731   0.302   3.047   5.030 -0.1237 -0.6080  0.1354
  923TIP3   OH2 2732   2.263   5.993   2.194  0.0943 -0.1895  0.2711
  923TIP3    H1 2733   2.263   5.904   2.229 -0.1749 -1.1369 -1.9962
  923TIP3    H2 2734   2.319   6.042   2.255 -0.2030 -1.7518  1.8777
  924TIP3   OH2 2735   3.074   0.515   2.654  0.4084 -0.0475  0.3629
  924TIP3    H1 2736   3.155   0.494   2.608 -0.5045  0.2747 -1.4830
  924TIP3    H2 2737   3.061   0.608   2.638 -0.6670 -0.2409  0.0234
  925TIP3   OH2 2738   5.286   6.417   1.248  0.7709 -0.0948 -0.1432
  925TIP3    H1 2739   5.251   6.503   1.222  1.1477  0.5914  1.4427
  925TIP3    H2 2740   5.375   6.435   1.277  0.7269 -0.9552  0.5737
  926TIP3   OH2 2741   1.036   0.919   4.901 -0.2718  0.2818 -0.2521
  926TIP3    H1 2742   0.974   0.850   4.925  1.6455 -1.6958 -0.7057
  926TIP3    H2 2743   1.003   0.953   4.818 -2.6683  1.8351  1.1736
  927TIP3   OH2 2744   0.913   2.319   1.017 -0.3839 -0.1887  0.3587
  927TIP3    H1 2745   0.819   2.329   1.004 -0.2263 -0.1885 -0.9244
  927TIP3    H2 2746   0.951   2.398   0.978  0.1599 -0.2785  0.6981
  928TIP3   OH2 2747   6.135   3.516   5.682 -0.0276 -0.5177  0.2992
  928TIP3    H1 2748   6.204   3.560   5.733 -0.2842 -0.8108  0.9047
  928TIP3    H2 2749   6.125   3.431   5.723 -1.5949 -0.0295  0.9870
  929TIP3   OH2 2750   0.592   1.724   1.499  0.0940 -0.4542  0.0256
  929TIP3    H1 2751   0.498   1.718   1.515 -0.0494  1.8981  0.5030
  929TIP3    H2 2752   0.631   1.667   1.565 -0.9925 -3.4415 -1.7383
  930TIP3   OH2 2753   1.045   6.055   2.860 -0.2493 -0.4532 -0.0354
  930TIP3    H1 2754   1.063   6.051   2.766  0.4948 -2.3981  0.1476
  930TIP3    H2 2755   0.961   6.010   2.870 -2.0385  2.5803 -0.0728
  931TIP3   OH2 2756   2.018   0.759   4.375 -0.2113 -0.6384 -0.0663
  931TIP3    H1 2757   2.004   0.691   4.441  0.2865  0.9646  1.8156
  931TIP3    H2 2758   1.938   0.811   4.378  0.3534  0.2366  0.2992
  932TIP3   OH2 2759   5.076   0.055   5.345 -0.1178  0.2431  0.4422
  932TIP3    H1 2760   5.067   0.113   5.420 -2.2722 -0.7523  1.0332
  932TIP3    H2 2761   5.055  -0.032   5.378  0.0234 -0.4070 -1.0661
  933TIP3   OH2 2762   3.406   5.998   5.722  0.3565 -0.4590  0.5010
  933TIP3    H1 2763   3.346   6.056   5.768  1.3426  0.7440  0.3370
  933TIP3    H2 2764   3.363   5.912   5.723  0.0705 -0.3668  3.1362
  934TIP3   OH2 2765   3.595   2.293   2.479 -0.1144  0.1368 -0.3690
  934TIP3    H1 2766   3.597   2.388   2.485 -0.3309  0.1091  0.2789
  934TIP3    H2 2767   3.560   2.265   2.563  2.6694 -0.6628  0.6265
  935TIP3   OH2 2768   5.953   2.201   4.056 -0.0019  0.0507 -0.4183
  935TIP3    H1 2769   5.902   2.212   4.136  1.4880  0.5012  0.4998
  935TIP3    H2 2770   5.969   2.290   4.026  0.8016 -0.0591 -0.3271
  936TIP3   OH2 2771   5.456   1.769   1.575 -0.5006 -0.1550 -0.2160
  936TIP3    H1 2772   5.488   1.802   1.659 -0.8121  0.0146 -0.1612
  936TIP3    H2 2773   5.485   1.678   1.572 -0.1073 -0.0358 -0.1217
  937TIP3   OH2 2774   6.771   3.532   1.768 -0.2928 -0.2651 -0.2274
  937TIP3    H1 2775   6.812   3.489   1.694  0.2703 -1.3333  0.6811
  937TIP3    H2 2776   6.693   3.479   1.786 -0.0116 -0.4616  0.4172
  938TIP3   OH2 2777   6.130   3.577   4.768  0.7053 -0.2614  0.7150
  938TIP3    H1 2778   6.193   3.626   4.822  1.7006 -0.5479 -0.1415
  938TIP3    H2 2779   6.118   3.632   4.690  0.3254 -0.4674  0.6289
  939TIP3   OH2 2780   3.583   1.012   1.978  0.6769 -0.1384 -0.0814
  939TIP3    H1 2781   3.579   1.062   2.059  1.3678  1.2783 -0.8779
  939TIP3    H2 2782   3.676   0.998   1.962  0.5923  0.1556 -0.9327
  940TIP3   OH2 2783   3.799   0.234   2.659  0.2255 -0.0461  0.3572
  940TIP3    H1 2784   3.893   0.238   2.645  0.5386  1.9903  2.3864
  940TIP3    H2 2785   3.789   0.212   2.752 -1.2233  1.0026  0.4940
  941TIP3   OH2 2786   4.515   1.260   4.660 -0.0033  0.7952 -0.2779
  941TIP3    H1 2787   4.435   1.306   4.635  0.5687  1.8626 -0.2181
  941TIP3    H2 2788   4.513   1.178   4.611 -0.7640  1.1526 -0.8551
  942TIP3   OH2 2789   4.090   3.867   0.539 -0.0709 -0.1402  0.8130
  942TIP3    H1 2790   4.140   3.919   0.477  0.5477 -1.5269  0.1243
  942TIP3    H2 2791   4.139   3.874   0.621 -0.4581  1.0318  0.9645
  943TIP3   OH2 2792   2.720   4.271   1.706 -0.1037  0.1978 -0.1012
  943TIP3    H1 2793   2.633   4.272   1.747  0.2572 -0.0352  0.6850
  943TIP3    H2 2794   2.710   4.211   1.631 -0.2579 -0.9876  0.8291
  944TIP3   OH2 2795   2.320   1.428   2.623  0.0270  0.0870  0.3414
  944TIP3    H1 2796   2.397   1.388   2.583 -0.1017 -1.7514  1.8485
  944TIP3    H2 2797   2.354   1.484   2.692  0.1045  1.4666 -0.7462
  945TIP3   OH2 2798   6.793   4.555   2.716 -0.0783 -0.4784  0.1009
  945TIP3    H1 2799   6.833   4.558   2.802 -1.0016  0.7497  0.5187
  945TIP3    H2 2800   6.714   4.609   2.724  0.1638  0.2130 -1.6912
  946TIP3   OH2 2801   2.914   3.403   3.622 -0.3771 -0.2165 -0.2124
  946TIP3    H1 2802   2.979   3.459   3.579  0.0702 -0.4718  0.1241
  946TIP3    H2 2803   2.963   3.324   3.645 -0.4083  0.2249  1.4730
  947TIP3   OH2 2804   0.278   2.124   4.092  0.6022  0.2082 -0.1889
  947TIP3    H1 2805   0.223   2.202   4.084 -0.9465 -0.7584  0.4986
  947TIP3    H2 2806   0.363   2.151   4.058  0.1740  2.2454  0.2196
  948TIP3   OH2 2807   6.517   1.125   1.618  0.2874  0.0956  0.2223
  948TIP3    H1 2808   6.522   1.041   1.572  1.7767 -0.0156  0.5283
  948TIP3    H2 2809   6.523   1.191   1.548 -3.6642  0.0909 -0.3442
  949TIP3   OH2 2810   3.474   2.429   3.301  0.0739  0.1614  0.3897
  949TIP3    H1 2811   3.384   2.431   3.332  0.3299 -0.2855  1.1914
  949TIP3    H2 2812   3.516   2.363   3.355  1.2554  1.4110  1.0685
  950TIP3   OH2 2813   1.049   4.240   2.541 -0.1038 -0.0479 -0.2918
  950TIP3    H1 2814   1.066   4.318   2.490 -1.3239 -0.2457 -1.0464
  950TIP3    H2 2815   1.014   4.272   2.624 -0.1323  0.2242 -0.4099
  951TIP3   OH2 2816   4.732   0.635   4.407 -0.1883 -0.1524 -0.2854
  951TIP3    H1 2817   4.767   0.645   4.318  0.8898  1.2876  0.2683
  951TIP3    H2 2818   4.807   0.651   4.465 -0.9419 -0.7581  0.8965
  952TIP3   OH2 2819   7.066   5.980   4.874 -0.0305  0.0719 -0.1682
  952TIP3    H1 2820   7.086   5.904   4.819 -0.9321 -2.4191  2.7099
  952TIP3    H2 2821   6.971   5.988   4.870  0.1248  1.8953 -1.3676
  953TIP3   OH2 2822   1.433   5.381   4.522 -0.3743  0.5198  0.0919
  953TIP3    H1 2823   1.349   5.407   4.558 -0.5823 -0.2050  0.1431
  953TIP3    H2 2824   1.498   5.423   4.579 -0.7033  0.2178  0.7050
  954TIP3   OH2 2825   6.183   1.822   1.335 -0.8806 -0.5966 -0.1185
  954TIP3    H1 2826   6.199   1.732   1.306  0.7325  0.5345 -3.1663
  954TIP3    H2 2827   6.094   1.841   1.307 -0.2948 -0.4435 -2.0367
  955TIP3   OH2 2828   0.426   4.466   4.804  0.1963  0.4085 -0.4592
  955TIP3    H1 2829   0.494   4.526   4.774 -0.4359  0.6222 -1.4995
  955TIP3    H2 2830   0.441   4.386   4.753 -0.5334  0.5764 -0.9475
  956TIP3   OH2 2831   0.473   4.308   3.805  0.1010  0.0608  0.3381
  956TIP3    H1 2832   0.512   4.334   3.888  0.5127 -0.9539  0.4698
  956TIP3    H2 2833   0.379   4.303   3.824  0.2940 -1.3079  1.0817
  957TIP3   OH2 2834   3.017   3.521   4.584 -0.3142 -0.1367  0.0588
  957TIP3    H1 2835   3.052   3.455   4.644  0.2500 -0.0385 -0.1596
  957TIP3    H2 2836   3.074   3.517   4.507  0.6987  1.6790  0.6669
  958TIP3   OH2 2837   2.120   4.363   3.323 -0.4815 -0.3116  0.3358
  958TIP3    H1 2838   2.202   4.314   3.327 -0.0033 -0.0733 -3.2665
  958TIP3    H2 2839   2.142   4.448   3.361  0.6040 -0.6467  0.4971
  959TIP3   OH2 2840   1.897   3.116   3.809 -0.0772 -0.0647 -0.0575
  959TIP3    H1 2841   1.841   3.039   3.817  0.1917 -0.1596  1.2132
  959TIP3    H2 2842   1.838   3.190   3.821 -0.0276 -0.1539  0.8483
  960TIP3   OH2 2843   0.555   3.352   0.657  0.2385 -0.0456 -0.1790
  960TIP3    H1 2844   0.596   3.275   0.698  2.0037  1.0742  0.2961
  960TIP3    H2 2845   0.496   3.386   0.725 -0.3744 -0.8250 -0.3057
  961TIP3   OH2 2846   2.979   2.090   4.908 -0.0612  0.2980  0.1246
  961TIP3    H1 2847   2.936   2.048   4.834 -0.8308 -0.3105  0.8915
  961TIP3    H2 2848   2.952   2.182   4.903 -1.5849 -0.0951  0.6619
  962TIP3   OH2 2849   6.026   4.698   1.641  0.4476  0.1572 -0.4470
  962TIP3    H1 2850   6.025   4.659   1.553  0.0875  0.7569 -0.7155
  962TIP3    H2 2851   5.974   4.778   1.632 -2.3235 -1.3093  1.0317
  963TIP3   OH2 2852   1.264   5.471   3.278 -0.3365  0.0901  0.0657
  963TIP3    H1 2853   1.235   5.460   3.187 -0.8702 -2.3642  0.4588
  963TIP3    H2 2854   1.198   5.425   3.330  1.6229 -1.3456  1.4229
  964TIP3   OH2 2855   2.250   0.194   1.859 -0.3118  0.6152  0.4482
  964TIP3    H1 2856   2.303   0.273   1.867  0.6292 -0.1143  1.8072
  964TIP3    H2 2857   2.209   0.200   1.773  0.7304  1.9634  0.0289
  965TIP3   OH2 2858   1.631   1.030   5.415 -0.0916  0.1702  0.2715
  965TIP3    H1 2859   1.565   1.091   5.384  0.1947  0.2963 -0.0963
  965TIP3    H2 2860   1.582   0.965   5.466 -0.7597 -0.8414 -1.5892
  966TIP3   OH2 2861   4.632   0.499   4.657 -0.5115 -0.3373  0.4153
  966TIP3    H1 2862   4.619   0.533   4.568  0.0622  0.4148  0.6155
  966TIP3    H2 2863   4.689   0.562   4.699  1.0207 -1.8148  0.6465
  967TIP3   OH2 2864   3.398  -0.005   4.435  0.2967 -0.4547 -0.6616
  967TIP3    H1 2865   3.372   0.073   4.485 -0.0161 -0.9492 -0.0361
  967TIP3    H2 2866   3.328  -0.016   4.370  0.7080  0.1950 -1.2308
  968TIP3   OH2 2867   6.135   5.613   4.216  0.1257 -0.1534  0.3538
  968TIP3    H1 2868   6.123   5.686   4.276  0.1938  0.6055 -0.5300
  968TIP3    H2 2869   6.154   5.654   4.132  2.3130 -1.2190  0.2690
  969TIP3   OH2 2870   4.257   4.804   5.427 -0.5985  0.3739 -0.6079
  969TIP3    H1 2871   4.305   4.722   5.419 -0.9100  0.2852 -1.7676
  969TIP3    H2 2872   4.300   4.851   5.499 -1.2731 -1.3684  1.0124
  970TIP3   OH2 2873   0.469   3.307   4.046  0.1404 -0.1928  0.5579
  970TIP3    H1 2874   0.564   3.312   4.038 -0.0359  1.0391 -1.6825
  970TIP3    H2 2875   0.450   3.216   4.067  1.8184 -0.3170  1.6996
  971TIP3   OH2 2876  -0.012   5.860   5.303 -0.1582  0.0353  0.1330
  971TIP3    H1 2877  -0.042   5.835   5.390  1.2509 -0.9032  0.3723
  971TIP3    H2 2878   0.081   5.881   5.314  1.3447 -4.4000 -1.8063
  972TIP3   OH2 2879   4.500   5.364   5.085 -0.6841 -0.5083  0.1912
  972TIP3    H1 2880   4.453   5.286   5.112 -0.0406 -1.0716 -0.2950
  972TIP3    H2 2881   4.445   5.404   5.017 -0.2661 -1.3915 -0.6786
  973TIP3   OH2 2882   5.440   0.863   1.305 -0.3245  0.7894  0.1569
  973TIP3    H1 2883   5.426   0.955   1.326  0.9396  1.1004 -0.2422
  973TIP3    H2 2884   5.525   0.862   1.261 -0.3942 -0.5515  0.0267
  974TIP3   OH2 2885   5.641   3.988   4.726  0.2297 -0.1756  0.3746
  974TIP3    H1 2886   5.604   3.903   4.750  0.8434 -1.2982 -2.3071
  974TIP3    H2 2887   5.735   3.972   4.717  0.0601 -0.0285 -2.8422
  975TIP3   OH2 2888   4.548   2.762   0.862  0.0058  0.4289  0.4290
  975TIP3    H1 2889   4.497   2.823   0.811 -0.3970  0.4223  0.8211
  975TIP3    H2 2890   4.486   2.694   0.889  0.3876 -0.0114  0.2252
  976TIP3   OH2 2891   2.404   2.188   2.645 -0.1024  0.2673 -0.0596
  976TIP3    H1 2892   2.340   2.186   2.716 -0.9820  0.3623 -0.8357
  976TIP3    H2 2893   2.373   2.257   2.586  1.7872  1.7110  0.5306
  977TIP3   OH2 2894   2.372   4.568   3.382  0.6725  0.3273  0.5128
  977TIP3    H1 2895   2.400   4.478   3.365 -0.4626  0.1912 -0.7337
  977TIP3    H2 2896   2.438   4.622   3.339 -0.2209  0.0237 -1.3243
  978TIP3   OH2 2897   2.698   4.038   3.515  0.2263  0.0031 -0.1003
  978TIP3    H1 2898   2.717   4.085   3.433 -1.9213 -1.0527 -1.2856
  978TIP3    H2 2899   2.690   3.947   3.488  1.8700 -0.7504  1.7513
  979TIP3   OH2 2900   4.398   2.383   4.441  0.1471  0.3882  0.7463
  979TIP3    H1 2901   4.357   2.468   4.458 -1.4494 -0.2066 -0.0068
  979TIP3    H2 2902   4.330   2.319   4.461  0.8976 -0.6601  0.0303
  980TIP3   OH2 2903   5.249   5.627   1.322 -0.2598  0.6048  0.1738
  980TIP3    H1 2904   5.333   5.604   1.282  0.2511  0.6370  1.2082
  980TIP3    H2 2905   5.216   5.699   1.269 -0.2479 -0.2286 -1.0104
  981TIP3   OH2 2906   6.223   4.375   2.632  0.1886 -0.1550 -0.1283
  981TIP3    H1 2907   6.196   4.370   2.540 -0.3233  0.3546 -0.0175
  981TIP3    H2 2908   6.152   4.423   2.674 -0.3455 -1.7025  0.8366
  982TIP3   OH2 2909   4.879   4.058   3.915 -0.5533  0.2460  0.7453
  982TIP3    H1 2910   4.866   4.014   3.831 -0.1437 -0.2164  0.9193
  982TIP3    H2 2911   4.841   4.145   3.902  0.8403  0.7422 -0.4464
  983TIP3   OH2 2912   2.438   4.306   1.772  0.2565 -0.0651 -0.4540
  983TIP3    H1 2913   2.372   4.254   1.727 -0.9313 -0.5652  1.7476
  983TIP3    H2 2914   2.426   4.395   1.737 -1.0705 -0.2991 -0.6360
  984TIP3   OH2 2915   4.750   6.743   4.254  0.1400  0.2556 -0.1131
  984TIP3    H1 2916   4.754   6.649   4.271 -0.8116  0.1678 -0.3298
  984TIP3    H2 2917   4.659   6.766   4.270  0.2794  1.0652 -0.4641
  985TIP3   OH2 2918   4.049   4.242   5.767 -0.6585 -0.0268 -0.1898
  985TIP3    H1 2919   3.994   4.202   5.700 -1.9337  0.3324  0.6051
  985TIP3    H2 2920   4.044   4.336   5.750 -0.4195  0.0181 -0.0241
  986TIP3   OH2 2921   4.506   0.406   1.971 -0.4538  0.3314  0.5705
  986TIP3    H1 2922   4.492   0.488   2.019 -0.6189  1.3519 -1.1539
  986TIP3    H2 2923   4.581   0.366   2.015 -2.1954 -0.1513  3.3762
  987TIP3   OH2 2924   3.665   0.158   4.399 -0.2382  0.4455 -0.1442
  987TIP3    H1 2925   3.623   0.144   4.314 -1.7519 -0.9564  0.7545
  987TIP3    H2 2926   3.601   0.210   4.449 -0.0523 -0.0155  0.6011
  988TIP3   OH2 2927   0.172   2.568   4.816  0.2671  0.4270 -0.1727
  988TIP3    H1 2928   0.228   2.628   4.768 -1.0620  2.8445  1.0991
  988TIP3    H2 2929   0.135   2.510   4.748  0.0844  2.3241 -1.7931
  989TIP3   OH2 2930   4.663   5.647   5.061  0.2900  0.2815  0.2673
  989TIP3    H1 2931   4.703   5.676   5.143  1.1155  0.6462 -0.2505
  989TIP3    H2 2932   4.625   5.562   5.081  1.1238  0.0327  0.8428
  990TIP3   OH2 2933   5.747   5.243   1.880 -0.6531 -0.0460  0.5412
  990TIP3    H1 2934   5.783   5.188   1.810 -2.0317 -1.3817  0.8126
  990TIP3    H2 2935   5.788   5.210   1.959  0.5547  1.1580  0.4514
  991TIP3   OH2 2936   6.301   5.436   0.481  0.2808  0.3351  0.1431
  991TIP3    H1 2937   6.296   5.341   0.466 -0.1844  0.4081 -0.1794
  991TIP3    H2 2938   6.342   5.444   0.567 -0.5247 -0.1899  0.5967
  992TIP3   OH2 2939   2.232   4.271   2.324  0.4444  0.1761 -0.2851
  992TIP3    H1 2940   2.274   4.316   2.251 -0.9488 -0.5108 -1.5773
  992TIP3    H2 2941   2.139   4.291   2.314  0.1739 -0.2918  1.0588
  993TIP3   OH2 2942   7.002   6.228   4.437  0.0436 -0.2844 -0.0815
  993TIP3    H1 2943   6.980   6.149   4.388  1.5022 -1.0937  0.5280
  993TIP3    H2 2944   6.927   6.286   4.423 -0.6003 -1.3725 -1.3679
  994TIP3   OH2 2945   0.676   2.833   5.799  0.2245  0.0475 -0.1377
  994TIP3    H1 2946   0.655   2.913   5.751 -0.9963 -0.4312 -0.4439
  994TIP3    H2 2947   0.612   2.830   5.870  0.8421 -0.1967  0.4218
  995TIP3   OH2 2948   2.693   4.735   3.495 -0.4654 -0.3006 -0.3441
  995TIP3    H1 2949   2.701   4.660   3.554  1.1085 -0.9247 -1.3054
  995TIP3    H2 2950   2.730   4.809   3.544  0.2311 -0.6753 -0.2961
  996TIP3   OH2 2951   2.932   0.465   5.436  0.0073  0.3166  0.6857
  996TIP3    H1 2952   3.007   0.496   5.385  1.3649 -3.2288  0.1864
  996TIP3    H2 2953   2.950   0.494   5.525  1.4040  0.5283  0.3667
  997TIP3   OH2 2954   0.215   6.678   4.230 -0.2186 -0.0708  0.2864
  997TIP3    H1 2955   0.253   6.657   4.144 -1.1270  0.2744 -0.2099
  997TIP3    H2 2956   0.121   6.665   4.219 -0.5172  1.4205  0.7748
  998TIP3   OH2 2957   1.258   4.438   4.775 -0.1856 -0.2512 -0.2069
  998TIP3    H1 2958   1.257   4.515   4.832 -1.2958  0.3893 -1.0444
  998TIP3    H2 2959   1.225   4.367   4.829  1.1226 -0.2184  0.6642
  999TIP3   OH2 2960   5.302   2.461   0.095 -0.4056 -0.6389 -0.5869
  999TIP3    H1 2961   5.301   2.373   0.132 -0.9617 -0.9330 -1.2687
  999TIP3    H2 2962   5.225   2.464   0.038 -0.1168  0.1213 -0.9589
 1000TIP3   OH2 2963   7.045   0.731   1.249  0.6976  0.5021  0.3271
 1000TIP3    H1 2964   7.105   0.681   1.304  0.4494 -0.3977 -0.2019
 1000TIP3    H2 2965   6.961   0.687   1.258  0.5790  0.5368 -0.5005
 1001TIP3   OH2 2966   3.626   3.684   0.516 -0.0770  0.0456  0.2996
 1001TIP3    H1 2967   3.589   3.640   0.440  1.0148  0.5357 -0.5385
 1001TIP3    H2 2968   3.685   3.619   0.555 -0.0953  0.0397  0.3179
 1002TIP3   OH2 2969   6.266   4.313   0.869 -0.1538 -0.2924 -0.3200
 1002TIP3    H1 2970   6.226   4.320   0.782  0.5203 -0.9552 -0.6924
 1002TIP3    H2 2971   6.206   4.257   0.918 -0.7189  0.3713 -0.2426
 1003TIP3   OH2 2972   6.932   1.643   2.762  0.3519  0.0501  0.4264
 1003TIP3    H1 2973   6.912   1.652   2.669  1.6502  2.9290  0.3301
 1003TIP3    H2 2974   7.021   1.609   2.765  0.3365  0.0236  0.6367
 1004TIP3   OH2 2975   1.032   1.348   0.844 -0.1405  0.2974  0.1040
 1004TIP3    H1 2976   0.976   1.417   0.808 -0.4900 -0.1835 -0.2896
 1004TIP3    H2 2977   1.117   1.390   0.856 -0.9186  1.4459  2.0763
 1005TIP3   OH2 2978   3.181   0.987   2.682 -0.3684 -0.1475  0.1209
 1005TIP3    H1 2979   3.092   0.954   2.692 -0.5090 -0.0882 -0.8185
 1005TIP3    H2 2980   3.231   0.943   2.751 -1.4132  0.9704  1.6644
 1006TIP3   OH2 2981   4.156   2.039   2.246 -0.0547  0.1040 -0.0519
 1006TIP3    H1 2982   4.171   1.952   2.285  0.7626 -0.3275 -1.2949
 1006TIP3    H2 2983   4.087   2.024   2.181  0.5394  0.2385 -0.7242
 1007TIP3   OH2 2984   0.341   1.623   2.800 -0.6783  0.4100 -0.0527
 1007TIP3    H1 2985   0.362   1.696   2.743  1.3498 -1.4736 -1.9450
 1007TIP3    H2 2986   0.416   1.616   2.859  0.4501 -1.5561 -1.5729
 1008TIP3   OH2 2987   6.505   0.568   1.271  0.0100  0.2996  0.0358
 1008TIP3    H1 2988   6.484   0.621   1.194  0.3834  0.9410  0.3738
 1008TIP3    H2 2989   6.479   0.621   1.346  0.2332 -0.0573  0.3700
 1009TIP3   OH2 2990   4.063   2.608   4.848 -0.2426  0.3001  0.1451
 1009TIP3    H1 2991   4.118   2.535   4.818 -0.6769  0.3982 -0.9253
 1009TIP3    H2 2992   3.974   2.581   4.826 -0.5610  0.4987  1.1399
 1010TIP3   OH2 2993   3.615   2.851   4.986  0.4079 -1.0740 -0.3574
 1010TIP3    H1 2994   3.687   2.877   4.929 -0.1293 -0.0665 -0.6068
 1010TIP3    H2 2995   3.544   2.827   4.926  0.1640 -0.9610 -0.1173
 1011TIP3   OH2 2996   6.177   5.722   3.940 -0.3942  0.1631  0.4628
 1011TIP3    H1 2997   6.090   5.738   3.904 -0.0022  0.9575 -0.1673
 1011TIP3    H2 2998   6.190   5.627   3.931 -0.7399  0.1980 -0.4971
 1012TIP3   OH2 2999   1.613   6.670   4.035 -0.2710 -0.6070  0.9468
 1012TIP3    H1 3000   1.632   6.682   4.128 -1.7863 -1.7249  1.4474
 1012TIP3    H2 3001   1.518   6.677   4.029 -0.0832  1.0146 -0.7934
 1013TIP3   OH2 3002   1.435   0.804   1.428  0.7554  0.2067  0.6353
 1013TIP3    H1 3003   1.494   0.781   1.357 -0.1876 -0.8388  0.1511
 1013TIP3    H2 3004   1.419   0.898   1.417 -1.2477 -0.3250 -2.0686
 1014TIP3   OH2 3005   2.026   1.397   3.420  0.2560 -0.3388  0.4240
 1014TIP3    H1 3006   2.031   1.409   3.325 -1.2321  0.7998  0.4516
 1014TIP3    H2 3007   2.063   1.311   3.436  0.2258 -0.6828 -1.2308
 1015TIP3   OH2 3008   3.109   5.107   1.609  0.2927 -0.3911  0.4379
 1015TIP3    H1 3009   3.152   5.123   1.525  1.2393  0.0152  0.9810
 1015TIP3    H2 3010   3.102   5.012   1.614  1.7778 -0.5074  0.6345
 1016TIP3   OH2 3011   5.675   5.004   2.771  0.4809  0.2049  0.1820
 1016TIP3    H1 3012   5.696   4.918   2.809  0.1250 -0.2187 -0.5527
 1016TIP3    H2 3013   5.580   5.006   2.767  0.5094  0.0442 -1.0834
 1017TIP3   OH2 3014   3.300   0.199   5.074 -0.0642  0.0844  0.1387
 1017TIP3    H1 3015   3.245   0.167   5.145  0.7869 -0.4576  0.5691
 1017TIP3    H2 3016   3.367   0.132   5.063  1.9644  1.7907  1.2667
 1018TIP3   OH2 3017   4.653   5.348   2.824 -0.3578  0.1138  0.1830
 1018TIP3    H1 3018   4.663   5.301   2.741 -0.6726  0.0822  0.1586
 1018TIP3    H2 3019   4.731   5.325   2.874 -1.7787 -2.8086  1.3156
 1019TIP3   OH2 3020   4.026   1.193   1.715  0.0568 -0.4396  0.0634
 1019TIP3    H1 3021   3.971   1.163   1.788  0.6672  0.4371  0.9164
 1019TIP3    H2 3022   3.977   1.169   1.637 -2.8288  2.5353  0.7502
 1020TIP3   OH2 3023   3.149   3.077   3.803 -0.3522 -0.1031  0.0156
 1020TIP3    H1 3024   3.055   3.072   3.816 -0.3817 -1.7086 -0.5569
 1020TIP3    H2 3025   3.160   3.112   3.714 -0.4708 -1.3736 -0.5196
 1021TIP3   OH2 3026   6.784   4.370   0.974 -0.4437  0.2412  0.6977
 1021TIP3    H1 3027   6.760   4.314   1.049 -2.0241 -1.6472 -1.0958
 1021TIP3    H2 3028   6.700   4.402   0.941  0.1867  0.6604 -0.5397
 1022TIP3   OH2 3029   0.950   5.831   1.729  0.8574  0.3886  0.3397
 1022TIP3    H1 3030   0.929   5.781   1.650  1.4336  2.6451 -1.3506
 1022TIP3    H2 3031   0.865   5.846   1.771  0.4941 -0.4731 -0.0520
 1023TIP3   OH2 3032   0.963   0.331   3.791 -0.2754  0.3682 -0.4276
 1023TIP3    H1 3033   1.058   0.324   3.785 -0.1564 -1.3633  2.2639
 1023TIP3    H2 3034   0.947   0.425   3.799  1.3285  0.6166  0.3278
 1024TIP3   OH2 3035   6.690   1.294  -0.007 -0.1017 -0.2937  0.4957
 1024TIP3    H1 3036   6.653   1.273   0.079 -2.1530 -0.7593 -0.4371
 1024TIP3    H2 3037   6.700   1.209  -0.050  0.5336 -0.0324  0.1188
 1025TIP3   OH2 3038   3.197   4.474   3.958  0.4932  0.6497  0.6367
 1025TIP3    H1 3039   3.229   4.460   3.869  0.6270 -1.9514  1.0082
 1025TIP3    H2 3040   3.247   4.549   3.990  1.7929  0.4644 -0.8310
 1026TIP3   OH2 3041   3.701   1.179   1.089  0.2526  0.1212  0.2259
 1026TIP3    H1 3042   3.791   1.150   1.070  0.2186  0.0389  0.1928
 1026TIP3    H2 3043   3.645   1.112   1.050  0.1794  0.0598  0.4361
 1027TIP3   OH2 3044   6.863   3.817   1.669 -0.1293  0.2385  0.0196
 1027TIP3    H1 3045   6.845   3.723   1.676  0.5152  0.2410  3.5262
 1027TIP3    H2 3046   6.794   3.859   1.720  1.1570  1.3969  0.9022
 1028TIP3   OH2 3047   1.192   0.736   2.376 -0.4486 -0.4873  0.0822
 1028TIP3    H1 3048   1.162   0.756   2.465  0.0603 -1.5951  0.5278
 1028TIP3    H2 3049   1.135   0.787   2.319 -0.0954  1.0833  1.0839
 1029TIP3   OH2 3050   6.355   6.357   0.395  0.1233 -0.3137 -0.5213
 1029TIP3    H1 3051   6.272   6.318   0.366 -0.1064  0.1176 -0.4570
 1029TIP3    H2 3052   6.342   6.375   0.488  0.0412  0.3826 -0.6652
 1030TIP3   OH2 3053   3.403   0.440   5.854 -0.2243 -0.5283 -0.1988
 1030TIP3    H1 3054   3.489   0.445   5.896  0.1005 -0.2619 -0.8802
 1030TIP3    H2 3055   3.394   0.523   5.808 -1.0310 -0.3834  0.1971
 1031TIP3   OH2 3056   6.046   0.956   2.866 -0.3367  0.2112 -0.2280
 1031TIP3    H1 3057   6.126   1.008   2.873 -0.4475  0.2306  1.0492
 1031TIP3    H2 3058   6.078   0.868   2.843 -0.0036  0.3786 -0.4226
 1032TIP3   OH2 3059   6.212   3.522   5.428  0.3279  0.7870 -0.4865
 1032TIP3    H1 3060   6.299   3.484   5.427 -0.8806 -2.2121 -0.3828
 1032TIP3    H2 3061   6.186   3.519   5.520 -0.7262 -0.5347 -0.7995
 1033TIP3   OH2 3062   3.019   6.306   4.040 -0.1833  0.0586  0.0504
 1033TIP3    H1 3063   3.067   6.224   4.025  2.2090  0.8821  2.5136
 1033TIP3    H2 3064   2.975   6.294   4.124 -1.3935  0.6640 -0.4663
 1034TIP3   OH2 3065   6.693   5.206   1.416  0.6970  0.1765 -0.0416
 1034TIP3    H1 3066   6.730   5.166   1.337  1.7429  2.4559 -0.7882
 1034TIP3    H2 3067   6.662   5.292   1.387  1.6173  1.3212  2.1091
 1035TIP3   OH2 3068   2.240   5.911   3.080 -0.1809  0.1275 -0.3366
 1035TIP3    H1 3069   2.170   5.975   3.091 -0.3222 -0.0005 -0.4711
 1035TIP3    H2 3070   2.318   5.963   3.060 -0.3724  0.2421 -0.8210
 1036TIP3   OH2 3071   0.981   0.036   5.275 -0.1474 -0.2090 -0.3200
 1036TIP3    H1 3072   0.974  -0.016   5.356  0.6834  0.1453 -0.0165
 1036TIP3    H2 3073   1.038  -0.015   5.219  1.0163  0.5632  0.1391
 1037TIP3   OH2 3074   3.989   5.542   0.655  0.2017  0.7020 -0.1627
 1037TIP3    H1 3075   3.926   5.518   0.722  0.2095  0.2198 -0.3270
 1037TIP3    H2 3076   4.057   5.475   0.660  1.6163  2.1334  1.1802
 1038TIP3   OH2 3077   6.433   1.091   3.757 -0.1131 -0.4427 -0.3623
 1038TIP3    H1 3078   6.413   1.159   3.692 -0.6180 -1.3177 -1.1438
 1038TIP3    H2 3079   6.360   1.095   3.818  0.1149  0.0510 -0.1134
 1039TIP3   OH2 3080   6.430  -0.011   5.208  0.7713 -0.3652 -0.4635
 1039TIP3    H1 3081   6.424   0.083   5.190 -1.2535 -0.0055  1.5840
 1039TIP3    H2 3082   6.517  -0.022   5.248  1.0718  0.6143 -0.8282
 1040TIP3   OH2 3083   1.227   3.935   5.712  0.1427 -0.1949  0.1873
 1040TIP3    H1 3084   1.296   4.000   5.724  1.0716 -1.2072  0.5408
 1040TIP3    H2 3085   1.218   3.926   5.617 -0.2928  0.7345  0.1286
 1041TIP3   OH2 3086   6.179   1.714   1.910  0.5801  0.4520  0.0738
 1041TIP3    H1 3087   6.224   1.654   1.850  0.0309  0.0909  0.0192
 1041TIP3    H2 3088   6.086   1.704   1.889  0.4610  1.1041  0.2700
 1042TIP3   OH2 3089   3.309   0.140   4.680  0.3473  0.4671 -0.1895
 1042TIP3    H1 3090   3.225   0.105   4.648  0.6389  1.0574 -1.6749
 1042TIP3    H2 3091   3.298   0.235   4.677  0.9043  0.5437  0.0789
 1043TIP3   OH2 3092   1.030   2.318   3.704  0.0820 -0.4181  0.1338
 1043TIP3    H1 3093   1.114   2.319   3.658  1.7990 -2.1392  2.9609
 1043TIP3    H2 3094   0.981   2.246   3.665  0.4349 -0.2484 -0.6366
 1044TIP3   OH2 3095   3.769   0.993   3.370 -0.0333 -0.0831  0.6876
 1044TIP3    H1 3096   3.744   1.062   3.308  1.0328  0.7189  1.1266
 1044TIP3    H2 3097   3.685   0.961   3.405 -0.6144 -0.0915 -0.6543
 1045TIP3   OH2 3098   2.301   4.622   5.359 -0.2713  0.2075  0.5525
 1045TIP3    H1 3099   2.361   4.688   5.325 -0.3772 -0.2880 -0.6581
 1045TIP3    H2 3100   2.330   4.605   5.448  0.5167  0.9851  0.4475
 1046TIP3   OH2 3101   4.975   5.262   1.839  0.0555 -0.0554  0.2574
 1046TIP3    H1 3102   4.931   5.344   1.864 -1.2500 -0.7039  0.1933
 1046TIP3    H2 3103   4.907   5.195   1.850  0.5569 -0.8794 -1.4270
 1047TIP3   OH2 3104   6.566   0.111   4.025  0.0923  0.4153  0.1211
 1047TIP3    H1 3105   6.502   0.124   3.955  1.9426  3.0996 -1.2619
 1047TIP3    H2 3106   6.637   0.171   4.003  1.1479  0.7793  3.9065
 1048TIP3   OH2 3107   1.921   5.329   0.973 -0.6385 -0.0830 -0.3262
 1048TIP3    H1 3108   1.995   5.328   0.913 -0.8012  0.8114 -0.5506
 1048TIP3    H2 3109   1.960   5.343   1.059 -0.6863  3.2530 -0.7346
 1049TIP3   OH2 3110   2.113   2.941   0.803  0.4747  0.2420  0.4375
 1049TIP3    H1 3111   2.030   2.988   0.799  0.2144 -0.2539 -2.7600
 1049TIP3    H2 3112   2.179   3.008   0.789  0.3807  0.2200 -0.1294
 1050TIP3   OH2 3113   4.284   0.868   0.608  0.6206  0.8657 -0.6281
 1050TIP3    H1 3114   4.309   0.961   0.608  2.4402  0.4224 -0.6235
 1050TIP3    H2 3115   4.242   0.855   0.523 -0.8129  1.9451 -0.1267
 1051TIP3   OH2 3116   6.307   2.714   0.734  0.0434  0.3677  0.1542
 1051TIP3    H1 3117   6.338   2.624   0.739 -1.4194 -0.1402  0.3745
 1051TIP3    H2 3118   6.299   2.731   0.640 -1.4382 -0.3793  0.1247
 1052TIP3   OH2 3119   2.877   6.717   5.619  0.2279  0.3082  0.1256
 1052TIP3    H1 3120   2.928   6.660   5.562 -0.8165  0.5624 -1.1259
 1052TIP3    H2 3121   2.932   6.794   5.631  0.9097 -0.2085  0.3693
 1053TIP3   OH2 3122   1.197   2.737   2.148  0.0740 -0.0274 -0.0878
 1053TIP3    H1 3123   1.233   2.794   2.080 -1.3174 -0.2512 -1.0611
 1053TIP3    H2 3124   1.216   2.648   2.117 -1.9952 -0.1846 -1.1019
 1054TIP3   OH2 3125   4.353   0.036   2.749  0.2348  0.2845  0.1331
 1054TIP3    H1 3126   4.273  -0.017   2.745 -2.2714  3.5403  1.4631
 1054TIP3    H2 3127   4.402  -0.000   2.823  0.4140 -2.1742 -1.0913
 1055TIP3   OH2 3128   4.425   3.499   3.197 -0.1873 -0.3659 -0.0149
 1055TIP3    H1 3129   4.489   3.557   3.238  0.5800 -1.4542  0.3811
 1055TIP3    H2 3130   4.440   3.509   3.103  1.6891 -1.7334  0.0626
 1056TIP3   OH2 3131   5.786   5.198   2.972 -0.2780 -0.3091 -0.2748
 1056TIP3    H1 3132   5.759   5.126   2.914  0.9355 -0.4528 -0.6748
 1056TIP3    H2 3133   5.877   5.215   2.950 -0.0271  0.1947  1.0406
 1057TIP3   OH2 3134   4.688   5.557   0.901  0.3200 -0.8760 -0.2939
 1057TIP3    H1 3135   4.748   5.495   0.943 -0.7612  0.3324  3.4697
 1057TIP3    H2 3136   4.603   5.515   0.907  0.1243 -0.6881 -1.5001
 1058TIP3   OH2 3137   2.212   3.729   2.051  0.0613  0.4121 -0.3256
 1058TIP3    H1 3138   2.236   3.638   2.035 -0.7510  0.0137  0.5859
 1058TIP3    H2 3139   2.295   3.776   2.055  0.5010 -0.3297 -0.5343
 1059TIP3   OH2 3140   4.075   4.478   5.400 -0.5430  0.3424 -0.4934
 1059TIP3    H1 3141   3.995   4.516   5.365 -0.4711  1.3384  0.3626
 1059TIP3    H2 3142   4.058   4.468   5.494  0.2393  0.3292 -0.3436
 1060TIP3   OH2 3143   2.613   3.677   0.345  1.1282  0.1850  0.6154
 1060TIP3    H1 3144   2.687   3.619   0.332  0.7473 -0.0504 -0.5684
 1060TIP3    H2 3145   2.617   3.738   0.272 -0.8283 -0.9032 -0.4741
 1061TIP3   OH2 3146   3.830   5.071   1.548 -0.0209  0.9569 -0.4883
 1061TIP3    H1 3147   3.780   5.000   1.507  0.9488 -0.4223  0.6332
 1061TIP3    H2 3148   3.799   5.073   1.638  0.7838  1.1862 -0.2095
 1062TIP3   OH2 3149   0.061   0.793   4.749  0.2088  0.2462  0.3232
 1062TIP3    H1 3150  -0.002   0.810   4.679 -0.2774  1.3477  1.0095
 1062TIP3    H2 3151   0.093   0.704   4.731 -0.9624 -0.0356 -0.4763
 1063TIP3   OH2 3152   4.767   0.845   5.715 -0.6870 -0.0700 -0.3017
 1063TIP3    H1 3153   4.679   0.822   5.745 -1.3090 -0.4476 -2.2601
 1063TIP3    H2 3154   4.753   0.916   5.652  0.0798 -1.7754 -2.5386
 1064TIP3   OH2 3155   3.875   3.279   4.597 -0.1221  0.6434  0.2121
 1064TIP3    H1 3156   3.823   3.199   4.600  0.9887 -0.1150  0.1196
 1064TIP3    H2 3157   3.942   3.266   4.664 -0.3372  1.8000  0.6596
 1065TIP3   OH2 3158   5.138   6.204   1.385  0.3432 -0.3506 -0.4172
 1065TIP3    H1 3159   5.187   6.276   1.346 -1.7452  1.3878 -0.0170
 1065TIP3    H2 3160   5.057   6.199   1.333 -1.6912  0.8403  2.3674
 1066TIP3   OH2 3161   2.531   4.526   4.828  0.1649  0.1060  0.3090
 1066TIP3    H1 3162   2.529   4.434   4.854 -2.1969 -0.8345 -2.6067
 1066TIP3    H2 3163   2.609   4.561   4.871  1.1272 -3.2005  1.6079
 1067TIP3   OH2 3164   6.746   3.942   0.205 -0.2744 -0.3493 -0.2058
 1067TIP3    H1 3165   6.754   4.017   0.145  1.2559 -0.9967 -0.8622
 1067TIP3    H2 3166   6.791   3.970   0.284  2.3948 -1.3256 -1.2656
 1068TIP3   OH2 3167   0.969   3.573   5.501  0.4709 -0.1898  0.0121
 1068TIP3    H1 3168   0.961   3.500   5.440 -0.9002  0.8011 -1.0558
 1068TIP3    H2 3169   0.922   3.645   5.458  1.3967  1.1890  1.2285
 1069TIP3   OH2 3170   6.879   2.491   4.716 -0.0044  0.0530  0.0103
 1069TIP3    H1 3171   6.934   2.419   4.746  2.1134  0.9676 -1.4494
 1069TIP3    H2 3172   6.900   2.564   4.774  0.2308  0.3676 -0.4612
 1070TIP3   OH2 3173   3.377   3.415   3.645 -0.5223 -0.4885  0.7689
 1070TIP3    H1 3174   3.418   3.497   3.618 -1.3514  0.1203  1.3383
 1070TIP3    H2 3175   3.372   3.422   3.740 -0.8916 -1.0674  0.7910
 1071TIP3   OH2 3176   6.776   3.442   4.387  0.1446 -0.2519  0.3541
 1071TIP3    H1 3177   6.804   3.379   4.453  0.2903  0.1941  0.7270
 1071TIP3    H2 3178   6.841   3.435   4.318  1.3501  0.9236  1.3073
 1072TIP3   OH2 3179   3.492   0.139   3.393 -0.0137  0.8790 -0.2512
 1072TIP3    H1 3180   3.499   0.160   3.486 -0.4449  0.9163 -0.2254
 1072TIP3    H2 3181   3.582   0.146   3.360  0.3170 -0.0911  0.3671
 1073TIP3   OH2 3182   3.012   1.311   0.142  0.0959  0.0951  0.3948
 1073TIP3    H1 3183   2.919   1.296   0.127  0.5012 -0.9384 -1.3040
 1073TIP3    H2 3184   3.028   1.276   0.230 -1.4066  1.8158  1.4297
 1074TIP3   OH2 3185   6.587   3.853  -0.020  0.3305 -0.0101 -0.3010
 1074TIP3    H1 3186   6.519   3.792   0.010  1.4368 -1.3470 -0.4551
 1074TIP3    H2 3187   6.650   3.856   0.052  0.8134  0.1464 -0.7285
 1075TIP3   OH2 3188   1.776   5.536   2.198  0.0067 -0.2239  0.0757
 1075TIP3    H1 3189   1.681   5.523   2.193 -0.1476 -0.0313  2.0174
 1075TIP3    H2 3190   1.809   5.455   2.237  0.3360  0.6663  1.6962
 1076TIP3   OH2 3191   5.239   3.988   3.335  0.3131 -0.1281 -0.0326
 1076TIP3    H1 3192   5.327   4.027   3.336  0.9855 -1.5554 -0.6917
 1076TIP3    H2 3193   5.245   3.916   3.397 -1.5040  1.8877  2.7382
 1077TIP3   OH2 3194   0.581   3.524   1.442  0.5885  0.1205 -0.8046
 1077TIP3    H1 3195   0.609   3.593   1.381  1.0952 -0.5206 -1.3165
 1077TIP3    H2 3196   0.662   3.476   1.463  0.3911  0.2169  0.2375
 1078TIP3   OH2 3197   4.341   1.307   2.221 -0.0356 -0.7244  0.1180
 1078TIP3    H1 3198   4.348   1.260   2.305  0.5329  0.1218  0.5620
 1078TIP3    H2 3199   4.428   1.347   2.210  0.1726 -1.5054 -1.2952
 1079TIP3   OH2 3200   0.912   1.842   2.930 -0.3195 -0.1665  0.1289
 1079TIP3    H1 3201   0.853   1.877   2.864 -1.9266  0.5034  1.8334
 1079TIP3    H2 3202   0.967   1.915   2.956  1.5653 -0.8545 -1.6531
 1080TIP3   OH2 3203   4.272   2.263   3.776  0.2695 -0.3947  0.6635
 1080TIP3    H1 3204   4.281   2.312   3.858 -2.2584  0.2431  0.6437
 1080TIP3    H2 3205   4.230   2.181   3.802  0.1833 -0.5299  0.0994
 1081TIP3   OH2 3206   3.573   0.458   1.237 -0.3204 -0.0557  0.4069
 1081TIP3    H1 3207   3.596   0.416   1.320 -0.8183  1.0178  1.1094
 1081TIP3    H2 3208   3.482   0.433   1.222 -0.2974 -0.0734  0.2978
 1082TIP3   OH2 3209   4.220   5.297   5.645  0.0126  0.3820 -0.0816
 1082TIP3    H1 3210   4.249   5.318   5.556 -0.9419  1.9086 -0.0507
 1082TIP3    H2 3211   4.301   5.295   5.697  0.4669  0.5294 -0.7744
 1083TIP3   OH2 3212   0.690   3.412   4.316 -0.4658 -0.2447  1.4410
 1083TIP3    H1 3213   0.660   3.330   4.276 -1.0783  0.8095 -0.3431
 1083TIP3    H2 3214   0.610   3.461   4.333 -0.0542  0.3290  1.7465
 1084TIP3   OH2 3215   5.885   2.010   3.611  0.1731 -0.1442  0.2996
 1084TIP3    H1 3216   5.833   1.932   3.632 -1.7446  1.5590  2.3552
 1084TIP3    H2 3217   5.937   2.026   3.689  0.1205  0.9696  0.1154
 1085TIP3   OH2 3218   0.829   1.977   5.543  0.2296 -0.4487  0.3407
 1085TIP3    H1 3219   0.766   2.002   5.610 -0.1979 -0.3796 -0.0830
 1085TIP3    H2 3220   0.893   1.922   5.589  0.0315 -0.2680  0.8347
 1086TIP3   OH2 3221   5.268   1.543   5.160  0.3602  0.6636  0.0623
 1086TIP3    H1 3222   5.272   1.474   5.227  0.1780  1.2624  0.7085
 1086TIP3    H2 3223   5.264   1.496   5.077  0.0329 -0.1092  0.5000
 1087TIP3   OH2 3224   2.999   4.650   1.493  0.3456  0.5419 -0.3630
 1087TIP3    H1 3225   2.996   4.555   1.506  1.5292  0.3762 -1.1118
 1087TIP3    H2 3226   2.915   4.682   1.526  0.1967 -0.6838  0.5119
 1088TIP3   OH2 3227   2.098   6.768   0.421  0.2415 -0.3055  0.2628
 1088TIP3    H1 3228   2.173   6.818   0.389 -0.3231 -1.2856 -2.9280
 1088TIP3    H2 3229   2.113   6.679   0.390 -1.6426 -0.8014  0.6398
 1089TIP3   OH2 3230   0.619   1.686   4.513  0.5715 -0.2306 -0.0153
 1089TIP3    H1 3231   0.552   1.649   4.456  0.4507 -1.0188  0.6214
 1089TIP3    H2 3232   0.673   1.740   4.455 -0.3592  0.0828 -0.6123
 1090TIP3   OH2 3233   3.000   0.239   2.805 -0.1159 -0.1740  0.2352
 1090TIP3    H1 3234   3.030   0.175   2.870 -1.3216 -2.9211 -1.7298
 1090TIP3    H2 3235   2.992   0.190   2.724 -1.9953  2.2892 -1.2297
 1091TIP3   OH2 3236   2.904   3.323   0.851 -0.7160  0.0806 -0.0953
 1091TIP3    H1 3237   2.956   3.380   0.794 -1.3178  0.4926 -0.2412
 1091TIP3    H2 3238   2.911   3.362   0.937  1.3539 -1.3180  0.4454
 1092TIP3   OH2 3239   4.789   1.665   4.936 -0.2796 -0.2459  0.0751
 1092TIP3    H1 3240   4.738   1.600   4.888  0.2673 -0.5356 -0.1081
 1092TIP3    H2 3241   4.722   1.725   4.971 -0.7324 -0.4657 -0.3910
 1093TIP3   OH2 3242   0.381   0.450   1.449  0.1074 -0.2035  0.1189
 1093TIP3    H1 3243   0.384   0.394   1.526 -0.1316 -1.4635 -0.7489
 1093TIP3    H2 3244   0.306   0.508   1.465  0.7953  0.3839  1.3479
 1094TIP3   OH2 3245   6.832   5.913   3.151 -0.0230 -0.6247 -0.0390
 1094TIP3    H1 3246   6.794   5.907   3.239  1.1733 -3.0951  0.4094
 1094TIP3    H2 3247   6.792   5.840   3.103  1.6135 -1.2355 -0.5461
 1095TIP3   OH2 3248   6.309   5.345   3.490 -0.1437 -0.1889 -0.4893
 1095TIP3    H1 3249   6.270   5.307   3.569  1.9429  0.3043  0.8548
 1095TIP3    H2 3250   6.265   5.429   3.480 -0.3385 -0.1902  0.2447
 1096TIP3   OH2 3251   5.402   5.642   1.605  0.3650 -0.0620 -0.0066
 1096TIP3    H1 3252   5.375   5.592   1.682 -1.8287 -0.8403 -1.1856
 1096TIP3    H2 3253   5.361   5.727   1.615 -0.1948 -0.2740 -0.4469
 1097TIP3   OH2 3254   1.274   1.456   5.688  0.1942  0.2125  0.2935
 1097TIP3    H1 3255   1.347   1.397   5.706  0.1529 -0.1818 -0.7691
 1097TIP3    H2 3256   1.267   1.511   5.767  1.3676 -0.0139  0.5652
 1098TIP3   OH2 3257   6.870   2.986   3.862  0.8755 -0.3699  0.2310
 1098TIP3    H1 3258   6.915   3.053   3.913  1.3052 -0.2342 -0.3285
 1098TIP3    H2 3259   6.804   3.034   3.812  0.0672 -0.5688  1.0626
 1099TIP3   OH2 3260   0.880   0.857   1.354 -0.4090  0.4010 -0.3415
 1099TIP3    H1 3261   0.881   0.940   1.306  1.4958  1.2681  1.0422
 1099TIP3    H2 3262   0.821   0.873   1.428  0.7293  0.9069  0.4816
 1100TIP3   OH2 3263   6.468   4.305   2.492 -0.4191  0.6395 -0.0629
 1100TIP3    H1 3264   6.401   4.363   2.456  1.2637  1.1030 -2.7135
 1100TIP3    H2 3265   6.437   4.217   2.472 -0.6804  0.8138 -0.4312
 1101TIP3   OH2 3266   0.626   3.086   3.552 -0.5559 -0.0341 -0.1225
 1101TIP3    H1 3267   0.599   3.104   3.642  1.2199  0.9288  0.2609
 1101TIP3    H2 3268   0.557   3.029   3.518 -1.6225  0.1229  1.6117
 1102TIP3   OH2 3269   1.240   0.848   3.070  0.5113  0.2724  0.4491
 1102TIP3    H1 3270   1.238   0.944   3.073  0.0054  0.2650  0.5018
 1102TIP3    H2 3271   1.333   0.826   3.065  0.6448  0.7555  0.7358
 1103TIP3   OH2 3272   3.266   2.152   2.537 -0.0038  0.8908  0.1960
 1103TIP3    H1 3273   3.264   2.057   2.537  0.4383  0.8582 -1.6262
 1103TIP3    H2 3274   3.343   2.175   2.589  0.7938  0.2205 -0.6848
 1104TIP3   OH2 3275   6.744   0.591   1.025 -0.4397 -0.2872 -0.2194
 1104TIP3    H1 3276   6.820   0.533   1.031 -2.0361 -2.4277  0.9135
 1104TIP3    H2 3277   6.739   0.633   1.110 -0.4828 -0.1004 -0.3142
 1105TIP3   OH2 3278   5.007   3.258   1.988  0.3297  0.5112  0.0060
 1105TIP3    H1 3279   5.054   3.326   2.037 -0.6097  2.4369 -1.6148
 1105TIP3    H2 3280   4.930   3.240   2.042  1.9608 -1.4884  1.8706
 1106TIP3   OH2 3281   4.226   0.564   0.982  0.1340  0.1623  0.0326
 1106TIP3    H1 3282   4.235   0.630   1.052  0.4584  0.2034 -0.0468
 1106TIP3    H2 3283   4.133   0.564   0.962  0.5176  3.5490 -2.7817
 1107TIP3   OH2 3284   2.786   0.039   0.914 -0.3441  0.4177 -0.3688
 1107TIP3    H1 3285   2.822  -0.042   0.878  1.1261 -0.3330  2.4854
 1107TIP3    H2 3286   2.719   0.066   0.850  0.4296 -1.9773 -2.3554
 1108TIP3   OH2 3287   1.013   1.654   2.661 -0.0657  0.1909  0.9887
 1108TIP3    H1 3288   0.987   1.669   2.570  0.9643  0.0338  0.6514
 1108TIP3    H2 3289   1.105   1.681   2.664  0.8678 -2.7104  1.1923
 1109TIP3   OH2 3290   6.557   4.819   0.281  0.5548 -0.6880 -0.2348
 1109TIP3    H1 3291   6.519   4.746   0.329  0.6418 -0.6527 -0.1110
 1109TIP3    H2 3292   6.641   4.785   0.250  1.9485  0.2294  2.2431
 1110TIP3   OH2 3293   3.740   4.185   0.090 -0.0575 -0.0460  0.1033
 1110TIP3    H1 3294   3.803   4.245   0.130 -1.1351  0.1743  1.5428
 1110TIP3    H2 3295   3.672   4.242   0.054 -1.9908 -0.2928  2.9808
 1111TIP3   OH2 3296   5.826   5.363   5.771  0.3552  0.4299 -0.5433
 1111TIP3    H1 3297   5.768   5.410   5.710  0.5936 -1.0102 -1.9467
 1111TIP3    H2 3298   5.904   5.343   5.720  1.1827  0.4112  0.6829
 1112TIP3   OH2 3299   4.281   2.411   1.435 -0.0810  0.0391  0.4406
 1112TIP3    H1 3300   4.340   2.347   1.394  0.9480 -0.4997  2.5869
 1112TIP3    H2 3301   4.335   2.490   1.444 -0.4949  0.3524  0.1559
 1113TIP3   OH2 3302   0.940   2.379   0.282 -0.0731 -0.2591  0.4174
 1113TIP3    H1 3303   1.020   2.369   0.229  0.6095  1.6160  0.9986
 1113TIP3    H2 3304   0.960   2.336   0.364 -0.3534 -1.3517 -0.0697
 1114TIP3   OH2 3305   3.778   5.276   4.720 -0.3345 -0.4797 -0.1228
 1114TIP3    H1 3306   3.689   5.246   4.738 -0.1512  0.1030  2.0052
 1114TIP3    H2 3307   3.781   5.366   4.753  1.2768 -0.7922  0.7190
 1115TIP3   OH2 3308   1.439   5.477   0.161 -0.4730 -0.1329 -0.1557
 1115TIP3    H1 3309   1.418   5.549   0.102 -0.2407 -0.1412 -0.2509
 1115TIP3    H2 3310   1.405   5.399   0.118 -0.2958 -0.1397 -0.2840
 1116TIP3   OH2 3311   1.481   6.607   0.633 -0.1677 -0.7784 -0.5189
 1116TIP3    H1 3312   1.473   6.685   0.578  0.3962  0.1351  0.6406
 1116TIP3    H2 3313   1.391   6.578   0.645 -0.2826 -1.1527 -2.1090
 1117TIP3   OH2 3314   3.209   2.181   3.925 -0.3296 -0.5738  0.3145
 1117TIP3    H1 3315   3.214   2.276   3.921  1.9403 -0.6635 -0.4537
 1117TIP3    H2 3316   3.151   2.157   3.853  1.4728  0.1505 -1.4670
 1118TIP3   OH2 3317   1.042   3.557   2.717 -0.4594  0.2990 -0.1571
 1118TIP3    H1 3318   1.024   3.521   2.804  2.5267 -1.1727 -0.0439
 1118TIP3    H2 3319   1.072   3.647   2.734  1.0739 -0.3049  0.4773
 1119TIP3   OH2 3320   1.231   1.654   3.443  0.7424  0.0149 -0.1350
 1119TIP3    H1 3321   1.161   1.591   3.422 -0.3945  1.1009  0.2698
 1119TIP3    H2 3322   1.301   1.633   3.381 -1.4245  1.3282 -3.2848
 1120TIP3   OH2 3323   2.999   0.631   1.891  0.6821  0.8848 -0.0933
 1120TIP3    H1 3324   2.975   0.591   1.807 -0.7725  2.0321 -0.2768
 1120TIP3    H2 3325   3.086   0.596   1.911  0.8744  0.2513 -1.8637
 1121TIP3   OH2 3326   4.006   0.899   5.446 -0.0127 -0.7320 -0.3107
 1121TIP3    H1 3327   4.033   0.958   5.517 -0.3706 -0.8223 -0.0973
 1121TIP3    H2 3328   3.975   0.821   5.491 -0.6626 -0.6132 -0.5477
 1122TIP3   OH2 3329   3.792   1.342   2.436  0.3003 -0.1507 -0.4258
 1122TIP3    H1 3330   3.705   1.349   2.475  1.0202 -1.9833  1.7397
 1122TIP3    H2 3331   3.852   1.373   2.504  1.5049 -1.7051 -0.7101
 1123TIP3   OH2 3332   2.279   0.101   2.715 -0.0129 -0.5794 -0.0116
 1123TIP3    H1 3333   2.316   0.119   2.629 -0.1328 -1.5143 -0.2705
 1123TIP3    H2 3334   2.349   0.125   2.776  0.1318 -0.0623 -0.3704
 1124TIP3   OH2 3335   3.126   3.888   4.868 -0.2292 -0.0284 -0.4604
 1124TIP3    H1 3336   3.160   3.799   4.869 -1.3685 -0.5027 -1.2051
 1124TIP3    H2 3337   3.036   3.879   4.835 -1.5435  1.0119  2.5144
 1125TIP3   OH2 3338   2.398   5.790   3.977 -0.4454 -0.1423  0.0213
 1125TIP3    H1 3339   2.376   5.697   3.982  1.3131 -0.7495 -1.9870
 1125TIP3    H2 3340   2.397   5.809   3.883 -1.8503  2.1904  0.4356
 1126TIP3   OH2 3341   5.520   5.007   0.035 -0.1768  0.1732 -0.2580
 1126TIP3    H1 3342   5.556   4.958   0.109  1.3564 -1.7545 -2.1516
 1126TIP3    H2 3343   5.537   5.099   0.057  1.4792 -0.4125  1.1855
 1127TIP3   OH2 3344   5.681   4.462   3.078 -0.6167  0.2631 -0.0408
 1127TIP3    H1 3345   5.616   4.518   3.121 -0.4760  1.0007 -0.7455
 1127TIP3    H2 3346   5.630   4.388   3.045 -0.3012 -2.1092  4.1329
 1128TIP3   OH2 3347   4.710   4.253   5.090 -0.7710 -0.2477  0.1123
 1128TIP3    H1 3348   4.651   4.180   5.071 -1.7019 -0.0536  2.0909
 1128TIP3    H2 3349   4.739   4.283   5.004 -0.6906 -2.6605 -0.7739
 1129TIP3   OH2 3350   0.344   4.854   0.368 -0.3343  0.6779 -0.1215
 1129TIP3    H1 3351   0.287   4.905   0.426 -0.1357  1.4914 -0.6315
 1129TIP3    H2 3352   0.388   4.919   0.314 -0.1207 -0.0444 -0.8342
 1130TIP3   OH2 3353   5.774   3.750   3.863 -0.4804  0.0022 -0.2041
 1130TIP3    H1 3354   5.799   3.766   3.772 -0.5962  0.5139 -0.1532
 1130TIP3    H2 3355   5.729   3.830   3.889 -1.7924 -0.7234 -0.1623
 1131TIP3   OH2 3356   2.973   4.753   4.198  0.4792 -0.3775  0.0536
 1131TIP3    H1 3357   2.879   4.751   4.216  0.3597 -1.2085 -0.5809
 1131TIP3    H2 3358   2.984   4.830   4.142  0.0329 -0.7303 -0.5399
 1132TIP3   OH2 3359   1.798   5.738   3.206  0.1085 -0.2881  0.6294
 1132TIP3    H1 3360   1.739   5.763   3.277 -1.2548  0.3617 -0.6656
 1132TIP3    H2 3361   1.853   5.815   3.192 -1.2851  0.5520 -0.5904
 1133TIP3   OH2 3362   6.677   3.116   1.489  0.3866  0.3676  0.2570
 1133TIP3    H1 3363   6.598   3.167   1.472 -0.6593 -2.0514 -3.3683
 1133TIP3    H2 3364   6.655   3.062   1.564 -2.2422 -1.4761 -1.6598
 1134TIP3   OH2 3365   3.948   2.056   5.221 -0.3993 -0.6100 -0.4558
 1134TIP3    H1 3366   3.950   2.039   5.316 -0.5442 -1.5971 -0.6266
 1134TIP3    H2 3367   3.877   2.002   5.188 -1.0670  0.5563 -0.9865
 1135TIP3   OH2 3368   6.008   3.594   3.376  0.3560  0.1897  0.0782
 1135TIP3    H1 3369   6.007   3.508   3.418  0.6052 -0.0931 -0.4822
 1135TIP3    H2 3370   6.057   3.650   3.436 -1.8604  0.5937  1.6573
 1136TIP3   OH2 3371   1.005   0.453   2.644 -0.2286  0.7384  0.2518
 1136TIP3    H1 3372   0.931   0.393   2.635  0.0179  0.2598  1.2185
 1136TIP3    H2 3373   0.986   0.524   2.583 -0.7471 -0.1048 -0.6010
 1137TIP3   OH2 3374   0.704   6.339   5.904 -0.2629  0.1796  0.0540
 1137TIP3    H1 3375   0.672   6.256   5.869 -1.2293  1.0921 -1.3297
 1137TIP3    H2 3376   0.773   6.365   5.843  1.4718 -0.5509  1.6196
 1138TIP3   OH2 3377   5.444   2.166   5.724 -0.0573  0.4430  0.0398
 1138TIP3    H1 3378   5.368   2.186   5.669  0.2841  0.5607 -0.3939
 1138TIP3    H2 3379   5.407   2.153   5.812 -0.8064 -1.2048 -0.4678
 1139TIP3   OH2 3380   5.425   4.406   3.432 -0.4821  0.1437  0.1697
 1139TIP3    H1 3381   5.350   4.368   3.477 -2.3741  1.0811 -1.9437
 1139TIP3    H2 3382   5.443   4.344   3.361  1.7842 -0.8110  1.4850
 1140TIP3   OH2 3383   0.597   5.692   3.026 -0.0497  0.0998  0.4964
 1140TIP3    H1 3384   0.520   5.663   3.074  0.1206 -2.8297 -0.7707
 1140TIP3    H2 3385   0.564   5.721   2.941  0.1607 -0.8122  0.0867
 1141TIP3   OH2 3386   6.038   5.941   1.443  0.6470  0.4411 -0.1753
 1141TIP3    H1 3387   6.110   5.879   1.456  0.7101  0.0998 -1.9187
 1141TIP3    H2 3388   6.079   6.027   1.451  0.9023  0.2602  0.5249
 1142TIP3   OH2 3389   6.354   5.273   4.357  0.5129  0.0046 -0.5392
 1142TIP3    H1 3390   6.338   5.181   4.337 -0.9435 -0.2672  1.5425
 1142TIP3    H2 3391   6.447   5.286   4.336  0.3211 -1.4231 -2.5530
 1143TIP3   OH2 3392   1.252   2.126   5.765 -0.3261  0.0799 -0.3325
 1143TIP3    H1 3393   1.304   2.206   5.764  1.7143 -1.1334  0.7073
 1143TIP3    H2 3394   1.245   2.103   5.858 -0.9829 -0.8811 -0.6050
 1144TIP3   OH2 3395   4.828   3.953   3.055 -0.2532  0.5913  0.0081
 1144TIP3    H1 3396   4.851   4.005   3.132 -2.0665  0.3663  0.7654
 1144TIP3    H2 3397   4.890   3.881   3.055 -1.5882 -0.7160  2.6810
 1145TIP3   OH2 3398   3.074   1.460   3.253  0.0329 -0.4199 -0.5727
 1145TIP3    H1 3399   3.042   1.396   3.316 -1.6120  1.0392  0.1421
 1145TIP3    H2 3400   3.029   1.541   3.276  1.8129  0.9464 -1.6365
 1146TIP3   OH2 3401   2.959   0.089   2.587 -0.2359 -0.4422 -0.1201
 1146TIP3    H1 3402   2.868   0.111   2.566 -0.1785  1.2199  1.1276
 1146TIP3    H2 3403   2.997   0.062   2.504 -1.0177  2.0387 -1.3838
 1147TIP3   OH2 3404   3.292   2.082   3.017 -0.5005 -0.1131  0.1993
 1147TIP3    H1 3405   3.289   2.178   3.014  0.6211 -0.0798 -2.3237
 1147TIP3    H2 3406   3.380   2.062   3.049  0.2285 -0.2037 -1.7112
 1148TIP3   OH2 3407   6.859   6.502   3.438  0.1063 -0.3281 -0.0603
 1148TIP3    H1 3408   6.858   6.548   3.523  1.0339 -0.8242  0.2262
 1148TIP3    H2 3409   6.917   6.428   3.452  0.7797 -0.0548 -1.3328
 1149TIP3   OH2 3410   2.559   1.919   0.702  0.5426 -0.0411  0.4096
 1149TIP3    H1 3411   2.505   1.870   0.764 -0.8227  0.2653 -0.5007
 1149TIP3    H2 3412   2.645   1.924   0.744  0.0128 -0.9780  1.6687
 1150TIP3   OH2 3413   5.027   2.464   1.240  0.1653 -0.3301  0.1914
 1150TIP3    H1 3414   5.086   2.478   1.314  3.2279  0.8465 -2.2264
 1150TIP3    H2 3415   5.023   2.549   1.196 -2.6479 -0.6316 -0.3453
 1151TIP3   OH2 3416   3.889   4.667   3.629 -0.4489  0.8915  0.2364
 1151TIP3    H1 3417   3.839   4.649   3.550  0.9945  0.3056 -0.5846
 1151TIP3    H2 3418   3.922   4.756   3.617  0.7181  0.3895 -0.3709
 1152TIP3   OH2 3419   2.717   6.452   4.203 -0.0545 -0.0904  0.4278
 1152TIP3    H1 3420   2.722   6.523   4.140  2.3840 -0.3591  0.2038
 1152TIP3    H2 3421   2.797   6.461   4.256 -1.1043 -0.9749  2.2755
 1153TIP3   OH2 3422   3.778   5.570   4.287 -0.0872 -0.4966 -0.1803
 1153TIP3    H1 3423   3.835   5.638   4.322  0.2457 -0.5781 -0.5668
 1153TIP3    H2 3424   3.731   5.537   4.364  0.3581 -0.4073  0.1335
 1154TIP3   OH2 3425   6.245   3.933   2.850  0.3064 -0.4581  0.5125
 1154TIP3    H1 3426   6.247   4.019   2.893  2.0501 -0.8448  1.2751
 1154TIP3    H2 3427   6.333   3.923   2.813 -0.6232 -0.8672 -1.7591
 1155TIP3   OH2 3428   1.248   0.974   4.060 -0.4118 -0.0292  0.9986
 1155TIP3    H1 3429   1.328   0.997   4.107  0.6886 -0.2672 -0.6531
 1155TIP3    H2 3430   1.279   0.930   3.980 -2.1445  0.7988 -0.1964
 1156TIP3   OH2 3431   5.928   4.024   4.709  0.5131  1.0117 -0.8860
 1156TIP3    H1 3432   5.994   3.956   4.696 -0.8164 -1.2378  2.4947
 1156TIP3    H2 3433   5.950   4.062   4.794 -1.9144  0.8627 -0.1270
 1157TIP3   OH2 3434   3.243   3.507   3.002 -0.3748 -0.0715  0.3389
 1157TIP3    H1 3435   3.181   3.439   3.030 -0.0136 -0.0789  1.1355
 1157TIP3    H2 3436   3.206   3.589   3.035 -0.4721  0.0384 -0.0463
 1158TIP3   OH2 3437   5.092   0.186   2.684  0.5701 -0.5590 -0.1956
 1158TIP3    H1 3438   5.037   0.227   2.618  1.4374  0.0332 -0.5708
 1158TIP3    H2 3439   5.031   0.140   2.742 -0.2674 -0.2998 -0.8624
 1159TIP3   OH2 3440   6.028   2.028   3.861  0.1047  1.1184  0.2393
 1159TIP3    H1 3441   5.973   2.093   3.904 -1.3296 -0.5575  1.0778
 1159TIP3    H2 3442   6.067   1.978   3.933 -1.6297 -1.1657 -0.2781
 1160TIP3   OH2 3443   2.812   5.491   5.711  0.0883 -0.3367 -0.1710
 1160TIP3    H1 3444   2.775   5.408   5.743 -0.4935  0.3573  1.0298
 1160TIP3    H2 3445   2.898   5.496   5.753 -0.5365  0.4118  1.0859
 1161TIP3   OH2 3446   2.746   3.581   0.065  0.2799  0.4694  0.2372
 1161TIP3    H1 3447   2.740   3.486   0.073  1.2996  0.1637 -1.8400
 1161TIP3    H2 3448   2.826   3.604   0.110  1.7341 -0.1374 -1.8888
 1162TIP3   OH2 3449   1.498   3.165   2.119 -0.1103 -0.6437 -0.6878
 1162TIP3    H1 3450   1.505   3.250   2.075  1.7712 -0.1530  0.4178
 1162TIP3    H2 3451   1.491   3.186   2.212  0.3999 -1.6935 -0.3903
 1163TIP3   OH2 3452   1.267   4.880   4.675 -0.2205  0.3517 -0.2249
 1163TIP3    H1 3453   1.246   4.873   4.768 -2.5568 -0.0298 -0.7188
 1163TIP3    H2 3454   1.230   4.801   4.636  2.0162 -0.2385 -1.3136
 1164TIP3   OH2 3455   2.806   6.007   5.490 -0.2420 -0.2237 -0.1566
 1164TIP3    H1 3456   2.858   6.086   5.505  1.6557 -1.5188  0.3554
 1164TIP3    H2 3457   2.741   6.008   5.560 -0.0388  0.7232  0.0311
 1165TIP3   OH2 3458   3.643   2.439   0.108  0.2561  0.3770 -0.7443
 1165TIP3    H1 3459   3.628   2.429   0.202 -2.0140 -0.9021 -1.1465
 1165TIP3    H2 3460   3.594   2.518   0.084 -0.2855 -0.0417 -1.0395
 1166TIP3   OH2 3461   4.003   4.774   5.892 -0.1311  0.4500  0.8842
 1166TIP3    H1 3462   3.989   4.864   5.922 -2.1236  0.3519  0.4080
 1166TIP3    H2 3463   4.004   4.781   5.796 -5.2542 -0.4476  0.4799
 1167TIP3   OH2 3464   5.884   5.259   5.137 -0.1708  0.4871  0.1717
 1167TIP3    H1 3465   5.935   5.224   5.210 -0.3195  2.7515  1.4417
 1167TIP3    H2 3466   5.797   5.220   5.148 -0.4039  1.3722  1.6733
 1168TIP3   OH2 3467   0.198   0.320   5.729 -0.0790 -0.1844 -0.0133
 1168TIP3    H1 3468   0.204   0.247   5.667  0.1326 -1.4513  1.4529
 1168TIP3    H2 3469   0.243   0.289   5.807  0.0466  1.5518  0.6404
 1169TIP3   OH2 3470   3.754   3.229   0.727  0.7584  0.3947  0.0986
 1169TIP3    H1 3471   3.833   3.204   0.680  2.1403  1.5302  1.7229
 1169TIP3    H2 3472   3.764   3.190   0.814 -0.7253  0.1315  0.1772
 1170TIP3   OH2 3473   0.769   6.058   2.099 -0.2518  0.4214 -0.5705
 1170TIP3    H1 3474   0.762   6.009   2.181  1.5795 -0.3101 -0.8294
 1170TIP3    H2 3475   0.790   6.147   2.127  1.9592 -0.1479 -0.2297
 1171TIP3   OH2 3476   1.313   0.634   4.754  0.5902 -0.2287  0.3747
 1171TIP3    H1 3477   1.231   0.584   4.749  1.1810 -1.1820 -0.0693
 1171TIP3    H2 3478   1.313   0.671   4.843 -1.0602  1.1247 -0.1359
 1172TIP3   OH2 3479   4.550   2.661   5.334  0.7220  0.0520 -0.2705
 1172TIP3    H1 3480   4.545   2.573   5.372  0.8675  0.1027 -0.1283
 1172TIP3    H2 3481   4.483   2.711   5.381  1.4018  0.3074  0.4613
 1173TIP3   OH2 3482   2.761   6.072   1.729 -0.3439 -0.0136  0.1733
 1173TIP3    H1 3483   2.809   6.139   1.680  1.1967 -0.0124  1.6023
 1173TIP3    H2 3484   2.724   6.015   1.661 -0.0746  1.1640 -1.0164
 1174TIP3   OH2 3485   2.914   1.751   4.570 -0.1479  0.0455  0.7595
 1174TIP3    H1 3486   2.830   1.707   4.559 -0.5095  0.3076  2.3466
 1174TIP3    H2 3487   2.977   1.680   4.582 -0.1801 -0.1363 -0.0775
 1175TIP3   OH2 3488   0.750   2.543   3.224  0.2617 -0.4786  0.1282
 1175TIP3    H1 3489   0.720   2.532   3.133 -0.7142 -2.3330  0.6170
 1175TIP3    H2 3490   0.835   2.500   3.226 -0.7270 -2.5597  0.5556
 1176TIP3   OH2 3491   1.492   3.818   2.471  0.8836 -0.0683  0.6959
 1176TIP3    H1 3492   1.534   3.838   2.387 -1.1197 -1.4420 -0.7286
 1176TIP3    H2 3493   1.531   3.736   2.499 -0.3406 -1.0661 -0.3620
 1177TIP3   OH2 3494   3.330   4.764   5.344  0.2924 -0.0684 -0.5874
 1177TIP3    H1 3495   3.257   4.703   5.335  0.6514 -0.3516 -1.8396
 1177TIP3    H2 3496   3.399   4.714   5.388 -0.0292 -0.0014  0.0007
 1178TIP3   OH2 3497   4.161   3.035   2.833  0.2207  0.1650 -0.1258
 1178TIP3    H1 3498   4.122   2.966   2.886 -0.6020  0.2945 -0.5470
 1178TIP3    H2 3499   4.212   2.989   2.766  0.2391 -0.0224  0.0187
 1179TIP3   OH2 3500   1.085   3.150   4.665  0.5205  0.3746 -0.3656
 1179TIP3    H1 3501   1.152   3.085   4.643  0.8826  0.8205 -0.6088
 1179TIP3    H2 3502   1.033   3.160   4.586 -1.0241 -1.3280  0.3663
 1180TIP3   OH2 3503   5.918   6.254   1.193  0.1659  0.7141  0.2765
 1180TIP3    H1 3504   5.935   6.213   1.108 -1.6528 -3.1601  1.5470
 1180TIP3    H2 3505   5.825   6.277   1.190 -0.0455  0.0662  1.3376
 1181TIP3   OH2 3506   4.829   3.089   5.606  0.4681  0.2514 -0.0037
 1181TIP3    H1 3507   4.738   3.113   5.623  0.7277  1.7814 -0.5782
 1181TIP3    H2 3508   4.832   3.071   5.512  0.5387 -0.9595  0.2147
 1182TIP3   OH2 3509   0.767   4.466   1.757 -0.2637 -0.6845 -0.6711
 1182TIP3    H1 3510   0.741   4.374   1.764 -0.7199 -0.4217  2.9403
 1182TIP3    H2 3511   0.685   4.514   1.751 -0.3717 -0.3809  1.8470
 1183TIP3   OH2 3512   4.925   3.348   3.313  0.2328  0.1864 -0.1901
 1183TIP3    H1 3513   5.003   3.299   3.340 -0.9917 -3.0750 -2.0301
 1183TIP3    H2 3514   4.852   3.299   3.350 -1.1052  2.8371  1.0127
 1184TIP3   OH2 3515   1.770   5.413   5.595  0.0042  0.6325 -0.1090
 1184TIP3    H1 3516   1.810   5.351   5.534  0.7670  0.3842  0.6328
 1184TIP3    H2 3517   1.703   5.362   5.640 -0.8148  0.9090 -0.9665
 1185TIP3   OH2 3518   2.185   5.836   0.976  0.0932 -0.3927  0.1783
 1185TIP3    H1 3519   2.203   5.888   0.898  0.8910 -1.5584 -0.4360
 1185TIP3    H2 3520   2.091   5.816   0.970 -0.1334  0.6096  0.2141
 1186TIP3   OH2 3521   6.578   6.602   3.393 -0.2538  0.0137 -0.2213
 1186TIP3    H1 3522   6.673   6.596   3.404 -0.0859  0.9977 -0.9801
 1186TIP3    H2 3523   6.543   6.541   3.458  0.9045 -0.7003 -0.2287
 1187TIP3   OH2 3524   0.031   2.975   4.596  0.0612 -0.1624 -0.4107
 1187TIP3    H1 3525   0.010   3.003   4.684 -3.0180  0.2045 -1.1641
 1187TIP3    H2 3526   0.004   2.883   4.592 -1.3677  0.2648 -1.3722
 1188TIP3   OH2 3527   5.767   5.888   3.449 -0.5706 -0.3502  0.0162
 1188TIP3    H1 3528   5.727   5.923   3.528 -1.0236 -1.6529  0.3912
 1188TIP3    H2 3529   5.858   5.920   3.451 -0.6430 -0.1920  0.9393
 1189TIP3   OH2 3530   6.650   0.677   3.517 -0.0732  0.1043  1.0167
 1189TIP3    H1 3531   6.707   0.650   3.590  2.2592 -0.2150 -0.8055
 1189TIP3    H2 3532   6.673   0.768   3.501 -0.6577  0.2086  0.7661
 1190TIP3   OH2 3533   1.577   5.102   4.702 -0.0318 -0.1247  0.7852
 1190TIP3    H1 3534   1.522   5.151   4.764  0.7423 -2.3520  3.4449
 1190TIP3    H2 3535   1.662   5.146   4.705 -0.0985 -0.0097  1.0169
 1191TIP3   OH2 3536   2.002   2.639   5.275 -0.3846  0.2960 -0.0183
 1191TIP3    H1 3537   1.926   2.586   5.296 -0.7929  0.8929  0.0382
 1191TIP3    H2 3538   2.075   2.595   5.319 -0.4807 -0.9620 -1.0973
 1192TIP3   OH2 3539   4.846   0.983   0.621  0.0299 -0.9048  0.3812
 1192TIP3    H1 3540   4.884   0.983   0.533  1.1320  0.1251  0.8343
 1192TIP3    H2 3541   4.885   1.059   0.664 -4.2702  1.7579  0.1756
 1193TIP3   OH2 3542   4.183   6.727   2.031  0.3917 -0.4429  0.8601
 1193TIP3    H1 3543   4.220   6.703   1.946  0.0534  2.1116 -0.0819
 1193TIP3    H2 3544   4.230   6.672   2.094  3.4200  0.2675 -0.6017
 1194TIP3   OH2 3545   5.787   1.622   1.499 -0.0668  0.3877 -0.0399
 1194TIP3    H1 3546   5.691   1.623   1.493 -0.0258  2.0586 -0.9992
 1194TIP3    H2 3547   5.806   1.665   1.582 -0.1471 -0.7760  0.5970
 1195TIP3   OH2 3548   0.793   6.070   5.131  0.2507 -0.1938 -0.3958
 1195TIP3    H1 3549   0.845   6.024   5.196 -1.0373 -0.1541  0.7024
 1195TIP3    H2 3550   0.850   6.139   5.098  0.6982  0.2411  1.2230
 1196TIP3   OH2 3551   2.251   1.287   1.442 -0.6597 -0.2677  0.5642
 1196TIP3    H1 3552   2.201   1.361   1.476 -0.6567 -0.3699  0.7878
 1196TIP3    H2 3553   2.266   1.309   1.349 -0.4671  0.1152  0.6825
 1197TIP3   OH2 3554   1.116   4.974   3.017  0.3115  0.6050  0.2773
 1197TIP3    H1 3555   1.142   4.960   2.926  1.1869  0.7872  0.4910
 1197TIP3    H2 3556   1.190   5.020   3.057 -0.8794  2.3935  0.5673
 1198TIP3   OH2 3557   4.822   6.536   0.371 -0.0988 -0.1314 -0.0932
 1198TIP3    H1 3558   4.772   6.466   0.413  1.0111 -1.6350 -1.1632
 1198TIP3    H2 3559   4.757   6.605   0.355 -1.2161 -0.8680  1.0561
 1199TIP3   OH2 3560   3.605   3.585   3.741 -0.1604  0.6367 -0.3663
 1199TIP3    H1 3561   3.633   3.667   3.702 -1.8942  1.1984 -0.5260
 1199TIP3    H2 3562   3.672   3.521   3.714 -0.5877  1.2515 -3.2592
 1200TIP3   OH2 3563   4.212   6.065   4.345 -0.4261  0.0644  0.2333
 1200TIP3    H1 3564   4.187   6.011   4.270  1.1558 -2.9553  1.7041
 1200TIP3    H2 3565   4.137   6.058   4.404 -0.9886  1.0946 -0.3235
 1201TIP3   OH2 3566   2.129   3.806   0.731  0.3349  0.0071  0.0543
 1201TIP3    H1 3567   2.193   3.773   0.795  1.0053  0.3483 -0.4252
 1201TIP3    H2 3568   2.181   3.859   0.671 -0.6515  1.7276  0.6520
 1202TIP3   OH2 3569   3.821   4.005   3.356 -0.1214  0.6069  0.3893
 1202TIP3    H1 3570   3.808   4.086   3.405  0.7722  1.4178 -0.6830
 1202TIP3    H2 3571   3.911   4.010   3.323 -0.8628  0.3525 -1.7934
 1203TIP3   OH2 3572   2.379   1.917   2.047  0.2774 -0.3999 -0.1164
 1203TIP3    H1 3573   2.352   1.981   1.982  3.0935  1.5060  0.3984
 1203TIP3    H2 3574   2.426   1.850   1.998  1.8752  0.7254 -0.1997
 1204TIP3   OH2 3575   0.380   3.651   5.175  0.4450 -0.4051 -0.0938
 1204TIP3    H1 3576   0.292   3.681   5.155 -0.0787 -2.0486 -0.4433
 1204TIP3    H2 3577   0.369   3.595   5.252  1.4085  0.4773  0.7058
 1205TIP3   OH2 3578   6.717   3.962   2.875  0.3015  0.1099 -0.1948
 1205TIP3    H1 3579   6.636   3.925   2.840  0.1750 -1.7884  1.8806
 1205TIP3    H2 3580   6.689   4.028   2.937  0.4812  1.6574 -1.6770
 1206TIP3   OH2 3581   1.829   5.212   4.687  0.3612 -0.3613  0.1675
 1206TIP3    H1 3582   1.897   5.162   4.642 -0.1134 -0.0354 -0.9467
 1206TIP3    H2 3583   1.868   5.297   4.704 -0.3597  0.5218 -2.2528
 1207TIP3   OH2 3584   6.342   0.053   3.099  0.4120  1.0411 -0.3106
 1207TIP3    H1 3585   6.285  -0.023   3.096  1.4165  0.2842 -0.9554
 1207TIP3    H2 3586   6.283   0.128   3.091 -0.6185  0.3646  0.6309
 1208TIP3   OH2 3587   4.175   3.085   0.796 -0.0915  0.7888 -0.5594
 1208TIP3    H1 3588   4.123   3.165   0.807 -0.6685  0.2838  0.5932
 1208TIP3    H2 3589   4.113   3.014   0.811  1.0813  0.1794  1.9930
 1209TIP3   OH2 3590   2.277   4.706   3.150 -0.0035  0.3030  0.3117
 1209TIP3    H1 3591   2.355   4.666   3.187 -1.4283 -2.7124  0.3475
 1209TIP3    H2 3592   2.310   4.776   3.094  2.9802 -2.5792 -1.9327
 1210TIP3   OH2 3593   2.214   1.094   4.781  0.4152 -0.6341 -0.1390
 1210TIP3    H1 3594   2.205   1.081   4.687 -1.2640 -1.4836  0.0944
 1210TIP3    H2 3595   2.198   1.008   4.819 -1.4986  0.1648  1.0191
 1211TIP3   OH2 3596   1.443   3.496   4.597 -0.1608  0.0597  0.4488
 1211TIP3    H1 3597   1.452   3.481   4.691 -0.4836 -1.8660  0.2106
 1211TIP3    H2 3598   1.364   3.448   4.572  0.2312  0.0698 -0.8956
 1212TIP3   OH2 3599   7.200   0.482   1.900 -0.3577 -0.2818 -0.2148
 1212TIP3    H1 3600   7.123   0.532   1.929 -0.0115  1.2720 -1.7592
 1212TIP3    H2 3601   7.176   0.448   1.814  0.7086  0.3632 -0.7928
 1213TIP3   OH2 3602   1.961   0.792   4.770  0.8801 -0.3003  0.6389
 1213TIP3    H1 3603   1.918   0.874   4.746 -0.8576 -1.7107 -1.4729
 1213TIP3    H2 3604   1.900   0.750   4.832  0.4768 -1.1011 -0.2728
 1214TIP3   OH2 3605   5.073   6.633   1.848  0.0392  0.0108 -0.0238
 1214TIP3    H1 3606   5.096   6.607   1.938 -0.0872 -0.0946 -0.0218
 1214TIP3    H2 3607   5.115   6.718   1.837  0.8240 -0.3852 -0.1824
 1215TIP3   OH2 3608   0.294   1.047   0.916 -0.2215  0.1227  0.1700
 1215TIP3    H1 3609   0.290   0.956   0.888 -1.3386  0.5302 -1.0775
 1215TIP3    H2 3610   0.287   1.097   0.835 -1.3995  1.3339  0.9896
 1216TIP3   OH2 3611   5.330   0.371   4.236 -0.2212 -0.2647 -0.0554
 1216TIP3    H1 3612   5.380   0.303   4.281 -2.0536 -0.5251  1.6997
 1216TIP3    H2 3613   5.386   0.449   4.240  1.2501 -1.2319 -0.7554
 1217TIP3   OH2 3614   3.869   4.886   2.833  0.3446  0.4719 -0.2450
 1217TIP3    H1 3615   3.886   4.935   2.752  1.9377 -0.5976 -0.5973
 1217TIP3    H2 3616   3.774   4.877   2.836  0.1972  1.3533 -1.4968
 1218TIP3   OH2 3617   0.256   6.435   0.888  0.6343  0.2472 -0.1168
 1218TIP3    H1 3618   0.302   6.375   0.948  1.4827  0.6714 -0.3180
 1218TIP3    H2 3619   0.325   6.465   0.828 -0.2786 -0.4940 -1.5797
 1219TIP3   OH2 3620   2.630   0.827   1.395  0.0685 -0.8641  0.3637
 1219TIP3    H1 3621   2.668   0.758   1.449  0.3500  0.7629  2.3665
 1219TIP3    H2 3622   2.693   0.838   1.323  2.3228  0.1441  2.3406
 1220TIP3   OH2 3623   0.255   4.699   4.946 -0.1146 -0.0071 -0.4269
 1220TIP3    H1 3624   0.210   4.699   4.862 -3.4250 -0.9954  1.1888
 1220TIP3    H2 3625   0.231   4.616   4.987 -0.9805  1.5744  2.6108
 1221TIP3   OH2 3626   6.017   0.627   4.212 -0.1287 -0.4735 -0.5668
 1221TIP3    H1 3627   6.002   0.585   4.297  2.5099  1.6982  1.1951
 1221TIP3    H2 3628   6.061   0.561   4.159 -0.4941 -1.4320  0.3052
 1222TIP3   OH2 3629   0.858   3.874   2.236 -0.2316 -0.6293  0.5251
 1222TIP3    H1 3630   0.861   3.948   2.297 -1.7978  0.1414 -0.2522
 1222TIP3    H2 3631   0.929   3.816   2.264  1.5302  1.4932  0.7200
 1223TIP3   OH2 3632   4.242   2.059   3.473 -0.1130 -0.5081  0.6226
 1223TIP3    H1 3633   4.206   1.979   3.512 -0.0686 -0.6283  0.4197
 1223TIP3    H2 3634   4.174   2.125   3.484  0.5288 -0.0913  2.4083
 1224TIP3   OH2 3635   6.768   4.751   0.852  0.2604 -0.2963 -0.1330
 1224TIP3    H1 3636   6.834   4.715   0.910 -0.6092 -0.2005  0.9523
 1224TIP3    H2 3637   6.698   4.685   0.852  0.5610 -0.6562 -1.6925
 1225TIP3   OH2 3638   3.666   6.655   4.914  0.0001 -0.0792 -0.1800
 1225TIP3    H1 3639   3.653   6.700   4.998 -0.6980  0.5319 -0.6099
 1225TIP3    H2 3640   3.742   6.699   4.876 -0.8497  0.9550 -0.7266
 1226TIP3   OH2 3641   1.126   0.105   3.564 -0.3888  0.1781  0.1047
 1226TIP3    H1 3642   1.193   0.142   3.507  0.5880  0.2477  1.2497
 1226TIP3    H2 3643   1.045   0.144   3.534 -0.0935 -0.6549 -1.9554
 1227TIP3   OH2 3644   1.726   0.742   0.279  0.1820  0.4787 -0.3428
 1227TIP3    H1 3645   1.691   0.739   0.368  0.4628  0.0878 -0.2420
 1227TIP3    H2 3646   1.807   0.692   0.284 -0.9160 -1.4999 -1.3108
 1228TIP3   OH2 3647   6.325   5.972   4.056 -0.1206  0.0872  0.0631
 1228TIP3    H1 3648   6.410   5.976   4.012 -0.4529  1.5810 -0.4872
 1228TIP3    H2 3649   6.279   5.900   4.013  0.2945  0.2585 -0.6734
 1229TIP3   OH2 3650   0.704   6.683   3.239  0.4678 -0.6075  0.0551
 1229TIP3    H1 3651   0.641   6.618   3.270 -0.0280  0.2568  0.9032
 1229TIP3    H2 3652   0.744   6.718   3.318  0.2736  0.5582 -0.3321
 1230TIP3   OH2 3653   4.780   2.375   3.087 -0.9340 -0.0048 -0.4088
 1230TIP3    H1 3654   4.802   2.308   3.023 -0.7896 -2.5095  2.0777
 1230TIP3    H2 3655   4.685   2.368   3.097 -0.7278 -1.1927  1.1365
 1231TIP3   OH2 3656   2.421   6.089   1.013 -0.2840  0.2685  0.2991
 1231TIP3    H1 3657   2.360   6.068   1.084 -1.8730  1.1300 -0.7466
 1231TIP3    H2 3658   2.376   6.060   0.934  1.6025 -1.0040 -0.3655
 1232TIP3   OH2 3659   3.640   6.119   0.269  0.0977 -0.3887  0.0515
 1232TIP3    H1 3660   3.711   6.098   0.330  0.3945 -2.9532 -1.0444
 1232TIP3    H2 3661   3.576   6.166   0.322  2.5287  2.0131  1.1007
 1233TIP3   OH2 3662   3.665   2.222   0.946  0.1979 -0.3576  0.5749
 1233TIP3    H1 3663   3.757   2.225   0.973 -0.4665 -1.5221  3.2895
 1233TIP3    H2 3664   3.619   2.275   1.011 -1.1571 -0.5356 -0.1993
 1234TIP3   OH2 3665   5.866   3.600   4.758  0.1727 -0.0718 -0.6051
 1234TIP3    H1 3666   5.961   3.587   4.762  0.5131  2.0596 -0.4028
 1234TIP3    H2 3667   5.833   3.565   4.840  0.9330  0.0905 -0.2232
 1235TIP3   OH2 3668   1.429   2.399   4.013  0.0695  0.0217 -0.4270
 1235TIP3    H1 3669   1.453   2.450   4.090  2.5531 -1.5910 -0.0473
 1235TIP3    H2 3670   1.454   2.454   3.938 -2.0573  1.4526 -0.1973
 1236TIP3   OH2 3671   1.761   4.824   0.698 -0.5901  0.1260 -0.5977
 1236TIP3    H1 3672   1.791   4.735   0.711 -1.0770  0.0472  0.0888
 1236TIP3    H2 3673   1.807   4.855   0.620  1.0944 -0.0385  0.2863
 1237TIP3   OH2 3674   1.920   3.357   4.345 -0.1957 -0.2620  0.8192
 1237TIP3    H1 3675   1.857   3.360   4.417  0.1403 -2.4976  1.2796
 1237TIP3    H2 3676   1.978   3.284   4.366  0.2890 -0.6175 -1.4118
 1238TIP3   OH2 3677   5.376   3.126   1.108 -0.9921  0.5126  0.3888
 1238TIP3    H1 3678   5.461   3.138   1.066 -1.5562 -0.1625 -0.9987
 1238TIP3    H2 3679   5.358   3.033   1.101 -0.6539  0.1404  3.1301
 1239TIP3   OH2 3680   0.332   1.903   4.824  0.1936 -0.0608  0.4424
 1239TIP3    H1 3681   0.385   1.826   4.803  1.0384  0.7621 -0.5160
 1239TIP3    H2 3682   0.394   1.976   4.825 -0.3111  0.4212  2.9391
 1240TIP3   OH2 3683   6.823   6.272   2.002 -0.6810  0.6377  0.8384
 1240TIP3    H1 3684   6.737   6.284   1.962 -1.8424 -2.9605  1.8702
 1240TIP3    H2 3685   6.818   6.320   2.085 -1.8146  0.2809  0.9969
 1241TIP3   OH2 3686   3.810   1.844   0.639  0.1216  0.4397  0.1336
 1241TIP3    H1 3687   3.859   1.845   0.557  0.6795 -1.5925  0.3724
 1241TIP3    H2 3688   3.736   1.902   0.625  0.3877  0.3777 -1.6840
 1242TIP3   OH2 3689   4.332   4.992   5.636  0.3636  0.1044  0.5725
 1242TIP3    H1 3690   4.316   4.974   5.729 -1.8464  2.2986  0.7326
 1242TIP3    H2 3691   4.376   5.077   5.636  0.8906 -0.1587 -0.3980
 1243TIP3   OH2 3692   4.787   2.023   1.147  0.5107  0.2810  0.4367
 1243TIP3    H1 3693   4.768   1.952   1.209  0.4575 -1.2433 -1.2426
 1243TIP3    H2 3694   4.705   2.073   1.144  0.2422 -0.1074  0.9939
 1244TIP3   OH2 3695   7.115   0.327   3.067 -0.5335  0.3244  0.2255
 1244TIP3    H1 3696   7.198   0.373   3.056 -0.7380  1.2969  2.3107
 1244TIP3    H2 3697   7.139   0.245   3.111 -0.8539  1.7677  3.2925
 1245TIP3   OH2 3698   3.314   5.181   4.199  0.2040 -0.1744 -0.1483
 1245TIP3    H1 3699   3.255   5.213   4.130 -0.7471 -2.1042 -0.3144
 1245TIP3    H2 3700   3.368   5.256   4.221 -1.1504  1.1957 -1.2431
 1246TIP3   OH2 3701   4.493   6.788   2.154 -0.2581  0.7185  0.3168
 1246TIP3    H1 3702   4.548   6.765   2.229  0.3549  0.3765 -0.2274
 1246TIP3    H2 3703   4.488   6.708   2.102 -0.6434  0.9599 -0.0269
 1247TIP3   OH2 3704   3.952   5.330   5.040  0.0888  0.1857  0.2008
 1247TIP3    H1 3705   3.886   5.286   5.095  0.5629 -1.6931 -0.6369
 1247TIP3    H2 3706   4.017   5.363   5.103 -1.0116  0.9857  0.9514
 1248TIP3   OH2 3707   0.815   3.008   2.576 -0.0660  0.7900 -0.6061
 1248TIP3    H1 3708   0.840   3.031   2.487 -0.6304 -0.6555 -1.1625
 1248TIP3    H2 3709   0.861   3.072   2.631  1.1258  1.0487 -1.8587
 1249TIP3   OH2 3710   5.208   0.905   0.550 -0.0663 -0.1723  0.3248
 1249TIP3    H1 3711   5.292   0.916   0.506  0.0253 -0.0791  0.5217
 1249TIP3    H2 3712   5.146   0.956   0.497 -0.3548 -1.6909 -0.8443
 1250TIP3   OH2 3713   0.182   1.817   5.353  0.0338 -0.3270 -0.4768
 1250TIP3    H1 3714   0.234   1.846   5.279  0.1865 -0.3216 -0.3690
 1250TIP3    H2 3715   0.128   1.892   5.376  0.9590  0.1407  0.2720
 1251TIP3   OH2 3716   7.109   5.996   5.848 -0.0750 -0.9950  0.4844
 1251TIP3    H1 3717   7.092   6.070   5.790 -0.7185 -1.1129  0.5145
 1251TIP3    H2 3718   7.032   5.992   5.906 -0.4170 -2.1383 -0.0116
 1252TIP3   OH2 3719   3.215   3.367   3.910 -0.2487  1.0204 -0.0638
 1252TIP3    H1 3720   3.248   3.382   3.999 -2.6360 -0.3203  1.1419
 1252TIP3    H2 3721   3.212   3.272   3.901 -1.4951  1.1291 -1.0022
 1253TIP3   OH2 3722   3.296   4.898   3.826  0.2680 -0.1123 -0.3582
 1253TIP3    H1 3723   3.376   4.862   3.787 -0.5219 -1.2846 -0.9459
 1253TIP3    H2 3724   3.325   4.940   3.907  1.4097 -0.8988 -0.3500
 1254TIP3   OH2 3725   2.248   2.523   4.150  0.1907  0.4407  0.1706
 1254TIP3    H1 3726   2.322   2.549   4.095  0.2921 -0.5064 -0.1698
 1254TIP3    H2 3727   2.288   2.489   4.230  0.1273  0.0346  0.0337
 1255TIP3   OH2 3728   7.169   2.596   1.731  0.1830 -0.2773 -0.2620
 1255TIP3    H1 3729   7.200   2.532   1.795  1.2388  0.2900 -0.1885
 1255TIP3    H2 3730   7.074   2.588   1.733  0.2578 -1.1053  0.4999
 1256TIP3   OH2 3731   2.293   0.310   0.182 -0.0446 -0.5133  0.2434
 1256TIP3    H1 3732   2.238   0.353   0.116 -0.2103 -0.9477  0.0949
 1256TIP3    H2 3733   2.383   0.322   0.150 -0.1365 -0.8852 -0.1641
 1257TIP3   OH2 3734   4.563   1.865   4.500  0.0683 -0.4941 -0.2778
 1257TIP3    H1 3735   4.549   1.932   4.433  1.0735  1.2004  1.1179
 1257TIP3    H2 3736   4.652   1.881   4.532 -0.9975  0.0462  2.7785
 1258TIP3   OH2 3737   6.903   0.922   3.686 -0.7458 -0.0474  0.2423
 1258TIP3    H1 3738   6.825   0.922   3.631 -0.2874  0.1270 -0.4223
 1258TIP3    H2 3739   6.975   0.908   3.625 -0.2766 -0.4849  0.8804
 1259TIP3   OH2 3740   2.927   0.309   0.003  0.6006 -0.1933  0.7731
 1259TIP3    H1 3741   2.970   0.243   0.057  1.9156 -1.8519 -2.0940
 1259TIP3    H2 3742   2.836   0.279  -0.004  0.7623 -0.7297  0.9220
 1260TIP3   OH2 3743   5.552   5.554   5.766  0.2936  0.0625  0.1113
 1260TIP3    H1 3744   5.526   5.491   5.833 -1.9479  1.1746  0.3966
 1260TIP3    H2 3745   5.531   5.512   5.683 -0.9903  0.2868  0.2944
 1261TIP3   OH2 3746   3.423   1.306   2.114  0.0452 -0.0866  0.3722
 1261TIP3    H1 3747   3.426   1.373   2.046 -1.8027  2.9957  3.0218
 1261TIP3    H2 3748   3.351   1.249   2.087 -0.5518  0.9666 -0.3727
 1262TIP3   OH2 3749   6.955   5.632   2.770 -0.1426 -0.4562 -0.4138
 1262TIP3    H1 3750   6.979   5.711   2.723  0.2433 -1.3802 -1.8342
 1262TIP3    H2 3751   7.039   5.597   2.803 -0.2604 -0.5105 -0.1659
 1263TIP3   OH2 3752   0.380   5.162   3.908  0.4666  0.0352  0.0276
 1263TIP3    H1 3753   0.362   5.238   3.964 -1.7062 -0.2339 -0.2315
 1263TIP3    H2 3754   0.369   5.086   3.967  1.7292 -0.1445  0.0640
 1264TIP3   OH2 3755   6.086   5.340   4.320 -0.4977  0.2777 -0.2428
 1264TIP3    H1 3756   6.174   5.306   4.334 -0.4199  0.8449  0.6626
 1264TIP3    H2 3757   6.098   5.417   4.265 -0.5499 -0.3225 -1.1200
 1265TIP3   OH2 3758   7.087   4.737   3.651  0.4291 -0.1461 -0.2025
 1265TIP3    H1 3759   7.154   4.766   3.589  0.6927 -2.1749 -0.9216
 1265TIP3    H2 3760   7.004   4.763   3.612  0.6822  0.2162 -0.4972
 1266TIP3   OH2 3761   3.651   0.694   3.799 -0.4478  0.7653 -0.9851
 1266TIP3    H1 3762   3.560   0.721   3.793 -1.0210 -0.7113  0.3805
 1266TIP3    H2 3763   3.655   0.611   3.752  0.0254  0.4902 -0.4782
 1267TIP3   OH2 3764   1.173   1.570   1.176  0.0230  0.0343  0.4596
 1267TIP3    H1 3765   1.245   1.567   1.113  0.2953  0.0758  0.7720
 1267TIP3    H2 3766   1.105   1.620   1.131  0.4055  0.4987  0.3900
 1268TIP3   OH2 3767   3.797   3.069   0.956 -0.6879  0.1088  0.5401
 1268TIP3    H1 3768   3.869   3.083   1.019 -0.2618 -1.4282  0.4285
 1268TIP3    H2 3769   3.723   3.040   1.011 -1.1085  1.2596  0.6036
 1269TIP3   OH2 3770   6.452   0.875   1.007  0.3904 -0.0577  0.1403
 1269TIP3    H1 3771   6.521   0.894   0.944  0.1494  0.1420 -0.0683
 1269TIP3    H2 3772   6.434   0.781   0.995  0.3986 -0.0372 -0.0371
 1270TIP3   OH2 3773   2.108   1.497   0.768  0.2092  0.3190 -0.6023
 1270TIP3    H1 3774   2.189   1.458   0.801  0.0562 -0.0894 -0.6999
 1270TIP3    H2 3775   2.064   1.425   0.723 -2.5118 -0.9177  3.4207
 1271TIP3   OH2 3776   0.082   1.892   3.463 -0.9203  0.3448  0.4449
 1271TIP3    H1 3777   0.037   1.974   3.482 -1.4317  0.5341 -1.4324
 1271TIP3    H2 3778   0.110   1.860   3.549 -0.6328  2.5026  1.2190
 1272TIP3   OH2 3779   2.884   3.938   4.007  0.1346  0.1789  0.4171
 1272TIP3    H1 3780   2.795   3.911   3.988  0.1292  0.5679 -0.1339
 1272TIP3    H2 3781   2.913   3.983   3.928  1.1339 -0.7129  0.2520
 1273TIP3   OH2 3782   3.534   5.425   3.056  0.5561  0.4564  0.7628
 1273TIP3    H1 3783   3.514   5.517   3.040  0.7610  0.3643 -0.1230
 1273TIP3    H2 3784   3.627   5.425   3.081  1.1141  0.3429 -1.1300
 1274TIP3   OH2 3785   5.792   1.846   5.173  0.0493  0.2060  0.1826
 1274TIP3    H1 3786   5.708   1.814   5.208  0.1758 -1.5886 -1.0335
 1274TIP3    H2 3787   5.771   1.876   5.085  0.8411 -1.4025 -0.6025
 1275TIP3   OH2 3788   6.123   2.622   2.417 -0.0950  0.1478  0.1644
 1275TIP3    H1 3789   6.212   2.607   2.449  0.3739  1.2162 -0.5736
 1275TIP3    H2 3790   6.112   2.558   2.347  0.9924  1.4966 -1.3248
 1276TIP3   OH2 3791   2.513   0.196   5.076  0.5667 -0.8572 -0.7390
 1276TIP3    H1 3792   2.438   0.254   5.090  0.6897 -0.7648 -0.4386
 1276TIP3    H2 3793   2.578   0.252   5.033  1.0093 -0.5177  0.3302
 1277TIP3   OH2 3794   4.280   3.590   0.819 -0.2846  0.1863 -0.4829
 1277TIP3    H1 3795   4.362   3.618   0.861  0.7612 -0.0608 -2.2587
 1277TIP3    H2 3796   4.231   3.671   0.806  0.4017  0.5572 -0.8450
 1278TIP3   OH2 3797   0.452   5.456   0.538 -0.3091 -0.3815 -0.3951
 1278TIP3    H1 3798   0.470   5.415   0.453 -0.1171  2.0112 -1.6161
 1278TIP3    H2 3799   0.518   5.420   0.597  1.5753  0.1538 -2.0738
 1279TIP3   OH2 3800   5.897   4.105   5.901  0.1162 -0.0233  0.2991
 1279TIP3    H1 3801   5.884   4.125   5.808 -0.9404  1.1880  0.6798
 1279TIP3    H2 3802   5.970   4.161   5.927 -1.3140  1.6984  0.7987
 1280TIP3   OH2 3803   6.533   0.622   4.103  0.0761 -0.2443  0.3205
 1280TIP3    H1 3804   6.552   0.682   4.031  0.4241 -1.8259 -0.9937
 1280TIP3    H2 3805   6.509   0.678   4.176  1.8575  1.5394 -0.3608
 1281TIP3   OH2 3806   3.833   5.165   5.243  0.5080  0.4177 -0.6077
 1281TIP3    H1 3807   3.782   5.241   5.271 -1.3582 -1.1515  0.4923
 1281TIP3    H2 3808   3.890   5.146   5.318  0.1395  0.0668 -0.4107
 1282TIP3   OH2 3809   4.934   1.772   0.302 -0.0693  0.3740 -0.2246
 1282TIP3    H1 3810   4.841   1.788   0.317 -0.0319  1.2225 -0.8453
 1282TIP3    H2 3811   4.965   1.735   0.385 -0.7216  1.1449  0.3834
 1283TIP3   OH2 3812   1.131   6.062   5.780  0.0903 -0.4267  0.1507
 1283TIP3    H1 3813   1.176   6.101   5.855 -0.1843 -0.3123  0.2593
 1283TIP3    H2 3814   1.073   5.997   5.819  0.4309 -0.8384 -0.0170
 1284TIP3   OH2 3815   4.331   4.403   2.946 -0.5118  0.2009  0.7017
 1284TIP3    H1 3816   4.237   4.382   2.943 -0.8783  1.7269 -1.7194
 1284TIP3    H2 3817   4.342   4.470   2.878  2.4290 -0.2972  0.5678
 1285TIP3   OH2 3818   5.496   4.517   2.504  0.1671 -0.2509 -0.5004
 1285TIP3    H1 3819   5.499   4.608   2.532  1.4758 -0.1626 -0.8587
 1285TIP3    H2 3820   5.420   4.512   2.446  0.0051  0.5722 -0.3706
 1286TIP3   OH2 3821   1.782   0.556   0.489 -0.0617 -0.5396 -0.3329
 1286TIP3    H1 3822   1.710   0.493   0.483 -0.4679  0.0121 -1.6814
 1286TIP3    H2 3823   1.859   0.507   0.460  0.0576 -1.0457  0.8165
 1287TIP3   OH2 3824   6.434   6.704   2.547 -0.3757  0.5102  0.2338
 1287TIP3    H1 3825   6.352   6.709   2.498 -0.8118  0.3294  0.9330
 1287TIP3    H2 3826   6.407   6.703   2.639  0.4535  1.5524  0.5088
 1288TIP3   OH2 3827   3.483   2.936   0.593 -0.4784  0.0299  0.0776
 1288TIP3    H1 3828   3.413   2.895   0.542 -0.5432  0.4738 -0.2027
 1288TIP3    H2 3829   3.552   2.953   0.529 -0.4579  0.3599  0.1829
 1289TIP3   OH2 3830   4.654   1.925   4.919  0.2015  0.0697 -0.8156
 1289TIP3    H1 3831   4.645   2.015   4.950 -0.6967 -0.0202 -0.7807
 1289TIP3    H2 3832   4.579   1.879   4.956  0.5075 -0.6340 -1.0475
 1290TIP3   OH2 3833   3.292   3.438   4.489 -0.2025 -0.5645 -0.0062
 1290TIP3    H1 3834   3.369   3.400   4.447 -0.1682  0.8515 -1.3365
 1290TIP3    H2 3835   3.223   3.373   4.477  0.5632 -1.4720  0.4370
 1291TIP3   OH2 3836   3.260   2.297   4.428  0.0108 -0.5281 -0.2660
 1291TIP3    H1 3837   3.232   2.342   4.349  0.4000 -0.9041 -0.6197
 1291TIP3    H2 3838   3.346   2.335   4.448  0.8695 -1.8967 -1.2145
 1292TIP3   OH2 3839   6.326   1.103   4.735  0.4242 -0.0723  0.7900
 1292TIP3    H1 3840   6.274   1.181   4.754  0.5578  0.8707 -2.1893
 1292TIP3    H2 3841   6.269   1.049   4.681  1.8331  0.0869 -0.9240
 1293TIP3   OH2 3842   6.587   6.161   2.407 -0.0248 -0.1433 -0.2034
 1293TIP3    H1 3843   6.556   6.116   2.328  0.1562 -0.4994 -0.0753
 1293TIP3    H2 3844   6.655   6.103   2.442  1.4277  1.0141 -0.9565
 1294TIP3   OH2 3845   3.225   4.916   3.551 -0.4782 -0.1677  0.0564
 1294TIP3    H1 3846   3.242   4.942   3.642  1.0107 -1.7450  0.2898
 1294TIP3    H2 3847   3.200   4.997   3.507 -1.7033  0.5642  1.9629
 1295TIP3   OH2 3848   5.820   0.229   1.223  0.0237 -0.3492 -0.6690
 1295TIP3    H1 3849   5.911   0.236   1.250 -0.1023 -0.7873 -0.1199
 1295TIP3    H2 3850   5.771   0.222   1.305 -0.6344  1.2349 -0.9067
 1296TIP3   OH2 3851   5.364   6.370   4.371 -0.4066 -0.2948  0.0119
 1296TIP3    H1 3852   5.427   6.363   4.444  0.1035 -1.6845 -0.5137
 1296TIP3    H2 3853   5.287   6.410   4.410  0.5704  0.8606  0.8357
 1297TIP3   OH2 3854   5.531   2.174   4.500  0.9916  0.3616  0.0656
 1297TIP3    H1 3855   5.610   2.185   4.447  0.5082 -0.2752 -0.8234
 1297TIP3    H2 3856   5.523   2.080   4.512 -0.0338  0.3611 -0.5046
 1298TIP3   OH2 3857   1.379   0.270   4.517 -0.3638  0.4128  0.6364
 1298TIP3    H1 3858   1.284   0.262   4.525 -0.7848 -0.0123 -3.0718
 1298TIP3    H2 3859   1.399   0.235   4.430  3.3946 -0.6868  1.7649
 1299TIP3   OH2 3860   1.885   3.422   4.652  0.3240  0.1060  0.5017
 1299TIP3    H1 3861   1.970   3.468   4.647 -1.0432  2.9258  1.1610
 1299TIP3    H2 3862   1.833   3.461   4.582 -1.0006 -0.3198  1.2280
 1300TIP3   OH2 3863   5.789   2.926   5.739  0.0930 -0.6512  0.1835
 1300TIP3    H1 3864   5.698   2.929   5.712 -0.7497 -1.7976  2.6130
 1300TIP3    H2 3865   5.797   2.845   5.788  2.0914  0.0715  1.1733
 1301TIP3   OH2 3866   2.817   4.477   0.298 -0.0237  0.1834 -0.7668
 1301TIP3    H1 3867   2.740   4.448   0.346  0.4547 -2.4213 -1.4033
 1301TIP3    H2 3868   2.864   4.533   0.360 -0.0267 -2.0741  1.4722
 1302TIP3   OH2 3869   4.917   5.843   0.318  0.2235 -0.2081 -0.2620
 1302TIP3    H1 3870   4.840   5.789   0.302 -1.3589  1.7234  0.3342
 1302TIP3    H2 3871   4.991   5.790   0.290 -1.3627 -1.9591 -1.3088
 1303TIP3   OH2 3872   4.529   3.526   5.753  0.0864 -0.1992  0.2142
 1303TIP3    H1 3873   4.506   3.449   5.700  3.6485 -1.2557 -0.0565
 1303TIP3    H2 3874   4.503   3.601   5.699 -3.2634 -1.0637  0.3900
 1304TIP3   OH2 3875   2.631   4.156   2.334 -0.1135  0.1664 -0.1795
 1304TIP3    H1 3876   2.633   4.182   2.426 -1.4282  0.4217 -0.1996
 1304TIP3    H2 3877   2.583   4.226   2.290 -0.5878 -0.5585 -0.8485
 1305TIP3   OH2 3878   2.499   3.165   4.430 -0.5542 -0.1084 -0.4186
 1305TIP3    H1 3879   2.447   3.093   4.467  0.1111 -1.2940 -1.7075
 1305TIP3    H2 3880   2.589   3.134   4.433 -0.4530 -0.2629 -2.9177
 1306TIP3   OH2 3881   6.159   5.766   5.078  0.0851 -0.1319 -0.0655
 1306TIP3    H1 3882   6.210   5.716   5.142 -0.1190  1.2158  1.2053
 1306TIP3    H2 3883   6.138   5.702   5.010  1.0098 -1.4218  0.7957
 1307TIP3   OH2 3884   3.161   1.985   2.787 -0.1181 -0.1916  0.3592
 1307TIP3    H1 3885   3.184   2.024   2.871  0.4867  2.4082 -0.8968
 1307TIP3    H2 3886   3.066   1.986   2.784 -0.2131 -1.6505  1.5244
 1308TIP3   OH2 3887   4.874   5.271   2.968 -0.6242 -0.1776 -0.0833
 1308TIP3    H1 3888   4.899   5.180   2.951 -0.1758 -0.5006  2.0817
 1308TIP3    H2 3889   4.950   5.310   3.010 -1.1326  0.9644 -0.1896
 1309TIP3   OH2 3890   0.584   1.440   3.668 -0.0681 -0.3214  0.6092
 1309TIP3    H1 3891   0.572   1.428   3.762  1.2120  1.8919  1.1397
 1309TIP3    H2 3892   0.662   1.389   3.647  0.6805  0.5722  1.1484
 1310TIP3   OH2 3893   5.998   5.245   4.880  0.2963  0.3558  0.1160
 1310TIP3    H1 3894   5.927   5.205   4.829  0.1039 -1.2016  1.5234
 1310TIP3    H2 3895   5.969   5.237   4.971  1.9747  0.2838  0.6726
 1311TIP3   OH2 3896   1.057   0.427   3.268 -0.1167 -0.1674  0.3465
 1311TIP3    H1 3897   1.060   0.505   3.213  0.4341  0.2454  0.9350
 1311TIP3    H2 3898   0.980   0.440   3.324 -0.7680 -0.6627 -0.4227
 1312TIP3   OH2 3899   0.228   3.030   1.474  0.6214 -0.0199  0.1804
 1312TIP3    H1 3900   0.186   2.948   1.503 -0.5431  0.7356  0.6868
 1312TIP3    H2 3901   0.301   3.001   1.419 -0.8759 -1.3750 -1.1833
 1313TIP3   OH2 3902   3.427   2.703   4.836  0.2297 -0.3553  0.0856
 1313TIP3    H1 3903   3.377   2.691   4.917 -0.8458 -0.0397 -0.5159
 1313TIP3    H2 3904   3.469   2.618   4.822 -0.0430 -0.5964  0.6597
 1314TIP3   OH2 3905   6.741   1.888   4.179  0.0875 -0.0686 -0.1137
 1314TIP3    H1 3906   6.743   1.883   4.084 -0.0279 -0.3998 -0.1018
 1314TIP3    H2 3907   6.691   1.968   4.198 -1.2858 -0.8474 -0.3360
 1315TIP3   OH2 3908   3.477   0.536   0.412 -0.2455 -0.0058  0.9494
 1315TIP3    H1 3909   3.494   0.449   0.447  0.0398  0.1820  1.2958
 1315TIP3    H2 3910   3.389   0.532   0.377 -0.8855  0.0238  2.4705
 1316TIP3   OH2 3911   5.475   5.159   0.797 -0.7129  0.5032  0.2824
 1316TIP3    H1 3912   5.460   5.148   0.704  0.0323  1.1413  0.0681
 1316TIP3    H2 3913   5.549   5.101   0.817 -0.2880  1.0220  0.2715
 1317TIP3   OH2 3914   5.718   2.334   1.518 -0.4168 -0.2170  0.2303
 1317TIP3    H1 3915   5.761   2.252   1.493 -1.5862 -0.4064 -1.2979
 1317TIP3    H2 3916   5.790   2.397   1.522  0.5056 -1.2699  1.4276
 1318TIP3   OH2 3917   4.504   0.044   5.024 -0.1532 -0.6890  0.5875
 1318TIP3    H1 3918   4.582   0.098   5.025 -0.8355  0.4100 -0.8210
 1318TIP3    H2 3919   4.435   0.102   4.991 -1.5390 -1.6511  1.6554
 1319TIP3   OH2 3920   6.697   6.195   1.368 -0.3735  0.0070 -0.3770
 1319TIP3    H1 3921   6.610   6.169   1.337  0.8802 -2.3094 -2.3635
 1319TIP3    H2 3922   6.752   6.118   1.354  1.7285  0.8598  2.2463
 1320TIP3   OH2 3923   3.006   5.796   2.420 -0.6398 -0.1171 -0.8087
 1320TIP3    H1 3924   3.030   5.825   2.332  0.0180 -0.8620 -0.8933
 1320TIP3    H2 3925   3.001   5.701   2.412  0.3116 -0.2632  0.1561
 1321TIP3   OH2 3926   6.017   6.407   3.890 -0.1823  0.5087 -0.3269
 1321TIP3    H1 3927   5.978   6.405   3.803  1.0057  0.2151 -0.8817
 1321TIP3    H2 3928   5.944   6.420   3.949 -1.2167 -0.8481 -1.2435
 1322TIP3   OH2 3929   1.078   3.710   3.148 -0.2575  0.1135  0.2408
 1322TIP3    H1 3930   1.089   3.713   3.243 -1.4249  0.5646  0.3887
 1322TIP3    H2 3931   1.106   3.796   3.118 -0.6518  0.2633  0.2874
 1323TIP3   OH2 3932   3.069   5.971   4.430  0.5311 -0.2256 -0.1058
 1323TIP3    H1 3933   3.005   5.914   4.473 -0.7641  0.9221 -0.4542
 1323TIP3    H2 3934   3.123   6.004   4.502  1.1034 -1.6073  0.1375
 1324TIP3   OH2 3935   5.858   5.560   0.645  0.4482 -0.2604 -0.1067
 1324TIP3    H1 3936   5.802   5.623   0.691 -0.4132 -0.8899 -0.2726
 1324TIP3    H2 3937   5.939   5.608   0.628  0.3355  0.3628  1.0105
 1325TIP3   OH2 3938   2.914   6.023   3.533 -0.5288  0.1290  0.0325
 1325TIP3    H1 3939   2.905   6.037   3.627 -0.0559 -1.2042  0.3034
 1325TIP3    H2 3940   3.000   6.058   3.511 -1.1261  1.5349 -0.1557
 1326TIP3   OH2 3941   7.084   3.565   1.155  0.0202  0.1684  0.1322
 1326TIP3    H1 3942   7.176   3.542   1.172  0.7241  1.7559 -1.1855
 1326TIP3    H2 3943   7.088   3.655   1.122 -2.0187  0.2371 -0.0397
 1327TIP3   OH2 3944   6.578   4.521   5.704 -0.6174  0.4172 -0.2508
 1327TIP3    H1 3945   6.504   4.540   5.761  0.4168 -0.4220  1.4325
 1327TIP3    H2 3946   6.644   4.587   5.726 -0.4032  0.4148 -0.8566
 1328TIP3   OH2 3947   0.423   2.153   2.085 -0.0678  0.4099  0.1909
 1328TIP3    H1 3948   0.418   2.189   2.174  1.7483 -1.9785  1.4044
 1328TIP3    H2 3949   0.436   2.059   2.099  0.4997  0.0003 -2.6187
 1329TIP3   OH2 3950   4.644   6.589   4.681 -0.2453 -0.1223  0.1925
 1329TIP3    H1 3951   4.614   6.533   4.752 -2.7339  0.2423 -0.4796
 1329TIP3    H2 3952   4.564   6.613   4.633  1.0367  1.7654 -1.1700
 1330TIP3   OH2 3953   0.945   3.335   3.459 -0.0543  0.2532  0.1752
 1330TIP3    H1 3954   0.987   3.346   3.545 -1.0300 -0.2852  0.7394
 1330TIP3    H2 3955   1.015   3.354   3.396  0.5128  1.2748  1.0775
 1331TIP3   OH2 3956   2.284   3.138   0.699 -0.1447  0.7590 -0.3095
 1331TIP3    H1 3957   2.243   3.179   0.622  0.9764  0.6611 -0.9811
 1331TIP3    H2 3958   2.329   3.211   0.743 -1.9840  1.1071  1.1085
 1332TIP3   OH2 3959   6.816   2.140   5.324 -0.7431 -0.0337  0.5223
 1332TIP3    H1 3960   6.902   2.178   5.308 -1.4177  0.3593 -3.1615
 1332TIP3    H2 3961   6.822   2.051   5.290 -1.5209 -0.3539  1.1774
 1333TIP3   OH2 3962   4.483   1.033   1.481 -0.4496 -0.2477 -0.9034
 1333TIP3    H1 3963   4.478   0.952   1.531 -1.6664  0.0372 -0.5294
 1333TIP3    H2 3964   4.576   1.057   1.483 -0.1529 -1.3693 -0.6244
 1334TIP3   OH2 3965   3.355   0.465   0.064  0.1667  0.4093 -0.0780
 1334TIP3    H1 3966   3.302   0.422  -0.003  0.6093 -0.6989  0.2753
 1334TIP3    H2 3967   3.389   0.543   0.020 -1.0823  0.7135 -0.5580
 1335TIP3   OH2 3968   1.732   3.774   4.768 -0.0215  0.0818 -0.1811
 1335TIP3    H1 3969   1.801   3.812   4.713 -1.5545  0.7060 -1.7934
 1335TIP3    H2 3970   1.759   3.683   4.781 -0.3616 -0.6311 -3.5067
 1336TIP3   OH2 3971   3.293   6.447   5.028  0.3221  0.4722  0.3791
 1336TIP3    H1 3972   3.248   6.487   5.102 -0.1738  0.4102  0.1130
 1336TIP3    H2 3973   3.341   6.373   5.066 -1.1446 -0.4909  0.4236
 1337TIP3   OH2 3974   4.990   5.857   0.868  0.1706  0.0707  0.2635
 1337TIP3    H1 3975   4.937   5.878   0.790 -0.1435 -0.2028  0.3983
 1337TIP3    H2 3976   4.968   5.765   0.887  1.6132 -0.4440 -0.4022
 1338TIP3   OH2 3977   6.120   4.177   5.581 -0.2362 -0.3991  0.6181
 1338TIP3    H1 3978   6.093   4.153   5.492 -0.3191 -0.1003  0.5615
 1338TIP3    H2 3979   6.039   4.178   5.631 -0.4289  1.0114  0.3311
 1339TIP3   OH2 3980   3.386   3.486   1.237 -0.1789 -0.2495 -0.2375
 1339TIP3    H1 3981   3.384   3.409   1.293 -0.9752 -0.6238 -0.7587
 1339TIP3    H2 3982   3.398   3.451   1.149 -2.0462  0.0879 -0.6658
 1340TIP3   OH2 3983   4.722   6.332   0.528 -0.3466 -0.0123  0.4967
 1340TIP3    H1 3984   4.767   6.270   0.471 -2.9398 -0.9700 -0.6716
 1340TIP3    H2 3985   4.772   6.330   0.609  2.0870 -0.3947 -0.9378
 1341TIP3   OH2 3986   3.790   6.481   2.955 -0.1887 -0.1685 -0.0580
 1341TIP3    H1 3987   3.853   6.441   3.015 -0.2363  0.4782  0.4258
 1341TIP3    H2 3988   3.725   6.413   2.939 -0.1345 -0.3701  0.5605
 1342TIP3   OH2 3989   3.758   0.159   1.754  0.7631 -0.0585 -0.0594
 1342TIP3    H1 3990   3.671   0.130   1.726  1.0879  0.6361 -1.9378
 1342TIP3    H2 3991   3.746   0.251   1.777  1.0013  0.0242 -0.2731
 1343TIP3   OH2 3992   1.764   6.614   2.036 -0.0557 -0.3421 -0.0854
 1343TIP3    H1 3993   1.834   6.555   2.010  2.3037  2.6271 -0.9751
 1343TIP3    H2 3994   1.736   6.656   1.955 -3.0360 -1.4492  0.2221
 1344TIP3   OH2 3995   5.189   4.743   2.408  0.0023  0.0774 -0.1112
 1344TIP3    H1 3996   5.179   4.659   2.363 -1.0511 -0.0927  0.4306
 1344TIP3    H2 3997   5.193   4.721   2.501  0.4502  0.5710 -0.0100
 1345TIP3   OH2 3998   5.089   4.162   2.543 -1.7919  0.2623 -0.3378
 1345TIP3    H1 3999   5.016   4.108   2.573 -0.1817 -1.0283  1.5129
 1345TIP3    H2 4000   5.144   4.101   2.493 -1.6736  1.0804 -1.2293
 1346TIP3   OH2 4001   1.077   4.598   2.088  0.2832  0.1507 -0.2169
 1346TIP3    H1 4002   1.036   4.515   2.065  0.6796 -0.0885 -0.0590
 1346TIP3    H2 4003   1.016   4.664   2.055  0.0988 -0.1966 -0.5805
 1347TIP3   OH2 4004   6.552   5.329   2.068  0.4001  0.0780  0.8207
 1347TIP3    H1 4005   6.490   5.396   2.039 -0.9588 -2.0660 -1.6631
 1347TIP3    H2 4006   6.512   5.292   2.146  0.7696  1.5629  1.7491
 1348TIP3   OH2 4007   0.106   6.508   4.715  0.0539  0.8696 -0.1496
 1348TIP3    H1 4008   0.194   6.474   4.696  0.3712  1.6555 -0.1221
 1348TIP3    H2 4009   0.048   6.451   4.664  0.4384 -0.6054  0.9885
 1349TIP3   OH2 4010   0.692   5.477   3.634  0.3591  0.4491 -0.3182
 1349TIP3    H1 4011   0.642   5.465   3.714  2.8320  0.1221  1.2764
 1349TIP3    H2 4012   0.696   5.572   3.622 -1.4678  0.4597 -1.0749
 1350TIP3   OH2 4013   2.709   3.283   0.090  0.1217 -0.4091  0.8729
 1350TIP3    H1 4014   2.776   3.227   0.129 -1.4171 -0.5425  3.6220
 1350TIP3    H2 4015   2.626   3.242   0.116 -1.0395  1.3635  0.1632
 1351TIP3   OH2 4016   4.862   0.320   0.771  0.7438 -0.0808 -0.1721
 1351TIP3    H1 4017   4.957   0.334   0.762  1.0407 -1.3312  0.8186
 1351TIP3    H2 4018   4.848   0.231   0.739 -0.1031  0.0725 -0.2475
 1352TIP3   OH2 4019   3.983   6.159   4.524 -0.4373 -0.2717  0.0363
 1352TIP3    H1 4020   3.991   6.076   4.571  1.4433  0.4860  1.1571
 1352TIP3    H2 4021   3.899   6.152   4.478 -0.6903 -2.4659  0.6966
 1353TIP3   OH2 4022   3.825   2.611   1.264  0.5597  0.3464  0.2541
 1353TIP3    H1 4023   3.826   2.517   1.250  2.5587  0.2466  0.8050
 1353TIP3    H2 4024   3.769   2.623   1.341  0.1311 -0.3527  0.0644
 1354TIP3   OH2 4025   6.281   3.307   4.324 -0.1467  0.5232  0.2944
 1354TIP3    H1 4026   6.223   3.289   4.398  0.2963  1.9701  1.0315
 1354TIP3    H2 4027   6.349   3.364   4.360 -0.5967  2.2872 -1.4665
 1355TIP3   OH2 4028   1.498   5.426   0.857  0.1213 -0.4176 -0.1166
 1355TIP3    H1 4029   1.467   5.336   0.865 -2.5497  0.5793  2.7980
 1355TIP3    H2 4030   1.464   5.470   0.935  0.4523  3.3876 -1.8915
 1356TIP3   OH2 4031   6.628   3.674   4.141 -0.1220  0.6420  0.1297
 1356TIP3    H1 4032   6.672   3.758   4.127 -0.5971  0.7803 -0.5960
 1356TIP3    H2 4033   6.690   3.623   4.194  1.6443  0.2472 -2.1243
 1357TIP3   OH2 4034   0.115   4.146   4.319  0.1683 -0.4141 -0.1101
 1357TIP3    H1 4035   0.084   4.236   4.314  0.4129 -0.3275 -0.0787
 1357TIP3    H2 4036   0.209   4.152   4.300  0.8169 -0.3037  2.7436
 1358TIP3   OH2 4037   0.356   1.957   1.160  0.3360  0.4633 -0.0905
 1358TIP3    H1 4038   0.309   1.873   1.159  0.8510  0.0899  1.6927
 1358TIP3    H2 4039   0.340   1.992   1.248 -0.0924  2.3938 -0.8996
 1359TIP3   OH2 4040   4.368   6.276   4.480  0.4566 -0.0752  0.7898
 1359TIP3    H1 4041   4.359   6.355   4.427  1.1208  0.2483  1.1475
 1359TIP3    H2 4042   4.305   6.215   4.442 -0.8806  0.9870  1.2024
 1360TIP3   OH2 4043   4.004   6.304   4.079 -0.5970  0.0160 -0.4144
 1360TIP3    H1 4044   4.059   6.231   4.050 -0.1636  0.1349  0.1011
 1360TIP3    H2 4045   3.987   6.285   4.172  0.4414  1.1402  0.0266
 1361TIP3   OH2 4046   4.587   6.339   3.443 -0.3405 -0.2217  0.0022
 1361TIP3    H1 4047   4.591   6.379   3.530 -1.4787  0.0279 -0.0367
 1361TIP3    H2 4048   4.563   6.412   3.385  1.2978 -0.1867 -0.6817
 1362TIP3   OH2 4049   2.481   3.882   4.784 -0.4084 -0.4605  0.1946
 1362TIP3    H1 4050   2.547   3.939   4.745 -0.6415 -0.2185  0.1498
 1362TIP3    H2 4051   2.415   3.942   4.819 -1.0657 -0.7231 -0.5800
 1363TIP3   OH2 4052   1.516   5.723   5.137 -0.5922  0.1353  0.4395
 1363TIP3    H1 4053   1.587   5.763   5.187  0.0707  0.3024 -0.6067
 1363TIP3    H2 4054   1.439   5.775   5.158  0.7389  4.1666 -3.2152
 1364TIP3   OH2 4055   1.605   6.110   1.381 -0.6101  0.3135 -0.3764
 1364TIP3    H1 4056   1.607   6.077   1.291 -0.8927 -1.2826  0.1570
 1364TIP3    H2 4057   1.568   6.037   1.432 -1.3669  1.5281  0.8893
 1365TIP3   OH2 4058   3.463   0.648   2.753  0.2135 -0.2838  0.3339
 1365TIP3    H1 4059   3.541   0.644   2.696  0.0446 -0.6058  0.1199
 1365TIP3    H2 4060   3.389   0.640   2.693 -0.0363  1.2062  0.4082
 1366TIP3   OH2 4061   0.093   1.193   1.549  0.3377  0.0595 -0.0194
 1366TIP3    H1 4062   0.180   1.225   1.527 -0.0751  0.2748 -1.4344
 1366TIP3    H2 4063   0.039   1.272   1.551  0.0968 -0.1111  0.5247
 1367TIP3   OH2 4064   3.446   3.206   3.482 -0.1643 -0.1230  0.3025
 1367TIP3    H1 4065   3.440   3.285   3.537 -3.7162  1.4628 -2.0001
 1367TIP3    H2 4066   3.485   3.237   3.400  2.1098 -1.7517  0.6851
 1368TIP3   OH2 4067   5.218   2.335   1.063 -0.0597  0.1937 -0.2163
 1368TIP3    H1 4068   5.167   2.375   1.134  0.4618  1.2190 -0.4034
 1368TIP3    H2 4069   5.152   2.305   1.001 -0.4637  0.8711 -0.1222
 1369TIP3   OH2 4070   5.048   0.211   1.669  0.4434 -0.1461  0.3965
 1369TIP3    H1 4071   5.098   0.264   1.730 -0.2603 -1.5801  2.3198
 1369TIP3    H2 4072   5.004   0.275   1.612  3.8168  1.1662 -0.9588
 1370TIP3   OH2 4073   3.559   4.019   1.029  0.0021 -0.6300  0.2848
 1370TIP3    H1 4074   3.598   3.933   1.010 -1.2269 -1.0171 -0.5928
 1370TIP3    H2 4075   3.520   4.047   0.947 -2.0728 -0.5447  1.2309
 1371TIP3   OH2 4076   5.759   5.947   3.055 -0.5898 -0.6332  0.0960
 1371TIP3    H1 4077   5.714   5.874   3.097 -1.9284  0.9900  1.7091
 1371TIP3    H2 4078   5.701   5.971   2.982  0.2089 -1.5798 -0.8757
 1372TIP3   OH2 4079   4.765   3.506   2.631  0.6430  0.1918 -0.1275
 1372TIP3    H1 4080   4.692   3.568   2.630  0.1999 -0.2363  1.8674
 1372TIP3    H2 4081   4.729   3.426   2.668  1.6074 -0.7778 -1.1850
 1373TIP3   OH2 4082   4.041   6.167   3.691 -0.0145  0.2399 -0.5085
 1373TIP3    H1 4083   4.111   6.231   3.678 -0.6404  1.1215  0.3596
 1373TIP3    H2 4084   4.086   6.091   3.728  0.5267  0.7074 -0.1826
 1374TIP3   OH2 4085   0.634   5.478   1.469 -0.1678 -0.1450 -0.3305
 1374TIP3    H1 4086   0.619   5.484   1.563 -0.2341 -1.6656 -0.2148
 1374TIP3    H2 4087   0.578   5.405   1.441 -0.5935  0.6578 -1.6580
 1375TIP3   OH2 4088   0.782   1.995   4.150  0.1077 -0.7460  0.3103
 1375TIP3    H1 4089   0.863   1.944   4.155 -1.1298 -2.8196  0.3473
 1375TIP3    H2 4090   0.773   2.014   4.056  0.3553 -0.9846  0.2346
 1376TIP3   OH2 4091   1.053   1.097   0.879 -0.2987 -0.3509  0.3026
 1376TIP3    H1 4092   1.147   1.116   0.884  0.0341 -1.2300 -1.7182
 1376TIP3    H2 4093   1.011   1.183   0.881  0.6494  0.1364 -0.2240
 1377TIP3   OH2 4094   4.051   1.294   2.968  0.1595 -0.1928  0.2636
 1377TIP3    H1 4095   4.142   1.266   2.978  0.2994  0.1108 -0.1550
 1377TIP3    H2 4096   4.045   1.375   3.019 -0.2570 -0.9670  1.5137
 1378TIP3   OH2 4097   3.760   5.777   1.073 -0.3126 -0.0208  0.7688
 1378TIP3    H1 4098   3.764   5.849   1.010  0.5632  0.1472  0.9965
 1378TIP3    H2 4099   3.852   5.752   1.085 -0.6242 -1.3500  0.4940
 1379TIP3   OH2 4100   6.311   4.909   4.979 -0.3147  0.7182 -0.0660
 1379TIP3    H1 4101   6.399   4.946   4.970  0.6836 -0.9897  1.9456
 1379TIP3    H2 4102   6.301   4.852   4.902 -0.1438  1.7806 -0.8954
 1380TIP3   OH2 4103   5.546   6.416   0.822  0.0031  0.3352  0.1891
 1380TIP3    H1 4104   5.510   6.481   0.882 -0.2377 -1.2976  1.9020
 1380TIP3    H2 4105   5.482   6.345   0.822  0.7763 -0.3907 -0.7618
 1381TIP3   OH2 4106   0.753   4.610   4.106 -0.2349 -0.1169  0.2441
 1381TIP3    H1 4107   0.767   4.577   4.194  2.0586  0.1191  0.0365
 1381TIP3    H2 4108   0.749   4.705   4.116  4.1640  0.3185 -0.1712
 1382TIP3   OH2 4109   3.874   3.945   5.335 -0.9257 -0.2745  0.5866
 1382TIP3    H1 4110   3.814   3.878   5.369 -1.3931  0.5073  1.3221
 1382TIP3    H2 4111   3.822   3.992   5.269 -1.1178  0.3800  1.1986
 1383TIP3   OH2 4112   4.137   5.363   1.802  0.0968 -0.0666  0.4983
 1383TIP3    H1 4113   4.131   5.272   1.831  0.1586  0.5896  2.7613
 1383TIP3    H2 4114   4.054   5.403   1.831 -0.2028  0.4872 -1.0113
 1384TIP3   OH2 4115   3.265   6.478   0.705 -0.0916 -0.4890  0.1015
 1384TIP3    H1 4116   3.227   6.397   0.740  1.0409 -2.3766 -2.6284
 1384TIP3    H2 4117   3.190   6.531   0.678 -0.8431 -0.9646  1.1874
 1385TIP3   OH2 4118   2.848   6.300   1.605 -0.0015  0.3023  0.1619
 1385TIP3    H1 4119   2.786   6.301   1.533  0.1770  0.6146  0.0114
 1385TIP3    H2 4120   2.932   6.322   1.565  0.3179 -0.6634  0.2666
 1386TIP3   OH2 4121   5.606   3.726   0.492  0.5474 -0.1992  0.1585
 1386TIP3    H1 4122   5.534   3.755   0.436  0.0898 -0.3889  0.6331
 1386TIP3    H2 4123   5.576   3.746   0.581  2.2853  2.3841  0.2418
 1387TIP3   OH2 4124   2.991   5.484   4.895 -0.2842  0.4186 -0.1809
 1387TIP3    H1 4125   2.981   5.452   4.805  0.4017 -1.9293  0.5143
 1387TIP3    H2 4126   2.919   5.546   4.906  0.8779  2.5048 -3.0077
 1388TIP3   OH2 4127   4.475   0.426   5.138 -0.0586 -0.2789  0.5633
 1388TIP3    H1 4128   4.485   0.415   5.044  0.6800 -0.8561  0.7027
 1388TIP3    H2 4129   4.394   0.380   5.159 -0.5298  0.3387  0.1330
 1389TIP3   OH2 4130   2.523   3.613   5.464  0.0747 -0.3566 -0.7722
 1389TIP3    H1 4131   2.588   3.679   5.490  0.3076 -0.1950 -1.7411
 1389TIP3    H2 4132   2.498   3.570   5.546 -1.0093  1.7637  0.0968
 1390TIP3   OH2 4133   6.224   6.258   4.078 -0.5546  0.2667  0.0135
 1390TIP3    H1 4134   6.187   6.253   3.990  1.9732  0.9383 -1.1847
 1390TIP3    H2 4135   6.215   6.169   4.112 -2.4357  0.2096 -0.4893
 1391TIP3   OH2 4136   4.894   2.278   1.387 -0.2448  0.3865  0.4130
 1391TIP3    H1 4137   4.942   2.320   1.316  0.8459  0.9851  1.4748
 1391TIP3    H2 4138   4.957   2.221   1.429 -2.0132 -3.6807 -1.8796
 1392TIP3   OH2 4139   3.651   2.614   5.466  0.2564  0.0706 -0.6181
 1392TIP3    H1 4140   3.608   2.537   5.503  0.9272 -0.8092 -1.6181
 1392TIP3    H2 4141   3.744   2.602   5.486  0.3788  0.5939 -0.8376
 1393TIP3   OH2 4142   5.687   6.626   3.439  0.3138  0.4366  0.0608
 1393TIP3    H1 4143   5.630   6.703   3.446  0.5613  0.6827 -0.5533
 1393TIP3    H2 4144   5.693   6.609   3.345  2.0170  0.9917  0.0348
 1394TIP3   OH2 4145   3.550   2.543   0.694  0.2894 -0.7188 -0.3234
 1394TIP3    H1 4146   3.469   2.590   0.673  0.7414  1.3619  2.1802
 1394TIP3    H2 4147   3.620   2.595   0.654  0.7922  0.9315  2.4479
 1395TIP3   OH2 4148   4.498   4.170   4.323 -0.2276 -0.0212  0.1695
 1395TIP3    H1 4149   4.544   4.122   4.391  0.5653 -1.2732 -1.1826
 1395TIP3    H2 4150   4.464   4.248   4.366  0.0270 -0.8964  2.0296
 1396TIP3   OH2 4151   3.501   0.957   2.525 -0.4582 -0.5625  0.2219
 1396TIP3    H1 4152   3.483   0.865   2.545 -2.8979  0.0817  1.3653
 1396TIP3    H2 4153   3.455   1.006   2.593  0.0114  1.5499 -0.8941
 1397TIP3   OH2 4154   5.497   1.485   2.788 -0.2288  0.1736  0.2027
 1397TIP3    H1 4155   5.420   1.506   2.735 -1.3154  0.2134  1.7255
 1397TIP3    H2 4156   5.561   1.452   2.726 -1.6905 -0.4185 -1.0496
 1398TIP3   OH2 4157   5.256   2.154   5.250  0.4067 -0.2045 -0.2104
 1398TIP3    H1 4158   5.170   2.176   5.213  0.3644 -0.4722 -0.2746
 1398TIP3    H2 4159   5.318   2.206   5.199  0.2115  0.6481  0.4079
 1399TIP3   OH2 4160   1.631   1.396   3.571 -0.6998 -0.8831  0.0679
 1399TIP3    H1 4161   1.553   1.355   3.534 -0.2165 -1.2155 -0.6290
 1399TIP3    H2 4162   1.641   1.356   3.657 -1.3342 -0.7838  0.1909
 1400TIP3   OH2 4163   1.485   2.893   2.209 -0.1602 -0.0887 -0.8737
 1400TIP3    H1 4164   1.480   2.875   2.115  0.5017  0.2787 -0.9848
 1400TIP3    H2 4165   1.488   2.989   2.215  1.4891 -0.1260 -0.5869
 1401TIP3   OH2 4166   1.880   5.388   0.504 -0.8456  0.4350 -0.0493
 1401TIP3    H1 4167   1.971   5.413   0.523 -0.2354 -1.1502 -0.7303
 1401TIP3    H2 4168   1.828   5.453   0.551  0.6088 -0.0773  2.4508
 1402TIP3   OH2 4169   5.700   5.813   5.116 -0.8778  0.3010 -0.0006
 1402TIP3    H1 4170   5.767   5.807   5.048 -1.6821 -5.1664 -0.7707
 1402TIP3    H2 4171   5.634   5.872   5.080  1.9058  3.4012 -0.5259
 1403TIP3   OH2 4172   2.475   5.157   3.087 -0.4607 -0.5363 -0.3014
 1403TIP3    H1 4173   2.401   5.211   3.059 -0.5780 -1.6206 -2.2416
 1403TIP3    H2 4174   2.549   5.217   3.087 -1.1135  0.3293  0.7011
 1404TIP3   OH2 4175   5.795   0.930   5.328 -0.2637 -0.4595  0.2388
 1404TIP3    H1 4176   5.833   0.955   5.413 -0.6508 -1.7801  0.8365
 1404TIP3    H2 4177   5.848   0.977   5.263 -0.6154  1.3828  1.2380
 1405TIP3   OH2 4178   1.924   1.678   5.500 -0.3038 -0.3530  0.8970
 1405TIP3    H1 4179   1.967   1.756   5.535 -2.0420  1.0858  0.0442
 1405TIP3    H2 4180   1.849   1.713   5.452 -1.0465 -2.5751  0.3440
 1406TIP3   OH2 4181   4.555   6.209   1.709 -0.4627  0.6899  0.0362
 1406TIP3    H1 4182   4.541   6.134   1.652 -2.0190  0.6884  0.3796
 1406TIP3    H2 4183   4.501   6.279   1.670  0.7355  1.5737 -0.1218
 1407TIP3   OH2 4184   6.532   0.356   1.497  0.7674 -0.0841  0.1767
 1407TIP3    H1 4185   6.541   0.390   1.408  4.3251 -1.8691 -0.3173
 1407TIP3    H2 4186   6.542   0.434   1.552 -1.2107  1.0038 -0.8510
 1408TIP3   OH2 4187   1.442   6.282   3.283 -0.3461  0.0365  0.2296
 1408TIP3    H1 4188   1.448   6.187   3.271 -0.4078  0.0786 -0.1404
 1408TIP3    H2 4189   1.459   6.295   3.376 -0.7973 -0.3762  0.3718
 1409TIP3   OH2 4190   4.044   6.595   1.475 -0.1499  0.1760  0.2113
 1409TIP3    H1 4191   4.044   6.685   1.509 -2.2611  0.7942 -1.2008
 1409TIP3    H2 4192   4.136   6.575   1.461  0.4904  1.4411  2.2036
 1410TIP3   OH2 4193   1.429   2.159   1.161 -0.4246  0.3645  0.3324
 1410TIP3    H1 4194   1.345   2.172   1.117 -0.3294 -0.0270  0.0304
 1410TIP3    H2 4195   1.427   2.220   1.235 -0.0882  1.9313 -0.8971
 1411TIP3   OH2 4196   1.493   2.237   2.404  0.2246  0.3200  0.5024
 1411TIP3    H1 4197   1.465   2.184   2.329  0.9239 -1.0945  1.1878
 1411TIP3    H2 4198   1.418   2.236   2.464  0.1019  0.4232  0.3506
 1412TIP3   OH2 4199   3.054   1.480   4.868 -0.1125  0.4382 -0.1552
 1412TIP3    H1 4200   2.987   1.518   4.924 -0.5344 -1.8927  1.0580
 1412TIP3    H2 4201   3.128   1.463   4.927  0.4808  0.4171 -0.8860
 1413TIP3   OH2 4202   3.172   2.389   0.767  0.2589 -0.0151 -0.0749
 1413TIP3    H1 4203   3.083   2.384   0.803 -0.0286  0.2894 -0.7322
 1413TIP3    H2 4204   3.193   2.483   0.768  0.0687  0.0488 -1.1119
 1414TIP3   OH2 4205   1.542   6.164   0.550 -0.3205 -0.1193  0.2918
 1414TIP3    H1 4206   1.529   6.156   0.455 -1.5140  1.6223  0.2615
 1414TIP3    H2 4207   1.546   6.074   0.582 -1.7630 -0.7492 -1.1810
 1415TIP3   OH2 4208   3.491   1.058   2.793  0.1003  0.2107 -0.4160
 1415TIP3    H1 4209   3.464   1.020   2.877 -1.5984  1.7981 -0.1659
 1415TIP3    H2 4210   3.458   1.148   2.796  1.7746  0.9430 -1.9766
 1416TIP3   OH2 4211   6.477   3.863   3.022  0.1348 -0.4429  0.1186
 1416TIP3    H1 4212   6.419   3.921   3.072  1.8057  1.7876 -0.3781
 1416TIP3    H2 4213   6.564   3.879   3.058  0.9979 -0.7659 -1.7242
 1417TIP3   OH2 4214   2.489   6.314   1.723  0.2046 -0.2959  0.5566
 1417TIP3    H1 4215   2.406   6.359   1.739  1.5148  2.2356  0.7541
 1417TIP3    H2 4216   2.502   6.320   1.629  0.2623 -0.5260  0.5487
 1418TIP3   OH2 4217   1.354   2.644   0.591 -0.3827  0.2828 -0.2063
 1418TIP3    H1 4218   1.279   2.673   0.642  0.5726  0.6081  1.0746
 1418TIP3    H2 4219   1.317   2.608   0.511 -1.8996  0.3096  0.4590
 1419TIP3   OH2 4220   4.842   5.547   4.885  0.1548 -0.3798  0.1612
 1419TIP3    H1 4221   4.884   5.624   4.846 -0.2238 -0.4680 -0.4389
 1419TIP3    H2 4222   4.774   5.582   4.941 -0.7390 -0.2893 -0.9566
 1420TIP3   OH2 4223   0.802   4.635   0.238 -0.4190  0.5838 -0.3871
 1420TIP3    H1 4224   0.777   4.715   0.284  0.0270  0.4936  0.0128
 1420TIP3    H2 4225   0.737   4.570   0.265 -1.2949  1.0144 -1.3667
 1421TIP3   OH2 4226   3.139   4.747   1.263  0.0118 -0.8022  0.1858
 1421TIP3    H1 4227   3.194   4.815   1.301  0.2267 -0.6923 -0.3145
 1421TIP3    H2 4228   3.130   4.682   1.333 -0.2216 -0.2523  0.6773
 1422TIP3   OH2 4229   3.285   1.373   0.438  0.2214 -0.4985 -0.2907
 1422TIP3    H1 4230   3.295   1.439   0.507  1.9076 -0.7440 -0.2495
 1422TIP3    H2 4231   3.362   1.384   0.383  0.5455 -2.3997 -0.2990
 1423TIP3   OH2 4232   4.759   2.440   3.732  0.0086  0.1156 -0.0230
 1423TIP3    H1 4233   4.677   2.489   3.738  0.6071  1.3024 -1.1115
 1423TIP3    H2 4234   4.766   2.394   3.816 -0.6396  1.8002  1.0016
 1424TIP3   OH2 4235   2.056   3.881   2.190 -0.2523 -0.1318 -0.0421
 1424TIP3    H1 4236   2.133   3.919   2.233 -0.5306 -1.4788  1.7682
 1424TIP3    H2 4237   2.091   3.821   2.125  0.1807  1.3674 -1.2517
 1425TIP3   OH2 4238   1.960   4.481   0.218  0.2511  0.3997 -0.6163
 1425TIP3    H1 4239   1.905   4.435   0.281  1.1059 -0.1055 -0.2299
 1425TIP3    H2 4240   1.898   4.532   0.165 -0.6315 -0.4976 -0.4758
 1426TIP3   OH2 4241   4.580   4.083   2.179 -0.3792 -0.1708  0.0854
 1426TIP3    H1 4242   4.568   4.019   2.108 -0.0262 -0.2888  0.1306
 1426TIP3    H2 4243   4.614   4.161   2.135  0.3259 -0.4155  0.1959
 1427TIP3   OH2 4244   0.357   2.440   3.308 -0.2717 -0.4408 -0.0826
 1427TIP3    H1 4245   0.311   2.362   3.278  1.7259 -2.0019  0.6826
 1427TIP3    H2 4246   0.427   2.452   3.244  1.8706 -1.7222  1.8759
 1428TIP3   OH2 4247   4.345   4.787   3.399  0.2806  0.0679  0.0054
 1428TIP3    H1 4248   4.312   4.702   3.431 -2.6047  0.4683 -1.6183
 1428TIP3    H2 4249   4.398   4.765   3.323  1.0013 -0.3578  0.6111
 1429TIP3   OH2 4250   0.792   5.725   0.503  0.1307 -0.0761 -0.0849
 1429TIP3    H1 4251   0.786   5.783   0.578  0.5108 -0.9971  0.6784
 1429TIP3    H2 4252   0.743   5.770   0.434  1.6740  1.8541  0.0023
 1430TIP3   OH2 4253   2.904   3.735   4.707 -0.4490  0.0231  0.1111
 1430TIP3    H1 4254   2.942   3.649   4.689 -0.8942  0.0507 -1.0377
 1430TIP3    H2 4255   2.809   3.721   4.705 -0.5900  0.8025 -1.7485
 1431TIP3   OH2 4256   4.426   3.734   1.517  0.7603 -0.2899 -0.0369
 1431TIP3    H1 4257   4.465   3.813   1.480  0.2766 -0.5415 -1.1156
 1431TIP3    H2 4258   4.491   3.666   1.502  2.3500  0.3094  3.1922
 1432TIP3   OH2 4259   3.870   4.697   2.451  0.6162 -0.2742 -0.1009
 1432TIP3    H1 4260   3.908   4.669   2.534  1.1700  0.1138 -0.2218
 1432TIP3    H2 4261   3.841   4.616   2.409  0.0274 -0.4428  0.6116
 1433TIP3   OH2 4262   0.637   3.138   4.280  0.2024  0.0413  0.2982
 1433TIP3    H1 4263   0.597   3.051   4.272  0.0192  0.1517 -0.0298
 1433TIP3    H2 4264   0.722   3.121   4.320  0.3086 -0.3317 -0.0692
 1434TIP3   OH2 4265   3.982   6.442   5.859  0.1720  0.0305  0.4678
 1434TIP3    H1 4266   4.016   6.527   5.832 -1.8218  1.5280  2.3188
 1434TIP3    H2 4267   3.920   6.462   5.929  1.8748 -3.1689  3.1808
 1435TIP3   OH2 4268   1.720   3.159   2.451  0.2007 -0.4610  0.9568
 1435TIP3    H1 4269   1.736   3.243   2.407  0.9109 -1.5837 -1.0628
 1435TIP3    H2 4270   1.631   3.167   2.485  0.2015  1.0527  0.6705
 1436TIP3   OH2 4271   0.477   1.744   3.162  0.2298 -0.8624 -0.1374
 1436TIP3    H1 4272   0.387   1.776   3.157  1.2297  2.4947  0.4925
 1436TIP3    H2 4273   0.472   1.665   3.217 -2.5046 -1.9988 -1.8472
 1437TIP3   OH2 4274   5.444   1.848   2.800 -0.4585  0.1189 -0.1857
 1437TIP3    H1 4275   5.374   1.784   2.816 -0.7785  0.4954 -0.0457
 1437TIP3    H2 4276   5.512   1.798   2.756 -0.5285 -0.4176  0.2867
 1438TIP3   OH2 4277   2.156   3.749   4.396  0.3856 -0.0507  0.0840
 1438TIP3    H1 4278   2.105   3.702   4.330 -0.0979 -0.8505  1.0167
 1438TIP3    H2 4279   2.215   3.684   4.432  0.8586  0.4564  0.2380
 1439TIP3   OH2 4280   2.577   1.516   0.762 -0.3622 -0.2502 -0.1917
 1439TIP3    H1 4281   2.671   1.525   0.775 -0.2597  1.3014 -1.7089
 1439TIP3    H2 4282   2.539   1.596   0.797 -0.7044  0.8336 -2.7926
 1440TIP3   OH2 4283   3.174   1.388   1.432 -0.0336  0.4513 -0.2762
 1440TIP3    H1 4284   3.208   1.307   1.393  0.5690 -0.1971  1.4471
 1440TIP3    H2 4285   3.106   1.358   1.493 -0.1958  1.2910 -0.0304
 1441TIP3   OH2 4286   6.234   2.070   5.333  0.5587 -0.0028  0.4818
 1441TIP3    H1 4287   6.251   2.155   5.292 -1.0353 -0.4724 -1.2912
 1441TIP3    H2 4288   6.139   2.060   5.327  0.8444 -2.6129 -0.8309
 1442TIP3   OH2 4289   4.059   5.924   4.167 -0.3892  0.4147  0.1112
 1442TIP3    H1 4290   4.014   5.854   4.215 -1.0892  0.2294 -0.7756
 1442TIP3    H2 4291   3.989   5.981   4.136 -0.1715 -0.4632 -2.2271
 1443TIP3   OH2 4292   0.383   6.149   2.629  0.2744  0.5871 -0.2962
 1443TIP3    H1 4293   0.365   6.238   2.599 -2.4900  0.1330 -0.2345
 1443TIP3    H2 4294   0.373   6.154   2.724 -2.1250 -0.1497 -0.4445
 1444TIP3   OH2 4295   4.516   4.227   0.942  0.1013  0.2731  0.2295
 1444TIP3    H1 4296   4.554   4.241   0.855 -1.8636 -1.3752 -0.9911
 1444TIP3    H2 4297   4.576   4.164   0.984  1.8966  2.2200  0.7543
 1445TIP3   OH2 4298   0.934   4.397   4.945 -0.7445  0.7099 -0.1623
 1445TIP3    H1 4299   0.919   4.464   5.012  1.1425  1.2722 -0.2434
 1445TIP3    H2 4300   1.023   4.366   4.962 -1.3834 -1.4722 -0.4253
 1446TIP3   OH2 4301   4.106   0.806   2.116 -0.1408  0.0556 -0.2164
 1446TIP3    H1 4302   4.095   0.795   2.210  0.8716 -0.9047 -0.1777
 1446TIP3    H2 4303   4.200   0.821   2.105 -0.4926  2.0303 -0.9376
 1447TIP3   OH2 4304   4.834   3.023   5.338 -0.3415  0.0255  0.1831
 1447TIP3    H1 4305   4.887   2.987   5.266  0.5900  1.0158  0.3445
 1447TIP3    H2 4306   4.815   3.113   5.311 -1.1806 -0.0367  0.5503
 1448TIP3   OH2 4307   6.973   2.567   1.147 -0.0006  0.1456 -0.2400
 1448TIP3    H1 4308   6.943   2.595   1.061 -0.7233  0.7583  0.1956
 1448TIP3    H2 4309   6.919   2.617   1.209  0.7446 -0.0225  0.5671
 1449TIP3   OH2 4310   2.739   1.705   5.208  0.4858  0.4523 -0.6262
 1449TIP3    H1 4311   2.748   1.729   5.301  0.1572 -1.0742 -0.1797
 1449TIP3    H2 4312   2.647   1.684   5.197  0.7934 -0.8210 -0.9162
 1450TIP3   OH2 4313   3.321   5.263   0.446  0.0264  0.3464 -1.0390
 1450TIP3    H1 4314   3.390   5.257   0.380 -0.4733  2.6448 -1.8535
 1450TIP3    H2 4315   3.280   5.348   0.431 -0.1912  0.9521  2.1951
 1451TIP3   OH2 4316   0.419   4.917   2.534  0.7575  0.4374  0.0981
 1451TIP3    H1 4317   0.372   4.952   2.459  1.7643  0.1432 -0.6981
 1451TIP3    H2 4318   0.472   4.990   2.565  0.2514  0.5935  0.6099
 1452TIP3   OH2 4319   3.085   3.292   4.352 -0.3625 -0.3771  0.2943
 1452TIP3    H1 4320   3.043   3.233   4.288 -2.3788  0.3026  0.9156
 1452TIP3    H2 4321   3.131   3.356   4.298 -0.2231 -1.0709 -0.4342
 1453TIP3   OH2 4322   3.112   5.835   0.434  0.2910  0.1566  0.0103
 1453TIP3    H1 4323   3.039   5.795   0.388 -0.6612  0.1603  1.4454
 1453TIP3    H2 4324   3.127   5.778   0.510 -1.2083  2.4668  2.2020
 1454TIP3   OH2 4325   1.679   4.211   0.564  0.0075  0.1640 -0.1100
 1454TIP3    H1 4326   1.624   4.134   0.578  1.0580 -0.4972  0.4913
 1454TIP3    H2 4327   1.671   4.261   0.646 -0.6006  0.6605 -0.4645
 1455TIP3   OH2 4328   5.503   4.291   2.938  0.2897  0.5427  0.2335
 1455TIP3    H1 4329   5.550   4.278   2.856  1.8840 -1.4888  1.3541
 1455TIP3    H2 4330   5.422   4.241   2.928  1.4088 -1.4523  0.5397
 1456TIP3   OH2 4331   5.192   3.260   3.123  0.5739 -0.4702  0.2626
 1456TIP3    H1 4332   5.252   3.295   3.057 -1.0409 -0.2625 -1.1671
 1456TIP3    H2 4333   5.160   3.178   3.085  2.2314 -2.2109  2.3707
 1457TIP3   OH2 4334   3.268   5.663   3.385 -0.0591  0.3637 -0.2540
 1457TIP3    H1 4335   3.247   5.718   3.461  1.0141  3.0607 -1.7574
 1457TIP3    H2 4336   3.356   5.631   3.403  1.2055  2.9599 -1.2468
 1458TIP3   OH2 4337   0.799   2.645   3.790  0.0177 -0.0553 -0.7216
 1458TIP3    H1 4338   0.790   2.556   3.756 -0.0189  0.1326 -1.2167
 1458TIP3    H2 4339   0.859   2.688   3.729  1.5665 -0.2872  0.5823
 1459TIP3   OH2 4340   1.005   1.405   5.627  0.1249 -0.4657 -0.2947
 1459TIP3    H1 4341   1.031   1.317   5.654  1.9322 -0.0197 -0.4712
 1459TIP3    H2 4342   1.077   1.461   5.656 -0.8819  0.9345 -0.4030
 1460TIP3   OH2 4343   3.102   6.395   1.422 -0.2729 -0.0487 -0.3619
 1460TIP3    H1 4344   3.151   6.463   1.468  0.3196 -1.2682  0.8920
 1460TIP3    H2 4345   3.169   6.347   1.373  0.0353 -2.1949  1.9529
 1461TIP3   OH2 4346   5.422   0.804   0.421  0.1274  0.0709 -0.4316
 1461TIP3    H1 4347   5.354   0.748   0.382  1.3081 -1.2294 -0.6928
 1461TIP3    H2 4348   5.465   0.747   0.485  0.7135  1.0143  0.0278
 1462TIP3   OH2 4349   3.442   1.839   5.653 -0.4105  0.4385 -0.4044
 1462TIP3    H1 4350   3.395   1.898   5.595 -0.0708 -1.3171 -2.6304
 1462TIP3    H2 4351   3.397   1.755   5.643  1.9311 -0.8246 -1.1247
 1463TIP3   OH2 4352   1.286   3.163   0.037 -0.6017  0.9968  0.0509
 1463TIP3    H1 4353   1.329   3.202  -0.039  0.1965  0.7643  0.3623
 1463TIP3    H2 4354   1.347   3.180   0.109 -0.6274 -0.0997  0.3517
 1464TIP3   OH2 4355   1.547   2.158   1.473  0.3034  0.4010 -0.5996
 1464TIP3    H1 4356   1.641   2.168   1.484  0.4747 -1.8561  0.5816
 1464TIP3    H2 4357   1.510   2.184   1.557 -0.0100  0.2715 -0.6951
 1465TIP3   OH2 4358   0.443   3.044   4.072  0.0463  0.0782 -0.4968
 1465TIP3    H1 4359   0.413   2.964   4.114  0.1240  0.3724  0.1218
 1465TIP3    H2 4360   0.536   3.028   4.052  0.2215  0.2345  0.1717
 1466TIP3   OH2 4361   3.302   5.735   5.717 -0.5097 -0.0579 -0.4636
 1466TIP3    H1 4362   3.236   5.737   5.786 -0.9913  0.3779 -0.9257
 1466TIP3    H2 4363   3.328   5.643   5.711 -1.6410 -0.3799 -0.7989
 1467TIP3   OH2 4364   2.263   5.707   2.879  0.4226  0.1759  0.0523
 1467TIP3    H1 4365   2.262   5.746   2.967 -0.2213  1.2138 -0.3925
 1467TIP3    H2 4366   2.304   5.773   2.824 -0.0019 -0.0808 -0.5915
 1468TIP3   OH2 4367   5.212   1.750   5.700 -0.4131 -0.1410 -0.1918
 1468TIP3    H1 4368   5.241   1.678   5.644 -2.1993 -0.8084 -0.2992
 1468TIP3    H2 4369   5.274   1.750   5.774  0.3686 -0.9344 -0.8353
 1469TIP3   OH2 4370   1.749   5.757   1.215 -0.2989  0.2224 -0.0995
 1469TIP3    H1 4371   1.811   5.733   1.283 -1.0662 -0.9454  0.2218
 1469TIP3    H2 4372   1.773   5.702   1.140 -0.4884  0.2869 -0.2087
 1470TIP3   OH2 4373   1.845   3.663   3.422 -0.4279  0.5648  0.5736
 1470TIP3    H1 4374   1.803   3.703   3.498  1.8526  1.0392  1.6785
 1470TIP3    H2 4375   1.810   3.711   3.347 -1.9332  0.7976  1.3879
 1471TIP3   OH2 4376   1.171   5.629   3.501 -0.4475 -0.0682 -0.2160
 1471TIP3    H1 4377   1.116   5.558   3.467 -0.3677 -0.4159  0.3526
 1471TIP3    H2 4378   1.252   5.624   3.451 -0.7344  0.1073 -0.6992
 1472TIP3   OH2 4379   0.392   3.232   1.839  0.3858 -0.0941  0.0166
 1472TIP3    H1 4380   0.406   3.293   1.766 -0.1061 -1.1669 -1.0028
 1472TIP3    H2 4381   0.372   3.148   1.797  0.4984 -0.8360  1.3938
 1473TIP3   OH2 4382   5.298   6.120   0.003 -0.1213 -0.4429 -0.7805
 1473TIP3    H1 4383   5.291   6.208   0.039 -1.1943 -0.0755 -1.8096
 1473TIP3    H2 4384   5.349   6.071   0.068 -1.4745  0.3252  0.9453
 1474TIP3   OH2 4385   6.593   5.596   5.020 -0.2635  0.4983  0.6587
 1474TIP3    H1 4386   6.501   5.615   5.000 -0.5342 -0.6789  0.7444
 1474TIP3    H2 4387   6.605   5.630   5.109 -0.7755  0.1495  0.8670
 1475TIP3   OH2 4388   4.637   3.340   1.720 -0.2151  0.3216  0.6267
 1475TIP3    H1 4389   4.555   3.388   1.735 -0.5740 -0.0178 -0.1621
 1475TIP3    H2 4390   4.645   3.282   1.795 -0.5324  0.5861  0.8701
 1476TIP3   OH2 4391   0.050   4.685   4.277  0.0556 -0.4548 -0.4043
 1476TIP3    H1 4392   0.138   4.709   4.247 -0.1406  1.8002  0.6378
 1476TIP3    H2 4393  -0.009   4.729   4.217 -0.3226  0.3944  0.5509
 1477TIP3   OH2 4394   6.529   3.648   2.124 -0.3953 -0.1720  0.2884
 1477TIP3    H1 4395   6.594   3.609   2.183 -0.5949 -1.5866 -0.3682
 1477TIP3    H2 4396   6.487   3.573   2.083 -1.8439  0.7427  0.0374
 1478TIP3   OH2 4397   6.282   6.504   5.802 -0.3868 -0.3567 -0.0285
 1478TIP3    H1 4398   6.255   6.479   5.713  2.3813  0.5412 -1.2335
 1478TIP3    H2 4399   6.369   6.465   5.812  0.2605  1.3455  1.4523
 1479TIP3   OH2 4400   1.413   5.530   2.399 -0.4438  0.3034  0.8591
 1479TIP3    H1 4401   1.325   5.563   2.419 -0.7311  0.5329 -0.6311
 1479TIP3    H2 4402   1.470   5.606   2.408 -0.8886  0.9440 -1.1420
 1480TIP3   OH2 4403   1.635   1.807   2.591 -0.4751  0.7416  0.7795
 1480TIP3    H1 4404   1.547   1.838   2.570  0.2661  0.2306 -4.2734
 1480TIP3    H2 4405   1.692   1.855   2.531  1.9688 -2.7044  0.0883
 1481TIP3   OH2 4406   6.782   1.150   4.498 -0.3298 -0.2362 -0.0347
 1481TIP3    H1 4407   6.819   1.062   4.510 -0.9532 -0.5504 -0.4046
 1481TIP3    H2 4408   6.691   1.142   4.527 -0.0292  0.6281  1.2280
 1482TIP3   OH2 4409   4.957   2.245   0.325 -0.1676 -0.1243  0.2616
 1482TIP3    H1 4410   4.939   2.272   0.235 -0.3214 -0.6337  0.1370
 1482TIP3    H2 4411   5.024   2.306   0.356  0.5659 -0.5175 -0.5161
 1483TIP3   OH2 4412   5.563   5.395   1.542  0.2759 -0.2054 -0.1620
 1483TIP3    H1 4413   5.584   5.488   1.544 -0.6422  0.0078  0.3807
 1483TIP3    H2 4414   5.469   5.391   1.560  0.5336 -1.3093  1.1568
 1484TIP3   OH2 4415   6.049   3.353   3.503 -0.1582  0.2699 -0.6464
 1484TIP3    H1 4416   6.125   3.342   3.445  0.0989 -0.0181 -0.2607
 1484TIP3    H2 4417   6.024   3.264   3.527  0.9255  0.4055  1.1929
 1485TIP3   OH2 4418   2.859   1.189   4.113  0.6960 -0.0924 -0.3079
 1485TIP3    H1 4419   2.874   1.124   4.044 -2.0082 -1.9438  0.7025
 1485TIP3    H2 4420   2.850   1.272   4.065 -0.4085 -1.2034 -2.1460
 1486TIP3   OH2 4421   0.333   1.139   0.669 -0.3142 -0.3467  0.2326
 1486TIP3    H1 4422   0.392   1.069   0.640 -0.2794  0.4892 -1.8886
 1486TIP3    H2 4423   0.285   1.164   0.590 -0.4480  1.9205  0.9752
 1487TIP3   OH2 4424   2.345   5.469   0.402  1.5293  0.4771  0.0359
 1487TIP3    H1 4425   2.425   5.512   0.374  0.5434  1.4034 -1.5559
 1487TIP3    H2 4426   2.365   5.376   0.399  2.1836  0.6407 -1.6420
 1488TIP3   OH2 4427   1.406   0.414   3.548 -0.0574  0.0192 -0.2857
 1488TIP3    H1 4428   1.425   0.320   3.543 -0.3877 -0.0312 -0.6038
 1488TIP3    H2 4429   1.374   0.437   3.460  2.1830  0.9038 -0.9394
 1489TIP3   OH2 4430   4.434   5.139   5.262 -0.0292 -0.2254 -0.5398
 1489TIP3    H1 4431   4.342   5.116   5.270  0.1486 -1.0282 -0.6252
 1489TIP3    H2 4432   4.472   5.066   5.212  1.2049 -1.4566  1.9984
 1490TIP3   OH2 4433   2.929   5.513   2.358  0.0200  0.0256  0.1772
 1490TIP3    H1 4434   2.852   5.534   2.305 -0.1052 -0.2826  0.2317
 1490TIP3    H2 4435   2.947   5.421   2.337  0.0998 -0.0335  0.5103
 1491TIP3   OH2 4436   4.179   5.992   1.555 -0.1904 -0.7122  0.1429
 1491TIP3    H1 4437   4.104   5.954   1.509 -1.0575 -0.2920  1.1847
 1491TIP3    H2 4438   4.191   6.078   1.514  0.2477 -1.1068 -0.5751
 1492TIP3   OH2 4439   2.095   0.031   3.923  0.1774 -0.1491 -0.0274
 1492TIP3    H1 4440   2.097   0.056   4.016 -1.2850 -2.5474  0.7369
 1492TIP3    H2 4441   2.043   0.100   3.881 -0.4147  0.1947  1.2264
 1493TIP3   OH2 4442   5.545   3.838   0.783 -0.5871 -0.4728 -0.0264
 1493TIP3    H1 4443   5.555   3.784   0.862 -1.3763  1.6654  1.6370
 1493TIP3    H2 4444   5.451   3.854   0.776 -0.3000  1.7268  0.3491
 1494TIP3   OH2 4445   2.119   6.177   1.694 -0.5158 -0.0624  0.1863
 1494TIP3    H1 4446   2.167   6.143   1.769 -0.7213 -0.3564  0.1839
 1494TIP3    H2 4447   2.028   6.155   1.711 -0.7694  1.2294  0.5920
 1495TIP3   OH2 4448   0.976   4.386   0.163  0.0383  0.0914  0.1428
 1495TIP3    H1 4449   0.956   4.480   0.157 -1.5083 -0.2698 -0.9925
 1495TIP3    H2 4450   0.979   4.357   0.072  1.2251 -0.8528  0.4572
 1496TIP3   OH2 4451   6.695   2.961   0.277 -0.7165 -0.5392  0.0407
 1496TIP3    H1 4452   6.779   2.915   0.284 -0.5755 -0.4054 -0.6786
 1496TIP3    H2 4453   6.720   3.052   0.257 -1.0382 -0.6828 -1.0938
 1497TIP3   OH2 4454   5.995   6.092   2.982 -0.0124 -0.4669  0.2826
 1497TIP3    H1 4455   5.900   6.082   2.980 -0.0060 -0.4954 -0.7539
 1497TIP3    H2 4456   6.010   6.173   3.030 -0.6898  0.5943 -1.1968
 1498TIP3   OH2 4457   1.648   4.837   0.432  0.4773  0.2914  0.3107
 1498TIP3    H1 4458   1.647   4.919   0.480 -0.5285  1.2295 -1.2106
 1498TIP3    H2 4459   1.590   4.852   0.358  0.6911 -1.6241 -0.3056
 1499TIP3   OH2 4460   1.050   1.680   0.843 -0.3412 -0.1990 -0.0538
 1499TIP3    H1 4461   1.124   1.623   0.861 -0.2882  0.2022  1.1123
 1499TIP3    H2 4462   1.019   1.708   0.929 -0.9582  0.7729 -0.5605
 1500TIP3   OH2 4463   5.234   0.380   2.948  0.0440 -0.0803  0.3694
 1500TIP3    H1 4464   5.247   0.297   2.901 -0.7072 -1.5342  2.5641
 1500TIP3    H2 4465   5.143   0.376   2.977 -0.1145  1.7177  0.2258
 1501TIP3   OH2 4466   5.261   4.472   3.673 -0.2574 -0.4832 -0.7521
 1501TIP3    H1 4467   5.329   4.458   3.740 -0.0549 -1.1948 -1.0881
 1501TIP3    H2 4468   5.241   4.565   3.678  2.2118  0.2302 -1.9977
 1502TIP3   OH2 4469   0.339   1.074   2.648 -0.8488  0.7046 -0.3534
 1502TIP3    H1 4470   0.327   1.041   2.737  1.4421  0.1552 -0.2022
 1502TIP3    H2 4471   0.329   1.169   2.657  1.2931  0.8692  0.9009
 1503TIP3   OH2 4472   5.270   6.633   4.998 -0.0053 -0.6869 -0.5808
 1503TIP3    H1 4473   5.283   6.692   5.072 -1.8842 -1.9190  0.8061
 1503TIP3    H2 4474   5.313   6.551   5.024 -0.3852 -1.0267 -1.0019
 1504TIP3   OH2 4475   5.897   4.035   1.287  0.0558 -0.5175  0.1941
 1504TIP3    H1 4476   5.877   4.122   1.254  1.0491 -0.8279 -1.3303
 1504TIP3    H2 4477   5.841   3.976   1.236  0.6009 -0.9045  0.0372
 1505TIP3   OH2 4478   0.053   2.365   4.956  0.0170  0.0126 -0.3403
 1505TIP3    H1 4479   0.005   2.316   4.889 -1.3346  0.7086  0.0879
 1505TIP3    H2 4480   0.104   2.429   4.906 -0.5828  0.1815 -0.7540
 1506TIP3   OH2 4481   1.462   6.028   0.908 -0.0549 -0.0374 -0.6727
 1506TIP3    H1 4482   1.490   6.111   0.948 -0.6981  0.6864 -1.6609
 1506TIP3    H2 4483   1.474   5.963   0.977  3.1596  0.3373 -0.7219
 1507TIP3   OH2 4484   3.437   3.682   4.582  0.2425  0.1107  0.4347
 1507TIP3    H1 4485   3.467   3.748   4.520 -1.6008 -1.1219 -1.9597
 1507TIP3    H2 4486   3.398   3.614   4.527 -1.5885 -1.0505  2.9691
 1508TIP3   OH2 4487   5.519   5.060   1.849 -0.0874  0.1835 -0.2617
 1508TIP3    H1 4488   5.449   5.068   1.785  0.7071  0.5380 -1.1145
 1508TIP3    H2 4489   5.594   5.102   1.808  0.8060 -0.7318  0.3718
 1509TIP3   OH2 4490   5.836   6.294   3.285  0.2302  0.0667 -0.1043
 1509TIP3    H1 4491   5.823   6.283   3.191  2.8567 -0.4715 -0.4929
 1509TIP3    H2 4492   5.841   6.388   3.297 -1.5514  0.2095 -0.2243
 1510TIP3   OH2 4493   6.465   0.334   4.419 -0.9241 -0.2852 -0.1007
 1510TIP3    H1 4494   6.530   0.382   4.366 -1.1779  1.2438  0.9138
 1510TIP3    H2 4495   6.383   0.381   4.404 -1.2835 -0.6791  0.5903
 1511TIP3   OH2 4496   1.161   3.847   1.092 -0.0258  0.5563  0.0719
 1511TIP3    H1 4497   1.124   3.788   1.158 -0.9652  1.3124  0.2487
 1511TIP3    H2 4498   1.114   3.930   1.105  0.1404  0.8720 -1.2010
 1512TIP3   OH2 4499   5.537   4.250   1.925  0.3979 -0.4186  0.4951
 1512TIP3    H1 4500   5.617   4.213   1.963  0.2309 -1.5673 -0.2019
 1512TIP3    H2 4501   5.478   4.175   1.917  0.1088 -0.0545 -1.1478
 1513TIP3   OH2 4502   4.017   3.569   2.581 -0.1761  0.1166  0.0073
 1513TIP3    H1 4503   4.093   3.597   2.632  0.3441 -0.0849 -0.6391
 1513TIP3    H2 4504   3.971   3.650   2.561  0.6521  0.4004 -0.8122
 1514TIP3   OH2 4505   1.057   5.236   5.561  0.2526 -0.0626 -0.3449
 1514TIP3    H1 4506   0.974   5.207   5.597 -0.9818 -1.7677 -4.0647
 1514TIP3    H2 4507   1.116   5.161   5.573  0.7141  0.4314  0.5813
 1515TIP3   OH2 4508   4.138   3.829   0.819  0.5750 -0.1871 -0.2776
 1515TIP3    H1 4509   4.196   3.865   0.886  1.0254  2.4995 -1.9499
 1515TIP3    H2 4510   4.055   3.876   0.831  0.8822  0.8675 -1.9559
 1516TIP3   OH2 4511   0.467   6.649   0.377 -0.7045  0.1387  0.3865
 1516TIP3    H1 4512   0.485   6.578   0.315  1.2940  0.5413  0.4319
 1516TIP3    H2 4513   0.401   6.702   0.333 -0.7445 -0.6533 -0.5502
 1517TIP3   OH2 4514   0.492   6.335   2.121  0.1959 -0.3535 -0.2202
 1517TIP3    H1 4515   0.459   6.413   2.165  0.9903 -1.7083  3.0794
 1517TIP3    H2 4516   0.587   6.341   2.130  0.2502 -1.9955  0.8108
 1518TIP3   OH2 4517   4.743   0.525   3.218 -0.4359  0.2249 -0.4997
 1518TIP3    H1 4518   4.731   0.432   3.198  1.1059 -0.3524  0.9928
 1518TIP3    H2 4519   4.744   0.568   3.132 -2.5052 -0.9099 -1.1610
 1519TIP3   OH2 4520   7.000   4.566   3.940  0.8060  0.5101 -0.3951
 1519TIP3    H1 4521   6.967   4.574   4.029 -0.0632  0.9177 -0.7406
 1519TIP3    H2 4522   6.948   4.629   3.889  1.0859  0.0795 -1.2382
 1520TIP3   OH2 4523   6.204   4.201   2.013  0.1924  0.1904 -0.1626
 1520TIP3    H1 4524   6.276   4.236   2.065  0.9930 -0.3093 -0.9097
 1520TIP3    H2 4525   6.173   4.125   2.061  1.7400 -1.0084 -0.9932
 1521TIP3   OH2 4526   2.305   1.305   5.672  0.5471  0.5089  0.4002
 1521TIP3    H1 4527   2.368   1.235   5.687 -0.0697 -0.5966 -1.6638
 1521TIP3    H2 4528   2.356   1.376   5.634  0.6617 -0.2601 -0.9639
 1522TIP3   OH2 4529   0.373   6.029   4.697  0.1450  0.0303  0.1518
 1522TIP3    H1 4530   0.418   5.965   4.752  0.1566 -0.8640 -0.8590
 1522TIP3    H2 4531   0.438   6.098   4.682 -0.1542  0.7852  1.9880
 1523TIP3   OH2 4532   4.603   6.568   0.773  0.7494 -0.8672  0.5468
 1523TIP3    H1 4533   4.604   6.643   0.713  1.2671 -2.2148 -1.2185
 1523TIP3    H2 4534   4.514   6.532   0.765 -0.1719  0.6120  2.8969
 1524TIP3   OH2 4535   5.819   5.077   1.115  0.6360  0.0262 -0.0086
 1524TIP3    H1 4536   5.876   5.139   1.069  0.2134 -1.3473 -2.4983
 1524TIP3    H2 4537   5.782   5.129   1.187  3.5030  1.4904  0.5701
 1525TIP3   OH2 4538   1.960   5.264   3.652  0.7088 -0.0488  0.5998
 1525TIP3    H1 4539   1.995   5.252   3.564 -0.7606 -0.4652  0.0448
 1525TIP3    H2 4540   1.869   5.292   3.638 -0.1340 -1.9196  1.9568
 1526TIP3   OH2 4541   3.356   5.669   4.884  0.6158 -0.3506  0.3005
 1526TIP3    H1 4542   3.279   5.711   4.846  0.2143 -0.1614  1.2875
 1526TIP3    H2 4543   3.346   5.576   4.864  0.2537 -0.2942  0.2241
 1527TIP3   OH2 4544   1.259   6.182   1.944 -0.4089  0.3383  0.4849
 1527TIP3    H1 4545   1.246   6.091   1.919  0.0549  0.0844  1.1303
 1527TIP3    H2 4546   1.228   6.233   1.869  2.8738 -0.3953 -1.5858
 1528TIP3   OH2 4547   3.869   1.021   4.615 -0.2489 -0.0152 -0.1902
 1528TIP3    H1 4548   3.877   1.043   4.708 -1.0561 -0.1912 -0.0678
 1528TIP3    H2 4549   3.910   0.935   4.608 -0.7524 -0.2929  0.1411
 1529TIP3   OH2 4550   6.301   1.054   4.235  0.4189 -0.3183 -0.5093
 1529TIP3    H1 4551   6.361   1.003   4.290  1.2855  0.6377 -0.5462
 1529TIP3    H2 4552   6.216   1.013   4.250  0.7975 -0.7120  0.7717
 1530TIP3   OH2 4553   6.766   4.884   2.961 -0.3972  0.0140 -0.0779
 1530TIP3    H1 4554   6.745   4.961   2.909 -0.7130 -1.2490 -1.8995
 1530TIP3    H2 4555   6.690   4.873   3.019 -1.8261 -0.6716 -1.9759
 1531TIP3   OH2 4556   1.718   4.142   4.274  0.3959 -0.2167  0.0410
 1531TIP3    H1 4557   1.710   4.211   4.208 -0.9944 -1.2224 -0.9060
 1531TIP3    H2 4558   1.801   4.160   4.318  1.9927 -0.1696 -2.7670
 1532TIP3   OH2 4559   3.463   5.927   5.008 -0.0969 -0.3529 -0.2364
 1532TIP3    H1 4560   3.436   5.836   5.001  0.4485 -0.5537  0.1373
 1532TIP3    H2 4561   3.523   5.941   4.935 -0.8790 -0.0279 -0.8240
 1533TIP3   OH2 4562   1.004   3.375   4.195 -0.5065 -0.0473  0.0948
 1533TIP3    H1 4563   0.924   3.358   4.245  0.1650  0.8972  1.5709
 1533TIP3    H2 4564   1.025   3.291   4.154 -0.8514 -0.9982  1.7798
 1534TIP3   OH2 4565   1.476   0.153   3.538  0.1628  0.1687  0.7766
 1534TIP3    H1 4566   1.490   0.161   3.444  1.7350  0.9073  1.0467
 1534TIP3    H2 4567   1.498   0.062   3.558  1.6650  0.4831  0.6856
 1535TIP3   OH2 4568   2.167   2.068   3.345  0.1348 -0.5147  0.1737
 1535TIP3    H1 4569   2.229   2.001   3.375  0.7988 -0.4052 -0.8882
 1535TIP3    H2 4570   2.105   2.019   3.290 -0.1728 -0.4761  0.4895
 1536TIP3   OH2 4571   3.581   0.192   0.781 -0.2683 -0.1417  0.7888
 1536TIP3    H1 4572   3.496   0.196   0.826 -0.7081  0.7412 -0.1016
 1536TIP3    H2 4573   3.596   0.281   0.749  1.0268 -0.2761  0.9745
 1537TIP3   OH2 4574   7.082   4.567   5.836  0.0095 -0.5291 -0.5797
 1537TIP3    H1 4575   7.052   4.534   5.751  2.1077  0.3789 -1.7524
 1537TIP3    H2 4576   7.066   4.495   5.896 -2.3471 -0.8789 -1.5266
 1538TIP3   OH2 4577   4.951   1.626   2.721 -0.3593  0.6763  0.0305
 1538TIP3    H1 4578   4.908   1.703   2.759  2.0569  2.0536  0.1648
 1538TIP3    H2 4579   4.974   1.654   2.632  0.4461  0.0507  0.0382
 1539TIP3   OH2 4580   5.182   2.207   2.155 -0.3991  0.4516 -0.2860
 1539TIP3    H1 4581   5.111   2.175   2.210 -1.2382 -0.0515 -1.6176
 1539TIP3    H2 4582   5.225   2.274   2.208 -2.0468  0.9846  0.4310
 1540TIP3   OH2 4583   4.350   3.928   5.661  0.1680 -0.5049 -0.1657
 1540TIP3    H1 4584   4.284   3.910   5.594 -0.8457 -0.7900  0.8798
 1540TIP3    H2 4585   4.300   3.964   5.735  1.4879  1.7517 -0.2750
 1541TIP3   OH2 4586   1.926   4.952   1.355 -0.4151  0.0789  1.1600
 1541TIP3    H1 4587   2.001   5.006   1.381 -0.3502 -0.6724  2.6815
 1541TIP3    H2 4588   1.930   4.876   1.413 -0.7935 -1.3371 -0.5798
 1542TIP3   OH2 4589   4.755   4.350   4.785  0.6503  0.0761 -0.4188
 1542TIP3    H1 4590   4.674   4.323   4.742  1.2261 -0.9747 -0.8925
 1542TIP3    H2 4591   4.821   4.289   4.752  1.7098  1.1266 -0.3090
 1543TIP3   OH2 4592   5.730   6.593   5.030 -0.1613 -0.5928 -0.4709
 1543TIP3    H1 4593   5.653   6.628   4.986 -0.0991  0.4419  0.1957
 1543TIP3    H2 4594   5.796   6.662   5.020 -0.3792  0.0340  1.8760
 1544TIP3   OH2 4595   3.943   2.582   0.336  0.7932 -0.8858 -0.2614
 1544TIP3    H1 4596   3.971   2.674   0.341 -0.6310 -0.4512  0.0329
 1544TIP3    H2 4597   3.972   2.544   0.419 -2.3235  0.4193  1.5978
 1545TIP3   OH2 4598   0.316   1.570   0.034 -0.1492  0.4169 -0.0455
 1545TIP3    H1 4599   0.252   1.631  -0.003 -0.9262  0.0858  0.7298
 1545TIP3    H2 4600   0.305   1.490  -0.018 -0.4025  0.3432  0.1213
 1546TIP3   OH2 4601   5.709   3.842   3.393 -0.2832 -0.6041 -0.5921
 1546TIP3    H1 4602   5.757   3.860   3.312  2.0312 -4.5268 -0.3418
 1546TIP3    H2 4603   5.720   3.921   3.445  2.5136  0.1845 -2.1802
 1547TIP3   OH2 4604   4.695   2.215   4.739 -0.3403  0.6522 -0.2740
 1547TIP3    H1 4605   4.644   2.277   4.790 -1.0201 -0.2168  0.1267
 1547TIP3    H2 4606   4.635   2.186   4.670 -0.3826 -0.3070  0.1480
 1548TIP3   OH2 4607   2.156   2.028   0.710  0.1893 -0.3010 -0.0938
 1548TIP3    H1 4608   2.164   1.946   0.759  4.1625  0.9409  1.8095
 1548TIP3    H2 4609   2.190   2.007   0.623  2.9172 -0.4808  0.8985
 1549TIP3   OH2 4610   2.294   5.132   4.686  0.3035  0.0101  0.4804
 1549TIP3    H1 4611   2.337   5.082   4.616  0.5488 -1.9599  1.9457
 1549TIP3    H2 4612   2.345   5.113   4.765 -0.3536  1.6364  1.3468
 1550TIP3   OH2 4613   1.402   2.373   5.779  0.4933 -0.6195 -0.1954
 1550TIP3    H1 4614   1.398   2.425   5.859  0.4814 -2.3246  0.9629
 1550TIP3    H2 4615   1.492   2.383   5.748  0.4161  0.2818 -0.1520
 1551TIP3   OH2 4616   2.292   5.504   1.151  0.7324 -0.3814  0.0370
 1551TIP3    H1 4617   2.235   5.427   1.157  0.1507  0.0599  0.2614
 1551TIP3    H2 4618   2.309   5.528   1.242 -0.1680  0.5363 -0.0243
 1552TIP3   OH2 4619   4.390   2.672   3.062  0.4117  0.6457  0.1569
 1552TIP3    H1 4620   4.421   2.704   2.978 -2.7899  2.3145 -0.5872
 1552TIP3    H2 4621   4.320   2.611   3.040  1.1439 -0.8105  1.6584
 1553TIP3   OH2 4622   6.277   6.021   1.695 -0.3126 -0.2912 -0.3135
 1553TIP3    H1 4623   6.215   5.994   1.762  0.3308  1.7913  1.2316
 1553TIP3    H2 4624   6.236   6.096   1.652  0.3147 -0.0564 -0.5238
 1554TIP3   OH2 4625   5.943   4.509   2.998 -0.0233  0.0883  0.2984
 1554TIP3    H1 4626   5.853   4.490   3.026 -0.0467  0.4917  0.5002
 1554TIP3    H2 4627   5.981   4.559   3.070  0.4799 -0.3852  0.3691
 1555TIP3   OH2 4628   6.301   4.365   0.476  0.0046  0.5039 -0.3177
 1555TIP3    H1 4629   6.221   4.351   0.527 -0.4030 -0.5585 -1.2130
 1555TIP3    H2 4630   6.358   4.292   0.501 -0.1650  0.0228 -1.3078
 1556TIP3   OH2 4631   5.263   2.229   2.610  0.1898 -0.1474  0.1857
 1556TIP3    H1 4632   5.260   2.253   2.517  2.3082 -0.7618 -0.0993
 1556TIP3    H2 4633   5.245   2.310   2.657 -1.5679  0.0388 -0.7336
 1557TIP3   OH2 4634   4.115   1.371   5.512  0.0325  0.5190  0.1837
 1557TIP3    H1 4635   4.151   1.330   5.591 -0.9615 -1.8499 -0.5040
 1557TIP3    H2 4636   4.179   1.351   5.444  0.1395  1.2310  0.0673
 1558TIP3   OH2 4637   0.849   3.305   3.777  0.4102 -0.0877  0.5279
 1558TIP3    H1 4638   0.942   3.313   3.756  0.0959  1.3559 -0.4892
 1558TIP3    H2 4639   0.805   3.363   3.714 -1.1719 -0.6951  1.0262
 1559TIP3   OH2 4640   2.436   2.476   5.655  0.4426 -0.1405 -0.0537
 1559TIP3    H1 4641   2.443   2.454   5.748 -0.8305 -1.1335 -0.1603
 1559TIP3    H2 4642   2.451   2.394   5.609  0.9074  0.3084 -0.7260
 1560TIP3   OH2 4643   7.179   3.473   5.532  0.4473  0.3601 -0.4442
 1560TIP3    H1 4644   7.110   3.538   5.548  0.4964  0.2904  0.0698
 1560TIP3    H2 4645   7.261   3.522   5.544  0.4867  0.3144 -0.5269
 1561TIP3   OH2 4646   1.477   5.244   2.471 -0.0883 -0.3396 -0.5436
 1561TIP3    H1 4647   1.403   5.185   2.458  0.0601 -0.3816 -1.2388
 1561TIP3    H2 4648   1.437   5.330   2.482 -0.2878 -0.5144  0.1094
 1562TIP3   OH2 4649   6.101   1.535   5.502 -0.1150  0.3023  0.2473
 1562TIP3    H1 4650   6.048   1.608   5.468  1.9601  0.8653 -2.0741
 1562TIP3    H2 4651   6.136   1.567   5.585  1.4244  2.3740 -1.1162
 1563TIP3   OH2 4652   4.246   2.264   2.117  0.1479  0.1567  0.1619
 1563TIP3    H1 4653   4.209   2.186   2.158  0.4031  0.3890  0.8618
 1563TIP3    H2 4654   4.170   2.317   2.093 -0.0149  0.9198  2.1620
 1564TIP3   OH2 4655   1.861   6.466   4.751 -0.3333  0.1329 -0.0994
 1564TIP3    H1 4656   1.945   6.506   4.775  1.3414 -2.6519 -0.8847
 1564TIP3    H2 4657   1.830   6.425   4.831 -2.4063  3.2764  0.8933
 1565TIP3   OH2 4658   3.179   1.294   3.057  0.2435 -0.0978 -0.4692
 1565TIP3    H1 4659   3.140   1.348   3.125  0.0173  1.4995 -1.8037
 1565TIP3    H2 4660   3.199   1.211   3.100 -1.6583  0.1716  1.0358
 1566TIP3   OH2 4661   6.430   5.103   2.583  0.5724  0.0960  0.2319
 1566TIP3    H1 4662   6.399   5.135   2.667 -1.3607  0.8119 -0.7014
 1566TIP3    H2 4663   6.388   5.018   2.572 -0.4114  0.6683 -0.6421
 1567TIP3   OH2 4664   3.513   4.555   3.557  0.1806  0.1244  0.0231
 1567TIP3    H1 4665   3.586   4.552   3.496 -0.5529  0.9086 -0.9279
 1567TIP3    H2 4666   3.436   4.534   3.504 -0.1441 -2.4386  1.3341
 1568TIP3   OH2 4667   6.542   5.563   2.886  0.2142 -0.0853  0.2513
 1568TIP3    H1 4668   6.539   5.650   2.927  0.0642 -0.3577  0.8274
 1568TIP3    H2 4669   6.483   5.509   2.940 -0.1299 -0.4049 -0.4331
 1569TIP3   OH2 4670   6.221   3.309   2.183 -0.3377 -0.5174 -0.0640
 1569TIP3    H1 4671   6.313   3.329   2.194 -0.4929  2.4556 -2.5835
 1569TIP3    H2 4672   6.199   3.251   2.256  3.2756 -0.6982  1.0550
 1570TIP3   OH2 4673   6.053   5.211   0.333  0.0885  0.2442  0.5388
 1570TIP3    H1 4674   6.144   5.184   0.344 -0.1585 -1.3218 -0.7548
 1570TIP3    H2 4675   6.057   5.299   0.297  1.1118  0.0008  0.0343
 1571TIP3   OH2 4676   6.921   4.816   2.457 -0.5522 -0.2471 -0.3313
 1571TIP3    H1 4677   7.004   4.771   2.439 -0.8087 -0.9197  0.1164
 1571TIP3    H2 4678   6.919   4.827   2.552  0.1430  2.0052 -0.5378
 1572TIP3   OH2 4679   0.983   2.433   2.200 -0.1658 -0.3873  0.0854
 1572TIP3    H1 4680   0.898   2.413   2.160 -0.0915 -1.6592  0.4931
 1572TIP3    H2 4681   1.046   2.424   2.129 -0.1212 -1.8926  0.2721
 1573TIP3   OH2 4682   2.431   3.981   1.126  0.6804 -0.2759 -0.1619
 1573TIP3    H1 4683   2.454   4.002   1.035  1.7918  0.6029  0.3001
 1573TIP3    H2 4684   2.358   3.920   1.118 -0.2410  0.9385 -1.6289
 1574TIP3   OH2 4685   1.913   2.387   0.463 -0.2657 -0.1238  0.1090
 1574TIP3    H1 4686   1.921   2.296   0.492  1.8971 -0.5311 -1.5135
 1574TIP3    H2 4687   1.871   2.431   0.536  2.7971 -1.5134  2.9855
 1575TIP3   OH2 4688   0.334   3.517   5.389  0.2064  0.1949 -0.0769
 1575TIP3    H1 4689   0.289   3.437   5.417 -0.5600  0.3863 -0.7200
 1575TIP3    H2 4690   0.289   3.586   5.438  0.1913  0.3281 -0.2791
 1576TIP3   OH2 4691   5.713   4.746   2.891  0.9429  0.0332  0.0432
 1576TIP3    H1 4692   5.674   4.722   2.807  3.7926 -0.3357 -1.2665
 1576TIP3    H2 4693   5.691   4.673   2.949 -0.2541 -0.1639 -0.6218
 1577TIP3   OH2 4694   6.870   3.971   4.186 -0.1738 -0.0167  0.1012
 1577TIP3    H1 4695   6.796   3.985   4.127 -0.0649 -0.1407 -0.0688
 1577TIP3    H2 4696   6.928   4.046   4.171 -1.6756  1.7649  2.4698
 1578TIP3   OH2 4697   4.616   5.816   0.950 -0.3638  0.1619 -0.1566
 1578TIP3    H1 4698   4.626   5.723   0.932  2.3592  0.8282 -2.9622
 1578TIP3    H2 4699   4.676   5.832   1.023 -0.4207 -0.1542 -0.0366
 1579TIP3   OH2 4700   2.257   3.650   5.379 -0.4398  0.1308  0.5610
 1579TIP3    H1 4701   2.232   3.557   5.382  1.6901 -0.7869 -3.1552
 1579TIP3    H2 4702   2.343   3.653   5.421  0.8118 -0.2880 -1.7944
 1580TIP3   OH2 4703   1.863   3.849   2.677 -0.4880 -0.0434 -0.0632
 1580TIP3    H1 4704   1.772   3.833   2.702  0.2001 -1.5870  1.6387
 1580TIP3    H2 4705   1.861   3.853   2.581 -2.1571 -1.4386 -0.1309
 1581TIP3   OH2 4706   0.259   0.721   3.335  0.0668  0.6597 -0.3835
 1581TIP3    H1 4707   0.326   0.727   3.268  1.3436 -1.0650  0.6761
 1581TIP3    H2 4708   0.197   0.656   3.302  0.1178  0.6048 -0.3709
 1582TIP3   OH2 4709   4.526   2.313   3.184 -0.0220 -0.0093 -0.2537
 1582TIP3    H1 4710   4.518   2.257   3.261  0.1063 -1.6237 -1.3708
 1582TIP3    H2 4711   4.460   2.381   3.197 -1.8676 -1.7732  0.0312
 1583TIP3   OH2 4712   2.445   1.188   5.338 -0.6807  0.0881  0.0228
 1583TIP3    H1 4713   2.466   1.269   5.384 -0.7460  0.5061 -0.6658
 1583TIP3    H2 4714   2.354   1.201   5.308  0.0472  0.7585 -2.0969
 1584TIP3   OH2 4715   4.291   4.561   2.209 -0.1043 -0.6317  0.1861
 1584TIP3    H1 4716   4.319   4.641   2.165 -3.7309  0.5996 -0.2934
 1584TIP3    H2 4717   4.346   4.554   2.286  1.8606  0.9962 -0.9748
 1585TIP3   OH2 4718   0.152   6.566   2.807  0.6005  0.2981  0.0529
 1585TIP3    H1 4719   0.132   6.514   2.729 -1.2167  1.0636 -0.0272
 1585TIP3    H2 4720   0.230   6.616   2.783 -0.5104  1.2981 -1.6972
 1586TIP3   OH2 4721   1.664   6.039   0.260  0.6783 -0.0711 -0.5682
 1586TIP3    H1 4722   1.637   5.951   0.232  0.9385 -0.0431 -0.9096
 1586TIP3    H2 4723   1.582   6.086   0.272  0.5045 -0.5910  0.3768
 1587TIP3   OH2 4724   1.689   3.049   1.960  0.4469 -0.3190 -0.1926
 1587TIP3    H1 4725   1.614   3.083   2.009  0.5756  0.5955 -0.6253
 1587TIP3    H2 4726   1.729   2.986   2.021 -2.1617 -2.9071 -0.8739
 1588TIP3   OH2 4727   6.383   3.083   3.961 -0.1549 -0.1072 -0.2684
 1588TIP3    H1 4728   6.423   3.016   4.017 -1.6173 -0.1869  0.7519
 1588TIP3    H2 4729   6.446   3.155   3.963  0.4057 -0.5899  0.4841
 1589TIP3   OH2 4730   3.779   4.140   4.923 -0.4772  0.5063  0.2932
 1589TIP3    H1 4731   3.735   4.101   4.998 -0.9991  0.6209  0.0502
 1589TIP3    H2 4732   3.740   4.096   4.847  2.6795 -2.4774  0.1239
 1590TIP3   OH2 4733   4.717   0.221   4.581  0.0787  0.2195  0.2899
 1590TIP3    H1 4734   4.683   0.302   4.618 -1.5348  0.2880 -1.2038
 1590TIP3    H2 4735   4.792   0.248   4.529  0.0391  0.6467  0.4507
 1591TIP3   OH2 4736   1.959   5.825   1.902 -0.7137 -0.3407  0.2936
 1591TIP3    H1 4737   1.964   5.898   1.964 -1.1347  0.9493 -1.1108
 1591TIP3    H2 4738   2.025   5.763   1.932  1.4566  1.7472  0.1257
 1592TIP3   OH2 4739   3.088   4.798   4.426  0.3699  0.2835 -0.0764
 1592TIP3    H1 4740   3.058   4.778   4.337  0.8285 -2.4117  0.3105
 1592TIP3    H2 4741   3.007   4.817   4.474 -0.2826 -1.7373 -0.2823
 1593TIP3   OH2 4742   6.475   5.114   5.545 -0.0373  0.6867  1.2455
 1593TIP3    H1 4743   6.520   5.118   5.629  3.3895 -0.1830 -0.3681
 1593TIP3    H2 4744   6.524   5.175   5.489 -1.2411  0.0869 -0.5254
 1594TIP3   OH2 4745   7.116   5.416   2.598 -0.7121  0.4592 -0.6796
 1594TIP3    H1 4746   7.099   5.322   2.605 -1.9101  0.3950 -3.4385
 1594TIP3    H2 4747   7.085   5.452   2.682 -0.3624 -1.5440  0.3658
 1595TIP3   OH2 4748   1.733   3.844   3.196  0.0584  0.0893  0.0248
 1595TIP3    H1 4749   1.777   3.921   3.233  1.2086 -0.2728 -0.5449
 1595TIP3    H2 4750   1.774   3.832   3.111  1.7860 -2.6732  1.1049
 1596TIP3   OH2 4751   5.023   6.101   5.491 -0.5202 -0.0238 -0.2772
 1596TIP3    H1 4752   5.109   6.061   5.487 -0.4001  0.0755  0.8570
 1596TIP3    H2 4753   4.977   6.053   5.560 -1.8401 -0.9215 -1.7306
 1597TIP3   OH2 4754   5.071   1.242   2.476 -0.0205  0.4169 -0.3399
 1597TIP3    H1 4755   5.142   1.273   2.419  0.6493 -1.4393 -0.5856
 1597TIP3    H2 4756   5.109   1.242   2.564  0.1003  0.0183 -0.3875
 1598TIP3   OH2 4757   2.939   1.483   5.387  0.1047  0.0513  1.0290
 1598TIP3    H1 4758   2.858   1.432   5.390 -0.2925  0.6411  0.5540
 1598TIP3    H2 4759   3.007   1.421   5.411 -0.3105 -0.8268  0.0154
 1599TIP3   OH2 4760   6.311   3.402   1.008 -0.8901  0.1210 -0.1605
 1599TIP3    H1 4761   6.228   3.408   1.056  0.3380 -0.9464  2.2685
 1599TIP3    H2 4762   6.298   3.329   0.947 -2.0041  0.5652 -0.4971
 1600TIP3   OH2 4763   1.639   0.952   3.488  0.2419 -0.4077 -0.0264
 1600TIP3    H1 4764   1.638   0.905   3.571  0.3148 -2.1004 -0.9466
 1600TIP3    H2 4765   1.597   0.893   3.426  0.8060  0.5237 -1.3445
 1601TIP3   OH2 4766   1.129   6.108   4.974  0.3266  0.6556  0.0618
 1601TIP3    H1 4767   1.062   6.159   5.021 -1.9267 -3.2924  1.6387
 1601TIP3    H2 4768   1.093   6.097   4.886 -0.6613 -0.5216  0.5804
 1602TIP3   OH2 4769   1.158   4.879   0.369  0.1422 -0.1274 -0.4734
 1602TIP3    H1 4770   1.218   4.941   0.411  1.7839 -1.3090 -0.9595
 1602TIP3    H2 4771   1.157   4.905   0.277  0.6061 -0.6329 -0.6253
 1603TIP3   OH2 4772   3.382   3.241   5.486 -0.0317  0.1425 -0.9408
 1603TIP3    H1 4773   3.462   3.214   5.532 -1.4205 -0.4675  1.2300
 1603TIP3    H2 4774   3.369   3.332   5.513 -0.2796  0.1208 -0.9939
 1604TIP3   OH2 4775   2.797   0.997   2.585  0.1883 -0.2676 -0.3763
 1604TIP3    H1 4776   2.833   0.999   2.674 -0.8350 -0.0595  0.0451
 1604TIP3    H2 4777   2.711   0.957   2.596 -0.7445  1.5025 -0.9752
 1605TIP3   OH2 4778   4.385   1.692   3.725  0.5044 -0.0859  0.3018
 1605TIP3    H1 4779   4.444   1.623   3.696  0.5758  0.2920 -0.4789
 1605TIP3    H2 4780   4.440   1.770   3.729  0.0814  0.2526 -0.3620
 1606TIP3   OH2 4781   1.370   5.947   5.292  0.0615 -0.5515 -0.3655
 1606TIP3    H1 4782   1.374   5.967   5.199 -1.5756  1.9116 -0.0091
 1606TIP3    H2 4783   1.277   5.931   5.309  0.2167 -0.1202  0.9808
 1607TIP3   OH2 4784   3.354   3.106   5.234 -0.1360 -0.3597 -0.1780
 1607TIP3    H1 4785   3.431   3.101   5.178 -1.1440 -3.7828 -1.5162
 1607TIP3    H2 4786   3.385   3.147   5.315  3.0176 -1.3780 -0.7594
 1608TIP3   OH2 4787   7.035   1.356   1.720 -0.1219  0.0595 -0.2892
 1608TIP3    H1 4788   7.075   1.283   1.768 -0.4520  0.1015  0.0563
 1608TIP3    H2 4789   6.941   1.344   1.733 -0.1922  0.3627 -0.5044
 1609TIP3   OH2 4790   2.229   6.392   4.910 -0.4288 -0.4213  0.5525
 1609TIP3    H1 4791   2.215   6.421   5.000 -0.2018  0.9193  0.1779
 1609TIP3    H2 4792   2.187   6.459   4.856  1.5122  0.1259 -0.3973
 1610TIP3   OH2 4793   1.321   4.624   2.171  0.8674 -0.3920  0.1522
 1610TIP3    H1 4794   1.226   4.625   2.158  0.7603  1.2760  0.7923
 1610TIP3    H2 4795   1.342   4.533   2.189 -0.8242 -0.5799  1.3667
 1611TIP3   OH2 4796   3.879   3.824   2.562 -0.3299  0.0062 -0.0075
 1611TIP3    H1 4797   3.784   3.817   2.547 -0.3429 -0.4286  0.2529
 1611TIP3    H2 4798   3.888   3.899   2.621 -0.6219 -0.6755  0.9233
 1612TIP3   OH2 4799   5.319   6.578   0.694  0.5921  0.1470 -0.3384
 1612TIP3    H1 4800   5.293   6.488   0.715 -1.9273  1.1233  1.2033
 1612TIP3    H2 4801   5.353   6.613   0.776 -1.5228  1.5247  0.0186
 1613TIP3   OH2 4802   1.814   3.327   4.044  0.1411 -0.5446  0.2687
 1613TIP3    H1 4803   1.872   3.290   4.110 -0.2707 -1.5094  0.1020
 1613TIP3    H2 4804   1.834   3.421   4.045  1.1665 -0.7532  0.7286
 1614TIP3   OH2 4805   0.358   5.491   5.565 -0.1516  0.0619 -0.4402
 1614TIP3    H1 4806   0.378   5.410   5.612  0.2770  1.3954  1.8400
 1614TIP3    H2 4807   0.264   5.503   5.574 -0.2750 -0.3450 -1.1082
 1615TIP3   OH2 4808   1.108   2.102   4.187 -0.0097 -0.4795  0.3117
 1615TIP3    H1 4809   1.062   2.097   4.103  0.7043 -1.6773 -0.0286
 1615TIP3    H2 4810   1.200   2.095   4.164  0.4263  2.0582  0.9697
 1616TIP3   OH2 4811   3.018   2.998   5.726 -0.0468  0.4502 -0.0680
 1616TIP3    H1 4812   2.981   3.073   5.679  0.4432  1.6976  1.4584
 1616TIP3    H2 4813   2.983   2.921   5.680 -1.7878  1.5945 -0.7550
 1617TIP3   OH2 4814   2.883   6.618   1.024  0.1935  0.3377  0.4278
 1617TIP3    H1 4815   2.942   6.693   1.027  0.3000  0.2219  1.8941
 1617TIP3    H2 4816   2.929   6.549   1.072 -0.4673 -0.2373  0.2539
 1618TIP3   OH2 4817   0.894   6.587   2.191  0.1617  0.4752  0.0989
 1618TIP3    H1 4818   0.975   6.636   2.177  0.0686  0.7523  0.4945
 1618TIP3    H2 4819   0.839   6.609   2.117  0.1418  0.9341  0.2477
 1619TIP3   OH2 4820   2.943   3.556   2.238 -0.2789 -0.4142 -0.5352
 1619TIP3    H1 4821   2.960   3.532   2.329 -0.6287  1.2844  0.0200
 1619TIP3    H2 4822   2.921   3.474   2.195 -2.4155 -0.9821  1.4540
 1620TIP3   OH2 4823   4.076   3.305   2.566 -0.5991 -0.0731  0.1901
 1620TIP3    H1 4824   4.025   3.383   2.587 -0.6807  0.1032 -0.6366
 1620TIP3    H2 4825   4.167   3.335   2.568 -0.7097  0.6786 -2.4964
 1621TIP3   OH2 4826   4.483   3.049   4.104 -0.2923 -0.2606  0.4867
 1621TIP3    H1 4827   4.521   2.977   4.155 -0.2171 -0.6745 -0.1396
 1621TIP3    H2 4828   4.557   3.106   4.084  0.3216 -1.7519 -1.8753
 1622TIP3   OH2 4829   6.719   4.935   5.197 -0.0608  0.1123  0.1857
 1622TIP3    H1 4830   6.701   4.850   5.156  0.3426 -0.2816  0.8086
 1622TIP3    H2 4831   6.811   4.952   5.176 -0.0431  0.2244  0.3541
 1623TIP3   OH2 4832   7.144   5.157   1.444 -1.1641  0.3132 -0.3186
 1623TIP3    H1 4833   7.099   5.241   1.442 -2.1550 -0.1870 -0.1521
 1623TIP3    H2 4834   7.093   5.104   1.506  0.0393 -0.0888  0.3650
 1624TIP3   OH2 4835   7.007   1.912   5.859  0.2160 -0.2084  0.2811
 1624TIP3    H1 4836   7.070   1.846   5.888  0.3263 -0.1125  0.2576
 1624TIP3    H2 4837   6.926   1.888   5.905  0.2805 -0.3037  0.3467
 1625TIP3   OH2 4838   3.754   3.955   1.723 -0.1858  0.4163 -0.7292
 1625TIP3    H1 4839   3.775   3.966   1.630  0.3184  2.7632 -0.4062
 1625TIP3    H2 4840   3.659   3.959   1.727 -0.1829  4.1942 -0.8860
 1626TIP3   OH2 4841   4.335   6.354   4.152  0.4283 -0.1382  0.0972
 1626TIP3    H1 4842   4.245   6.332   4.176  0.4866  0.8979  1.3356
 1626TIP3    H2 4843   4.326   6.407   4.073 -0.1695  1.1194  0.9808
 1627TIP3   OH2 4844   3.932   4.319   3.441  0.4079 -0.0091 -0.3110
 1627TIP3    H1 4845   3.949   4.354   3.529 -0.0541 -0.3310 -0.0853
 1627TIP3    H2 4846   3.846   4.277   3.449  0.3299  0.0260 -0.9383
 1628TIP3   OH2 4847   3.901   3.160   5.503 -0.9626  0.0103  0.0483
 1628TIP3    H1 4848   3.912   3.255   5.511 -3.0239  0.3736 -0.7798
 1628TIP3    H2 4849   3.990   3.125   5.507 -0.1420  1.9873  0.1848
 1629TIP3   OH2 4850   3.486   3.563   2.340  0.2633  0.1856 -0.3237
 1629TIP3    H1 4851   3.485   3.485   2.285  1.2933 -0.2863  0.2924
 1629TIP3    H2 4852   3.570   3.605   2.321  1.3092 -0.7523  1.8584
 1630TIP3   OH2 4853   4.231   3.173   0.415  0.2435 -0.4517  0.2238
 1630TIP3    H1 4854   4.196   3.261   0.402 -0.3692 -0.4962  1.4114
 1630TIP3    H2 4855   4.325   3.186   0.422  0.1873  0.0739  0.0988
 1631TIP3   OH2 4856   2.036   6.351   1.206  0.0305  0.2371  0.0783
 1631TIP3    H1 4857   2.111   6.394   1.164  0.1800  0.3558  0.4622
 1631TIP3    H2 4858   2.066   6.334   1.296 -0.3597  0.1695  0.1954
 1632TIP3   OH2 4859   3.216   1.359   1.784 -0.1221 -0.0339  0.4484
 1632TIP3    H1 4860   3.288   1.296   1.788 -2.3791 -2.8024  3.7658
 1632TIP3    H2 4861   3.139   1.306   1.766 -2.1134  1.7519  2.9489
 1633TIP3   OH2 4862   3.309   5.912   3.044  0.7738  0.1592  0.8419
 1633TIP3    H1 4863   3.342   5.953   3.124 -0.6370  1.1995  0.9223
 1633TIP3    H2 4864   3.229   5.868   3.071  1.6493 -1.7489  0.5097
 1634TIP3   OH2 4865   2.904   0.360   2.439  0.2336 -0.8877 -0.3770
 1634TIP3    H1 4866   2.835   0.361   2.505  0.0713  0.0219 -0.5406
 1634TIP3    H2 4867   2.983   0.385   2.487  0.3343 -1.3260 -0.3111
 1635TIP3   OH2 4868   1.122   3.417   4.862  0.2689 -0.2229  0.3820
 1635TIP3    H1 4869   1.088   3.483   4.802  1.6852 -0.3071 -0.5577
 1635TIP3    H2 4870   1.090   3.334   4.827  0.1266 -0.1847  0.4202
 1636TIP3   OH2 4871   4.210   5.329   4.528  0.3014  0.1445 -0.0553
 1636TIP3    H1 4872   4.300   5.361   4.531  0.0320  0.9864 -0.7241
 1636TIP3    H2 4873   4.198   5.284   4.612  1.2645  0.2228  0.1350
 1637TIP3   OH2 4874   3.885   5.016   2.609 -0.2500  0.4596 -0.1921
 1637TIP3    H1 4875   3.947   5.054   2.547 -0.3232 -0.0159 -0.5585
 1637TIP3    H2 4876   3.841   5.091   2.648  0.6960  0.8216  0.2228
 1638TIP3   OH2 4877   4.776   6.136   4.281  0.2727  0.1819 -0.4179
 1638TIP3    H1 4878   4.693   6.162   4.241  0.4745 -2.1995 -2.6741
 1638TIP3    H2 4879   4.819   6.082   4.215  1.9007 -1.8336  2.0572
 1639TIP3   OH2 4880   5.478   1.693   0.978 -0.1454  0.4779  0.4835
 1639TIP3    H1 4881   5.449   1.602   0.983 -2.6068  0.9624 -2.2315
 1639TIP3    H2 4882   5.566   1.688   0.941 -0.9230 -0.8182 -1.3502
 1640TIP3   OH2 4883   1.111   0.467   2.256  0.0410 -0.1718  1.0053
 1640TIP3    H1 4884   1.146   0.538   2.309  1.2584 -1.1091  1.5117
 1640TIP3    H2 4885   1.167   0.392   2.277 -1.6031 -1.4473  0.9824
 1641TIP3   OH2 4886   4.966   1.454   0.125  0.0698  0.4322 -0.1319
 1641TIP3    H1 4887   5.026   1.383   0.102 -0.1113  0.5248 -0.9044
 1641TIP3    H2 4888   4.986   1.523   0.063  1.2087  1.6273  1.4759
 1642TIP3   OH2 4889   4.952   1.377   0.387 -0.0378  0.1310  0.5329
 1642TIP3    H1 4890   5.038   1.337   0.395 -1.1563 -2.2531  1.7705
 1642TIP3    H2 4891   4.955   1.424   0.304  1.5687 -2.2116 -0.8410
 1643TIP3   OH2 4892   7.154   1.706   1.151  0.5414  0.0602  0.1177
 1643TIP3    H1 4893   7.150   1.650   1.229 -0.5267 -0.1150 -0.0459
 1643TIP3    H2 4894   7.242   1.742   1.152  0.3907  0.4643  1.7106
 1644TIP3   OH2 4895   6.185   6.200   3.152 -0.4833 -0.0470 -0.1439
 1644TIP3    H1 4896   6.187   6.179   3.246 -1.1817  1.0935  0.1467
 1644TIP3    H2 4897   6.273   6.179   3.121 -0.6039 -1.6185  0.4921
 1645TIP3   OH2 4898   3.845   2.015   0.201 -0.3993  0.0904  0.1296
 1645TIP3    H1 4899   3.770   2.013   0.143  1.5767 -1.6086 -2.6314
 1645TIP3    H2 4900   3.872   2.107   0.203 -1.2421  0.3670 -0.6244
 1646TIP3   OH2 4901   2.638   3.669   4.014  0.2066 -0.1649 -0.5553
 1646TIP3    H1 4902   2.615   3.579   4.036 -1.0493  0.6993  2.1366
 1646TIP3    H2 4903   2.558   3.705   3.975 -0.2151  0.4400  0.7897
 1647TIP3   OH2 4904   5.442   1.110   2.366 -0.0005  0.0366  0.0798
 1647TIP3    H1 4905   5.433   1.205   2.373 -2.8234 -0.1026 -0.3541
 1647TIP3    H2 4906   5.416   1.091   2.276  1.6509 -1.0998 -0.2008
 1648TIP3   OH2 4907   4.001   0.404   4.635 -0.5259 -0.8773 -0.2124
 1648TIP3    H1 4908   4.010   0.319   4.591 -0.7215 -0.1776 -1.6630
 1648TIP3    H2 4909   3.989   0.466   4.564  0.1639  0.4573  0.8031
 1649TIP3   OH2 4910   2.789   2.638   1.158  0.5562  0.0979  0.3251
 1649TIP3    H1 4911   2.773   2.725   1.195  1.2236  0.8920 -1.1293
 1649TIP3    H2 4912   2.709   2.589   1.174 -0.0458  1.1720  0.6859
 1650TIP3   OH2 4913   4.117   1.830   3.100  0.0990  0.4564 -0.8575
 1650TIP3    H1 4914   4.129   1.924   3.113  1.6044  0.2929 -0.9144
 1650TIP3    H2 4915   4.045   1.807   3.160  2.4659  0.9267  2.4474
 1651TIP3   OH2 4916   6.726   1.191   5.192 -0.1409 -0.1620 -0.5688
 1651TIP3    H1 4917   6.746   1.263   5.251  0.1931 -0.8558  0.1847
 1651TIP3    H2 4918   6.689   1.233   5.114 -2.2729  0.6928  0.8194
 1652TIP3   OH2 4919   3.886   6.153   2.549 -0.3160 -0.6875  0.4846
 1652TIP3    H1 4920   3.837   6.227   2.513 -0.2925 -0.8267  0.1679
 1652TIP3    H2 4921   3.976   6.167   2.522 -0.2872 -0.7628  0.5398
 1653TIP3   OH2 4922   2.639   1.798   5.448 -0.0358 -0.5668  0.0236
 1653TIP3    H1 4923   2.621   1.729   5.512  1.4008  0.4001  1.5654
 1653TIP3    H2 4924   2.568   1.861   5.460 -0.5325 -1.0636 -0.3214
 1654TIP3   OH2 4925   0.391   6.668   2.736 -0.4432  0.1287 -0.0725
 1654TIP3    H1 4926   0.430   6.740   2.686  0.9822  1.1823  2.3946
 1654TIP3    H2 4927   0.463   6.634   2.789 -1.5903 -1.7629  0.3547
 1655TIP3   OH2 4928   6.476   6.172   0.030 -0.4008  0.5162  0.5183
 1655TIP3    H1 4929   6.509   6.108   0.093 -1.2964  0.2481  0.7316
 1655TIP3    H2 4930   6.552   6.224   0.006 -0.2700  1.5269  2.8548
 1656TIP3   OH2 4931   5.664   6.331   2.063 -0.5790  0.3465 -0.3180
 1656TIP3    H1 4932   5.627   6.246   2.039 -0.5014  0.2555 -0.1109
 1656TIP3    H2 4933   5.627   6.391   1.999 -1.2660  0.2987  0.0279
 1657TIP3   OH2 4934   0.562   6.161   1.358  0.5880 -0.5680 -0.0465
 1657TIP3    H1 4935   0.588   6.143   1.268 -0.3280 -0.9309 -0.2495
 1657TIP3    H2 4936   0.469   6.138   1.361 -0.0226  1.6645  0.3547
 1658TIP3   OH2 4937   1.953   2.820   3.945 -0.6864 -0.6691  0.2779
 1658TIP3    H1 4938   1.909   2.751   3.996  0.0807 -0.0116  1.8997
 1658TIP3    H2 4939   2.039   2.827   3.985 -0.2590  0.2913 -0.7703
 1659TIP3   OH2 4940   6.633   1.614   4.952  0.4907 -0.1353  0.0910
 1659TIP3    H1 4941   6.555   1.561   4.936 -1.4079  2.0945  1.3961
 1659TIP3    H2 4942   6.706   1.557   4.925 -1.5518 -2.0217 -1.9527
 1660TIP3   OH2 4943   1.918   5.735   0.961  0.6559  0.2643  0.3203
 1660TIP3    H1 4944   1.874   5.651   0.979  1.1641  0.0160  0.4245
 1660TIP3    H2 4945   1.849   5.791   0.926  0.3261 -0.2226  0.1786
 1661TIP3   OH2 4946   0.161   1.867   3.721  0.1360  0.4138  0.6007
 1661TIP3    H1 4947   0.243   1.876   3.768  0.2656  0.6090  0.3394
 1661TIP3    H2 4948   0.094   1.897   3.783  0.4405  2.0441  0.1845
 1662TIP3   OH2 4949   0.938   4.535   4.689 -0.4237  0.1998 -0.2202
 1662TIP3    H1 4950   0.936   4.461   4.628 -1.0991  1.1654 -1.4087
 1662TIP3    H2 4951   0.954   4.495   4.775 -0.1752 -1.2579 -0.9210
 1663TIP3   OH2 4952   2.117   3.852   5.517 -0.1510 -0.0326  0.5019
 1663TIP3    H1 4953   2.117   3.927   5.458 -1.9081 -1.7526 -1.9031
 1663TIP3    H2 4954   2.161   3.783   5.468  0.0020 -1.0360  1.9860
 1664TIP3   OH2 4955   6.097   4.156   3.482  0.2775  0.4853  0.0420
 1664TIP3    H1 4956   6.158   4.171   3.409  5.2343 -0.0862  3.5473
 1664TIP3    H2 4957   6.056   4.241   3.496  0.4824  1.0390 -2.2693
 1665TIP3   OH2 4958   6.705   2.442   4.473 -0.3974 -0.5771  0.2139
 1665TIP3    H1 4959   6.765   2.467   4.402  0.0795 -1.5362  0.2539
 1665TIP3    H2 4960   6.756   2.456   4.553 -0.9732  0.6091  0.3924
 1666TIP3   OH2 4961   5.112   0.306   1.301  0.1147  0.1369  0.1088
 1666TIP3    H1 4962   5.086   0.367   1.370 -1.8528 -2.6936  2.0888
 1666TIP3    H2 4963   5.208   0.304   1.306  0.1359  1.8495  1.0484
 1667TIP3   OH2 4964   3.226   1.283   0.801  0.2760 -0.1388  0.5233
 1667TIP3    H1 4965   3.170   1.319   0.733 -0.8799 -0.2169  1.4053
 1667TIP3    H2 4966   3.267   1.207   0.761 -1.0123 -0.6611  0.1464
 1668TIP3   OH2 4967   6.460   3.604   5.014  0.5684 -0.3705  0.5765
 1668TIP3    H1 4968   6.438   3.672   4.951  0.0287 -1.2639 -0.2405
 1668TIP3    H2 4969   6.384   3.545   5.013 -0.1060  0.3302  3.1432
 1669TIP3   OH2 4970   5.832   4.220   5.240  0.0355 -0.9068  0.5930
 1669TIP3    H1 4971   5.773   4.295   5.235 -0.6997 -1.5089  0.0613
 1669TIP3    H2 4972   5.775   4.146   5.262  0.4881 -1.6032 -0.4985
 1670TIP3   OH2 4973   6.767   0.417   3.113  0.2285 -0.2105  0.2601
 1670TIP3    H1 4974   6.798   0.344   3.168 -1.4198 -0.1239  1.3681
 1670TIP3    H2 4975   6.703   0.462   3.168 -0.4300  0.7478 -1.2537
 1671TIP3   OH2 4976   3.324   6.248   5.834 -0.3251 -0.0509 -0.5323
 1671TIP3    H1 4977   3.383   6.288   5.898 -1.5697  0.4266  0.3622
 1671TIP3    H2 4978   3.356   6.279   5.749  0.3948  0.6097 -0.0356
 1672TIP3   OH2 4979   5.946   3.507   0.898  0.4848 -0.2948 -0.1475
 1672TIP3    H1 4980   5.877   3.556   0.855  0.3395  0.0404  0.4496
 1672TIP3    H2 4981   6.003   3.574   0.936  0.3455 -0.5775  0.5877
 1673TIP3   OH2 4982   3.358   1.464   4.262 -0.3695 -0.4879  0.4488
 1673TIP3    H1 4983   3.326   1.463   4.172  0.5805 -0.8264  0.0961
 1673TIP3    H2 4984   3.378   1.556   4.279 -2.3175 -0.1137  0.9976
 1674TIP3   OH2 4985   0.788   0.784   0.172 -0.0210  0.2877  0.6016
 1674TIP3    H1 4986   0.844   0.737   0.110  0.8230  0.6683  1.0635
 1674TIP3    H2 4987   0.794   0.734   0.253 -0.7834  0.0338  0.5157
 1675TIP3   OH2 4988   3.380   0.454   1.712  0.0503 -0.0113  0.4752
 1675TIP3    H1 4989   3.313   0.486   1.651  0.4654  0.6408  0.3501
 1675TIP3    H2 4990   3.331   0.432   1.792 -0.2491  0.9188  0.5546
 1676TIP3   OH2 4991   5.389   5.776   0.149 -0.0157 -0.0616 -0.1305
 1676TIP3    H1 4992   5.467   5.720   0.143  0.0793  0.2289 -2.0754
 1676TIP3    H2 4993   5.424   5.862   0.170  0.0551 -0.2128  0.3893
 1677TIP3   OH2 4994   5.279   1.797   4.615  0.6735 -0.0142  0.1471
 1677TIP3    H1 4995   5.206   1.793   4.677  0.8038  0.9004  0.3738
 1677TIP3    H2 4996   5.241   1.772   4.531 -0.0018  0.8764  0.1784
 1678TIP3   OH2 4997   2.540   1.378   3.580  0.3889 -0.1493 -0.0906
 1678TIP3    H1 4998   2.472   1.399   3.644  1.0854 -0.7595  0.8971
 1678TIP3    H2 4999   2.596   1.456   3.579  0.8016 -0.4159  0.6527
 1679TIP3   OH2 5000   3.734   4.506   0.969 -0.1347 -0.6018 -0.2256
 1679TIP3    H1 5001   3.803   4.454   1.009 -0.7046 -0.6013  0.7988
 1679TIP3    H2 5002   3.761   4.516   0.878  1.3433 -0.3751  0.2089
 1680TIP3   OH2 5003   6.103   4.179   1.075 -0.0705 -0.3795  0.0438
 1680TIP3    H1 5004   6.018   4.221   1.089  0.4573  0.3932  1.0938
 1680TIP3    H2 5005   6.120   4.132   1.157  1.5568  1.3892  0.7728
 1681TIP3   OH2 5006   6.044   2.565   4.258  0.2842  0.2368  0.3192
 1681TIP3    H1 5007   6.068   2.639   4.315  2.4097  0.0338 -0.2247
 1681TIP3    H2 5008   6.114   2.561   4.193 -1.3771 -0.3794 -1.5421
 1682TIP3   OH2 5009   6.804   2.396   5.129 -0.0727 -0.1072 -0.3361
 1682TIP3    H1 5010   6.883   2.341   5.126  0.3340  0.5163 -2.4885
 1682TIP3    H2 5011   6.737   2.342   5.088 -1.0881 -0.9832  2.2653
 1683TIP3   OH2 5012   0.775   2.422   3.638 -0.1944  0.5752  0.2742
 1683TIP3    H1 5013   0.743   2.372   3.563 -2.0627 -0.0825  1.4521
 1683TIP3    H2 5014   0.860   2.382   3.659 -0.9093 -1.0491  0.1955
 1684TIP3   OH2 5015   5.972   4.457   4.310 -0.4043 -0.0164 -0.4401
 1684TIP3    H1 5016   5.920   4.400   4.254 -1.2611  1.2326 -0.9541
 1684TIP3    H2 5017   6.031   4.398   4.356 -0.7865 -1.2343 -1.4665
 1685TIP3   OH2 5018   0.605   1.157   3.230  0.1627  0.3571  0.3229
 1685TIP3    H1 5019   0.574   1.133   3.142 -1.9080  0.3537  0.9966
 1685TIP3    H2 5020   0.573   1.086   3.286  1.3618  0.4224  1.1120
 1686TIP3   OH2 5021   5.338   1.983   2.460 -0.3257  0.1545  0.7644
 1686TIP3    H1 5022   5.346   1.891   2.484  3.2049 -0.2350 -1.2999
 1686TIP3    H2 5023   5.355   2.031   2.541  2.2381 -1.0865  1.0412
 1687TIP3   OH2 5024   1.287   2.911   3.945 -0.3221 -0.1387  0.3337
 1687TIP3    H1 5025   1.207   2.859   3.942 -0.3302 -0.1270 -2.4721
 1687TIP3    H2 5026   1.354   2.853   3.907  0.9411  0.0218  2.1953
 1688TIP3   OH2 5027   0.231   6.749   5.113  0.0453  0.1087  0.3297
 1688TIP3    H1 5028   0.216   6.695   5.036 -2.4531  0.8153  0.2504
 1688TIP3    H2 5029   0.217   6.838   5.083  1.8437  0.6646  1.0001
 1689TIP3   OH2 5030   1.032   3.082   3.317  0.8188 -0.1175  0.3745
 1689TIP3    H1 5031   1.039   3.059   3.410  1.6415  0.6558  0.5165
 1689TIP3    H2 5032   0.940   3.105   3.305  0.3546 -1.7198  0.6254
 1690TIP3   OH2 5033   2.210   2.823   4.024 -0.6094  0.2249 -0.0928
 1690TIP3    H1 5034   2.207   2.910   3.985 -3.1689  0.1630 -0.1833
 1690TIP3    H2 5035   2.299   2.791   4.006 -0.0859  2.2320 -1.2964
 1691TIP3   OH2 5036   6.250   5.267   5.458 -0.1258 -0.4131 -0.1290
 1691TIP3    H1 5037   6.313   5.250   5.527 -0.2283 -1.1346 -0.2025
 1691TIP3    H2 5038   6.290   5.336   5.405  0.6818 -0.9846 -0.2792
 1692TIP3   OH2 5039   5.104   2.991   1.953  0.1358  0.3450  0.2560
 1692TIP3    H1 5040   5.106   2.970   1.860 -1.2182  1.0257  0.0450
 1692TIP3    H2 5041   5.050   3.070   1.959  0.0298  0.2038  1.6417
 1693TIP3   OH2 5042   5.958   0.556   4.961 -0.2128 -0.3930  0.1510
 1693TIP3    H1 5043   5.866   0.579   4.969  0.4395  2.0596  1.7096
 1693TIP3    H2 5044   6.003   0.616   5.020  2.2375 -2.6947  0.8458
 1694TIP3   OH2 5045   5.200   0.918   5.796  0.4809 -0.1521  0.5237
 1694TIP3    H1 5046   5.253   0.959   5.728  2.8032  0.9392  2.7957
 1694TIP3    H2 5047   5.118   0.895   5.753  1.8958  0.2579 -2.6395
 1695TIP3   OH2 5048   1.800   4.802   4.924  0.0031  0.5790 -0.2327
 1695TIP3    H1 5049   1.740   4.809   4.850 -1.4607 -0.9563  0.7411
 1695TIP3    H2 5050   1.814   4.893   4.951 -2.7668  0.9911  0.1473
 1696TIP3   OH2 5051   3.300   4.560   0.202  0.4304  0.3667  0.0558
 1696TIP3    H1 5052   3.304   4.474   0.161  1.5381 -0.2019  1.2682
 1696TIP3    H2 5053   3.237   4.609   0.150 -0.1063 -1.1265 -0.7589
 1697TIP3   OH2 5054   4.526   0.899   2.772  0.1708 -0.7742  0.6372
 1697TIP3    H1 5055   4.596   0.907   2.837  0.2839  1.6488  0.3033
 1697TIP3    H2 5056   4.457   0.957   2.803 -0.2649 -0.4871 -0.7765
 1698TIP3   OH2 5057   0.980   2.060   0.241 -0.1609  0.3747  0.6207
 1698TIP3    H1 5058   1.011   2.015   0.163 -1.4587 -1.8447  1.2883
 1698TIP3    H2 5059   1.030   2.142   0.244 -0.0970  0.5439 -2.4921
 1699TIP3   OH2 5060   1.960   4.034   3.229  1.0528  0.1032  0.8338
 1699TIP3    H1 5061   2.018   3.995   3.165  1.0743 -0.5492  1.2437
 1699TIP3    H2 5062   1.943   4.122   3.196  0.8028 -0.3344 -0.2277
 1700TIP3   OH2 5063   0.145   6.567   2.021  0.1771 -0.3391  0.3128
 1700TIP3    H1 5064   0.058   6.594   2.051 -0.5038 -0.6319 -1.2979
 1700TIP3    H2 5065   0.128   6.503   1.952  1.7259 -2.3975  1.7220
 1701TIP3   OH2 5066   2.253   0.282   5.011  0.1623  0.3507  0.1173
 1701TIP3    H1 5067   2.254   0.336   5.090  0.6477  3.0687 -1.6119
 1701TIP3    H2 5068   2.183   0.318   4.958 -0.5004 -1.7540 -0.5415
 1702TIP3   OH2 5069   1.693   4.416   2.118 -0.1325 -0.2620  0.7646
 1702TIP3    H1 5070   1.777   4.446   2.152 -0.4982  0.9473  0.6615
 1702TIP3    H2 5071   1.712   4.332   2.077  1.1034  0.1802  0.3820
 1703TIP3   OH2 5072   0.972   5.277   5.295  0.1785  0.5825 -0.3923
 1703TIP3    H1 5073   0.891   5.327   5.307 -0.4405 -0.1567 -1.3147
 1703TIP3    H2 5074   1.003   5.261   5.383  0.6508  2.9621 -0.0496
 1704TIP3   OH2 5075   3.023   2.828   4.621 -0.0709  0.5844 -0.1253
 1704TIP3    H1 5076   3.011   2.890   4.549  0.6361 -0.4795 -1.2084
 1704TIP3    H2 5077   2.949   2.843   4.679 -0.1256  2.1521 -0.5608
 1705TIP3   OH2 5078   3.731   2.657   5.138  0.9113 -0.2327 -0.2997
 1705TIP3    H1 5079   3.674   2.719   5.093  1.4956  1.0230  0.6058
 1705TIP3    H2 5080   3.683   2.575   5.137 -0.8850  0.7458  0.3348
 1706TIP3   OH2 5081   4.711   2.055   3.568 -0.1636  0.6165 -1.0863
 1706TIP3    H1 5082   4.642   2.117   3.544  0.4485  1.3881 -0.8838
 1706TIP3    H2 5083   4.792   2.104   3.556  0.2766  0.2847  0.3218
 1707TIP3   OH2 5084   0.538   2.522   4.578  0.1351  0.2326 -0.1928
 1707TIP3    H1 5085   0.506   2.488   4.494  0.3312 -0.6999  0.1068
 1707TIP3    H2 5086   0.564   2.612   4.558  0.0184  0.0794 -1.0935
 1708TIP3   OH2 5087   4.707   3.278   3.058  0.0937  0.1071 -0.0934
 1708TIP3    H1 5088   4.791   3.279   3.013  0.8959  1.2821  1.3435
 1708TIP3    H2 5089   4.672   3.367   3.045  0.3750  0.5027  1.5702
 1709TIP3   OH2 5090   5.302   0.344   4.739 -0.1735 -0.4495  0.4267
 1709TIP3    H1 5091   5.384   0.391   4.758  0.3288 -0.4103 -1.5697
 1709TIP3    H2 5092   5.316   0.257   4.775  0.4691 -0.2277  0.7338
 1710TIP3   OH2 5093   5.855   5.477   3.320  0.7232  0.4544 -0.4316
 1710TIP3    H1 5094   5.838   5.390   3.286  0.6525  0.0927  0.5035
 1710TIP3    H2 5095   5.785   5.532   3.284 -1.0875 -0.5055  1.3835
 1711TIP3   OH2 5096  -0.020   6.508   0.980 -0.1166  0.4698 -0.4783
 1711TIP3    H1 5097  -0.012   6.438   1.045 -0.4822  0.0606 -0.8721
 1711TIP3    H2 5098   0.067   6.515   0.941  0.2398  1.0446  0.3807
 1712TIP3   OH2 5099   6.893   4.691   5.222 -0.2719  0.1526 -0.7684
 1712TIP3    H1 5100   6.843   4.614   5.196 -1.6087  0.2693  1.2314
 1712TIP3    H2 5101   6.983   4.671   5.196 -0.4614 -2.3530  0.2006
 1713TIP3   OH2 5102   6.138   4.549   2.800 -0.2702 -0.2773  0.1878
 1713TIP3    H1 5103   6.188   4.626   2.829 -1.1887 -0.3247  2.0938
 1713TIP3    H2 5104   6.066   4.544   2.863 -1.2877 -1.6180 -1.0414
 1714TIP3   OH2 5105   6.844   1.939   2.247  0.0065  0.4749  0.1225
 1714TIP3    H1 5106   6.800   1.869   2.294 -1.7011  1.5558  0.2395
 1714TIP3    H2 5107   6.866   2.004   2.315 -2.0102  1.8093 -0.4098
 1715TIP3   OH2 5108   5.199   2.003   5.573  0.8956  0.0272  0.0171
 1715TIP3    H1 5109   5.125   2.020   5.632  1.0579 -2.2278  0.9888
 1715TIP3    H2 5110   5.224   1.912   5.592  2.0331 -0.2416 -2.3773
 1716TIP3   OH2 5111   0.253   4.483   2.853  0.0403 -0.0529 -0.3043
 1716TIP3    H1 5112   0.160   4.468   2.841 -0.2843  1.9285 -0.7153
 1716TIP3    H2 5113   0.280   4.419   2.918 -1.4702 -1.0474 -0.6061
 1717TIP3   OH2 5114   0.972   2.117   2.915  0.1330  0.2556 -0.3277
 1717TIP3    H1 5115   1.034   2.190   2.914  0.0715  0.3737  1.3142
 1717TIP3    H2 5116   0.966   2.089   2.824  0.4792  2.0281 -0.9300
 1718TIP3   OH2 5117   4.560   0.768   4.053  0.1682  0.7916 -0.1080
 1718TIP3    H1 5118   4.650   0.739   4.068  0.3707  0.2590 -2.0089
 1718TIP3    H2 5119   4.567   0.863   4.044  0.4370  0.8217  0.3998
 1719TIP3   OH2 5120   4.522   6.207   4.699  0.2425 -0.0929 -0.4632
 1719TIP3    H1 5121   4.499   6.231   4.609  2.7075  0.2588 -1.0792
 1719TIP3    H2 5122   4.538   6.291   4.742 -2.1822 -0.1695  0.7686
 1720TIP3   OH2 5123   3.355   2.327   1.525  0.6002  0.2155 -0.2686
 1720TIP3    H1 5124   3.281   2.327   1.586  2.3677 -1.0306  2.0456
 1720TIP3    H2 5125   3.354   2.239   1.488  0.3715  0.5175 -0.9892
 1721TIP3   OH2 5126   4.874   6.072   3.635 -0.1095 -0.2455 -0.0945
 1721TIP3    H1 5127   4.783   6.081   3.607 -0.5459 -1.1144  1.0034
 1721TIP3    H2 5128   4.902   5.988   3.599  0.0825 -0.2444  0.0547
 1722TIP3   OH2 5129   7.094   3.940   4.697 -0.2234  0.2351 -0.0710
 1722TIP3    H1 5130   7.171   3.994   4.678  1.9725 -3.4156 -3.0970
 1722TIP3    H2 5131   7.049   3.932   4.613 -0.8311 -1.9048  0.3808
 1723TIP3   OH2 5132   6.629   0.966   3.583  0.0814  0.3941 -0.3633
 1723TIP3    H1 5133   6.564   0.975   3.653  1.6222 -0.3571  1.2434
 1723TIP3    H2 5134   6.579   0.981   3.503 -2.0749 -0.1830  0.7749
 1724TIP3   OH2 5135   5.083   5.425   3.066  0.5969 -0.2835 -0.1258
 1724TIP3    H1 5136   5.119   5.466   3.145 -1.2668  0.9014  0.1628
 1724TIP3    H2 5137   5.128   5.469   2.994  0.7352  0.2006  0.2485
 1725TIP3   OH2 5138   5.106   0.839   2.890 -0.4121 -0.2369  0.6169
 1725TIP3    H1 5139   5.143   0.833   2.802  0.6633  1.1019  0.9392
 1725TIP3    H2 5140   5.167   0.788   2.944 -1.3033 -1.4145  0.5529
 1726TIP3   OH2 5141   5.891   1.289   2.888  0.0715  0.5372 -0.1626
 1726TIP3    H1 5142   5.856   1.377   2.898 -1.0610  0.0284  0.6010
 1726TIP3    H2 5143   5.961   1.283   2.953 -0.7023  0.4870  0.7022
 1727TIP3   OH2 5144   1.962   0.336   1.822 -0.0393 -0.3495  0.7806
 1727TIP3    H1 5145   1.893   0.325   1.886 -2.4548  1.0996 -1.4011
 1727TIP3    H2 5146   1.932   0.287   1.745  0.5301  1.5385 -0.7468
 1728TIP3   OH2 5147   0.307   6.739   2.451  0.4114  0.3255 -0.0280
 1728TIP3    H1 5148   0.236   6.800   2.472  0.1243  0.2851 -0.8475
 1728TIP3    H2 5149   0.288   6.661   2.504  0.2719  0.5954  0.3247
 1729TIP3   OH2 5150   0.746   3.663   1.274  0.3858  0.5010  0.5391
 1729TIP3    H1 5151   0.678   3.730   1.285  1.1207  1.1175  1.5352
 1729TIP3    H2 5152   0.762   3.660   1.180 -0.5544  0.8159  0.3587
 1730TIP3   OH2 5153   6.262   0.837   5.427  0.0164  0.7659 -0.4789
 1730TIP3    H1 5154   6.350   0.873   5.417  1.0153 -1.6246 -0.9166
 1730TIP3    H2 5155   6.246   0.791   5.345 -1.0277 -0.1110  0.1911
 1731TIP3   OH2 5156   2.372   6.752   3.770 -0.7360 -0.1562 -0.3910
 1731TIP3    H1 5157   2.355   6.754   3.864  1.6104 -0.5688  0.1236
 1731TIP3    H2 5158   2.410   6.665   3.755  1.5176  0.8703 -1.1376
 1732TIP3   OH2 5159   5.426   0.925   1.621 -0.1562 -0.3570  0.4026
 1732TIP3    H1 5160   5.375   0.974   1.686  0.9016  0.8049  0.4016
 1732TIP3    H2 5161   5.423   0.980   1.542  1.3448 -0.0732  0.5062
 1733TIP3   OH2 5162   6.014   3.400   2.397 -0.3723  0.5969  0.0927
 1733TIP3    H1 5163   6.017   3.328   2.334  0.8389 -0.2791  1.0826
 1733TIP3    H2 5164   5.925   3.432   2.393 -0.3043  0.6427 -2.1210
 1734TIP3   OH2 5165   4.840   1.633   4.648 -0.0738  0.5053 -0.4335
 1734TIP3    H1 5166   4.759   1.609   4.604  0.1030 -1.4412  0.2250
 1734TIP3    H2 5167   4.823   1.721   4.682 -1.8370  0.2317 -0.4942
 1735TIP3   OH2 5168   5.099   6.784   4.574  0.3254 -0.8479 -0.7407
 1735TIP3    H1 5169   5.005   6.771   4.587  0.2151 -0.5931 -1.2699
 1735TIP3    H2 5170   5.140   6.709   4.618 -0.1240 -0.9825 -0.5451
 1736TIP3   OH2 5171   4.528   5.820   0.160  0.4542 -0.0182 -0.3974
 1736TIP3    H1 5172   4.558   5.909   0.176 -1.5231  0.6492 -0.1229
 1736TIP3    H2 5173   4.560   5.770   0.235  0.2368  0.8046  0.2504
 1737TIP3   OH2 5174   4.162   6.400   2.901  0.3013  0.1434  0.0537
 1737TIP3    H1 5175   4.104   6.390   2.977 -0.8900 -0.2934 -0.8784
 1737TIP3    H2 5176   4.172   6.495   2.891  2.1130  0.2218  1.9219
 1738TIP3   OH2 5177   3.363   1.738   4.293 -0.2877 -0.1984 -0.0899
 1738TIP3    H1 5178   3.340   1.784   4.374 -2.3195 -0.9834 -0.1854
 1738TIP3    H2 5179   3.291   1.756   4.233  0.5706 -0.6778 -1.3151
 1739TIP3   OH2 5180   5.554   6.380   1.775  0.3801  0.0975  0.0476
 1739TIP3    H1 5181   5.628   6.324   1.752  0.6437  1.1174 -1.8232
 1739TIP3    H2 5182   5.480   6.344   1.726 -0.0378 -0.0513  0.7689
 1740TIP3   OH2 5183   5.043   3.098   5.127  0.1665 -0.2837 -0.0295
 1740TIP3    H1 5184   5.127   3.089   5.172 -0.2556  1.1848  1.1344
 1740TIP3    H2 5185   5.010   3.184   5.156 -0.7045  0.1640 -2.1863
 1741TIP3   OH2 5186   3.373   1.790   2.803  0.1884  0.4077 -0.3288
 1741TIP3    H1 5187   3.355   1.748   2.887 -0.6888  0.8220 -0.3004
 1741TIP3    H2 5188   3.295   1.843   2.786  0.6582  0.8657 -1.0713
 1742TIP3   OH2 5189   4.412   0.857   5.331  0.3552  0.1810  0.6102
 1742TIP3    H1 5190   4.350   0.865   5.404 -1.4691  0.0216 -0.8561
 1742TIP3    H2 5191   4.428   0.947   5.303 -1.4258  0.1192 -0.7441
 1743TIP3   OH2 5192   6.619   2.981   1.727 -0.1063  0.2832  0.5388
 1743TIP3    H1 5193   6.541   3.000   1.779 -2.8253 -0.0664 -3.0267
 1743TIP3    H2 5194   6.639   2.890   1.748 -0.6927  0.3658  1.5161
 1744TIP3   OH2 5195   1.846   0.605   1.872  0.7792  0.2978 -0.1062
 1744TIP3    H1 5196   1.753   0.614   1.849  1.2640  0.0685 -2.3057
 1744TIP3    H2 5197   1.846   0.609   1.968 -1.3218  1.8527 -0.0842
 1745TIP3   OH2 5198   2.702   5.712   2.748 -0.7467  0.5797 -0.0532
 1745TIP3    H1 5199   2.753   5.659   2.808 -2.1395 -0.4010  0.3189
 1745TIP3    H2 5200   2.762   5.781   2.720  1.5655 -1.8122 -1.4942
 1746TIP3   OH2 5201   0.686   1.603   3.490  0.0721 -0.5362  0.4235
 1746TIP3    H1 5202   0.656   1.550   3.564  0.1942 -1.6995 -0.3523
 1746TIP3    H2 5203   0.606   1.643   3.456  0.1168  0.7715  1.7274
 1747TIP3   OH2 5204   4.771   3.813   5.797  0.1323 -0.5756 -0.0603
 1747TIP3    H1 5205   4.772   3.896   5.846  1.7651 -0.2367 -0.5760
 1747TIP3    H2 5206   4.698   3.821   5.736 -0.3770  0.0427  0.6235
 1748TIP3   OH2 5207   6.596   4.972   1.220 -0.2733 -0.4264  0.3466
 1748TIP3    H1 5208   6.594   4.890   1.270 -1.3323 -0.6704 -0.0689
 1748TIP3    H2 5209   6.686   5.003   1.228 -0.5879 -0.0206  3.0902
 1749TIP3   OH2 5210   1.105   1.179   0.398  0.0907  0.0683 -0.3904
 1749TIP3    H1 5211   1.085   1.134   0.480  0.7942 -0.9783 -0.7801
 1749TIP3    H2 5212   1.133   1.266   0.426 -1.0386  0.2204  0.3889
 1750TIP3   OH2 5213   0.359   0.665   5.395  0.3689  0.1398 -0.0061
 1750TIP3    H1 5214   0.319   0.679   5.310  2.6714  0.6225 -1.0931
 1750TIP3    H2 5215   0.345   0.572   5.414 -0.7684  0.1824 -0.5586
 1751TIP3   OH2 5216   1.794   3.184   0.259  0.3229  0.6238  0.0193
 1751TIP3    H1 5217   1.805   3.241   0.336  1.8728  0.1466  0.1904
 1751TIP3    H2 5218   1.781   3.097   0.295 -1.6762  0.7740 -0.2520
 1752TIP3   OH2 5219   2.087   1.842   5.709  0.2740  0.3236  0.7382
 1752TIP3    H1 5220   2.161   1.898   5.731  0.8981  0.8386 -2.2577
 1752TIP3    H2 5221   2.127   1.759   5.681 -0.2182  0.5612 -0.7868
 1753TIP3   OH2 5222   1.856   2.351   2.283 -0.0818  0.2961  0.5776
 1753TIP3    H1 5223   1.924   2.407   2.322  0.5386 -0.6075  0.8386
 1753TIP3    H2 5224   1.780   2.363   2.339 -0.5605  2.2573 -0.4146
 1754TIP3   OH2 5225   2.980   2.116   1.478 -0.2628 -0.1668 -0.4260
 1754TIP3    H1 5226   2.997   2.138   1.386 -0.6837  2.7079  0.0906
 1754TIP3    H2 5227   2.885   2.104   1.482 -0.2331 -0.3886 -0.3691
 1755TIP3   OH2 5228   4.766   3.322   4.857  0.0369  0.4079  0.0264
 1755TIP3    H1 5229   4.692   3.327   4.917 -0.7852 -0.9706 -0.8288
 1755TIP3    H2 5230   4.739   3.261   4.789  0.9845  1.8405 -1.7285
 1756TIP3   OH2 5231   4.384   1.703   3.038  0.4694  0.5060  0.2727
 1756TIP3    H1 5232   4.404   1.633   2.975 -1.9359 -0.6131  0.6261
 1756TIP3    H2 5233   4.310   1.750   2.999  1.7946  2.6802  0.2334
 1757TIP3   OH2 5234   3.764   3.633   1.284 -0.6418  0.4829 -0.1236
 1757TIP3    H1 5235   3.678   3.673   1.298 -0.1203  1.6833 -0.1434
 1757TIP3    H2 5236   3.825   3.694   1.326  0.1930 -0.4156  0.0065
 1758TIP3   OH2 5237   3.146   2.337   1.721  0.3499  0.5210 -0.4230
 1758TIP3    H1 5238   3.145   2.432   1.737  2.4326  0.3355  1.1294
 1758TIP3    H2 5239   3.206   2.302   1.786 -0.6158 -1.9470 -0.7629
 1759TIP3   OH2 5240   0.385   0.804   1.438  0.6320  0.1416  0.4423
 1759TIP3    H1 5241   0.397   0.896   1.415  0.8902  0.5289  2.0157
 1759TIP3    H2 5242   0.333   0.806   1.518 -0.0619 -1.1283  0.0519
 1760TIP3   OH2 5243   5.989   4.813   1.926  0.3921  0.0149  0.3677
 1760TIP3    H1 5244   5.897   4.789   1.936  0.1350  1.0112  0.4977
 1760TIP3    H2 5245   6.011   4.788   1.836 -0.4898  1.2790 -0.2244
 1761TIP3   OH2 5246   6.282   4.527   1.529 -0.4505 -0.5252 -0.1153
 1761TIP3    H1 5247   6.271   4.608   1.480 -0.8200  0.0157  0.8284
 1761TIP3    H2 5248   6.371   4.498   1.508  0.4271  1.1806  1.0433
 1762TIP3   OH2 5249   5.988   3.883   0.857  0.6490  0.2580 -0.0146
 1762TIP3    H1 5250   6.035   3.845   0.932 -1.8006 -2.2035  0.4328
 1762TIP3    H2 5251   6.041   3.860   0.781  0.6845 -1.6354  0.5452
 1763TIP3   OH2 5252   6.790   2.964   5.476 -0.5021 -0.3820 -0.2208
 1763TIP3    H1 5253   6.824   3.042   5.521 -1.6795 -0.5643  1.0606
 1763TIP3    H2 5254   6.830   2.890   5.522  1.7681 -0.6376 -2.3426
 1764TIP3   OH2 5255   0.908   6.683   3.056  0.5974 -0.1126  0.3289
 1764TIP3    H1 5256   0.957   6.617   3.105  0.8966  1.0512  1.6477
 1764TIP3    H2 5257   0.823   6.686   3.099 -0.6927 -1.9854 -1.8222
 1765TIP3   OH2 5258   6.920   0.055   5.036  0.6423  0.3542  0.4763
 1765TIP3    H1 5259   6.941   0.078   4.945 -0.3827 -2.6592 -0.6467
 1765TIP3    H2 5260   6.842   0.106   5.056  0.9377  1.1336 -0.2853
 1766TIP3   OH2 5261   0.902   2.812   0.411  0.2730 -0.0383 -0.2953
 1766TIP3    H1 5262   0.872   2.868   0.340 -0.1106 -0.0264 -0.1271
 1766TIP3    H2 5263   0.975   2.860   0.450 -1.9061  1.8575  1.7989
 1767TIP3   OH2 5264   6.222   3.355   1.346  0.0423 -0.2525 -0.2584
 1767TIP3    H1 5265   6.137   3.385   1.379 -0.4721 -0.5660 -1.2202
 1767TIP3    H2 5266   6.201   3.316   1.261  1.1226 -0.5754 -0.3902
 1768TIP3   OH2 5267   5.178   2.617   1.663 -0.1529  0.5103  0.1477
 1768TIP3    H1 5268   5.215   2.583   1.581  0.0044  3.8111 -1.3346
 1768TIP3    H2 5269   5.227   2.572   1.732  3.1874  1.0040 -1.6850
 1769TIP3   OH2 5270   0.931   4.821   4.588 -0.5772 -0.5418 -0.0812
 1769TIP3    H1 5271   0.914   4.805   4.495  0.8699 -1.3567 -0.2345
 1769TIP3    H2 5272   0.914   4.737   4.631 -0.2427 -0.4552  0.2291
 1770TIP3   OH2 5273   6.863   3.217   5.583  0.0391  0.2077  0.5350
 1770TIP3    H1 5274   6.842   3.299   5.538 -0.8579 -0.7957 -1.0179
 1770TIP3    H2 5275   6.957   3.222   5.600  0.1133  1.2981 -0.0824
 1771TIP3   OH2 5276   4.790   4.648   0.076  0.2189 -0.0216 -0.0400
 1771TIP3    H1 5277   4.790   4.685  -0.013 -0.5267 -2.6233 -1.2228
 1771TIP3    H2 5278   4.883   4.650   0.102  0.8864 -1.6391 -2.0315
 1772TIP3   OH2 5279   3.155   2.310   4.682  0.2344  0.0293 -0.4465
 1772TIP3    H1 5280   3.186   2.295   4.592 -3.1976  0.4218 -1.8282
 1772TIP3    H2 5281   3.156   2.405   4.692 -0.5436  0.0532 -0.5472
 1773TIP3   OH2 5282   7.104   5.716   1.964 -0.4503  0.5746 -0.2061
 1773TIP3    H1 5283   7.124   5.669   2.045 -1.7862  0.7955  0.2761
 1773TIP3    H2 5284   7.030   5.669   1.926  0.5387  0.0951 -1.6591
 1774TIP3   OH2 5285   2.627   0.382   0.180  0.1824  0.4890  0.3276
 1774TIP3    H1 5286   2.641   0.369   0.086  0.3057  2.0637  0.0937
 1774TIP3    H2 5287   2.567   0.457   0.185  0.2847  0.5134  1.5082
 1775TIP3   OH2 5288   5.368   0.183   3.841  0.4095 -0.0302  0.2082
 1775TIP3    H1 5289   5.339   0.265   3.882  0.1330 -0.2797  0.5175
 1775TIP3    H2 5290   5.435   0.210   3.778 -0.4895  0.5468 -0.5127
 1776TIP3   OH2 5291   1.725   6.664   2.692 -0.3970 -0.1006  0.3097
 1776TIP3    H1 5292   1.710   6.570   2.708  0.5295 -0.4109 -0.5444
 1776TIP3    H2 5293   1.748   6.669   2.599  0.4286  0.8623  0.5518
 1777TIP3   OH2 5294   3.384   1.543   1.972 -0.0859 -0.3996  0.0943
 1777TIP3    H1 5295   3.450   1.575   1.909 -0.1876 -0.6767 -0.1567
 1777TIP3    H2 5296   3.317   1.503   1.917  0.8439 -2.6009  0.4348
 1778TIP3   OH2 5297   1.225   5.253   5.132  0.4617  0.1663  0.0532
 1778TIP3    H1 5298   1.237   5.171   5.180  0.7507  0.3049  0.2201
 1778TIP3    H2 5299   1.144   5.290   5.166  1.2602  0.8456  1.2945
 1779TIP3   OH2 5300   0.677   3.120   5.110 -0.2259  0.6821 -0.5019
 1779TIP3    H1 5301   0.627   3.122   5.191 -0.7483  0.0988 -0.8061
 1779TIP3    H2 5302   0.751   3.062   5.128 -0.3667  0.5173 -0.4624
 1780TIP3   OH2 5303   0.631   0.854   4.122 -0.2160  0.1798 -0.1733
 1780TIP3    H1 5304   0.610   0.873   4.213 -1.6401  0.8048 -0.6088
 1780TIP3    H2 5305   0.726   0.864   4.117  0.0423 -0.9617  1.4692
 1781TIP3   OH2 5306   6.417   6.409   1.659  0.1011  0.1079 -0.5018
 1781TIP3    H1 5307   6.398   6.432   1.750 -1.8895  0.2547 -0.9098
 1781TIP3    H2 5308   6.509   6.381   1.660 -0.2475 -1.1936  1.7963
 1782TIP3   OH2 5309   1.464   4.635   5.477  0.5034 -0.4995  0.5143
 1782TIP3    H1 5310   1.523   4.609   5.548  1.5738 -0.9746 -0.5288
 1782TIP3    H2 5311   1.511   4.702   5.429 -0.8649  0.9742  1.1401
 1783TIP3   OH2 5312   3.514   6.782   3.670  0.1781 -0.7240  0.0751
 1783TIP3    H1 5313   3.587   6.721   3.669  0.2909 -0.5848 -0.4122
 1783TIP3    H2 5314   3.466   6.763   3.589 -0.3613 -0.8570  0.4200
 1784TIP3   OH2 5315   6.892   1.075   2.275 -0.2528  0.0518  1.1158
 1784TIP3    H1 5316   6.806   1.067   2.234  0.0404  0.4396  0.4095
 1784TIP3    H2 5317   6.946   1.008   2.233  0.3987  1.2836 -0.0847
 1785TIP3   OH2 5318   6.328   6.083   3.427  0.1893  0.3047  0.0894
 1785TIP3    H1 5319   6.310   5.994   3.398  0.6894 -0.0894  0.9435
 1785TIP3    H2 5320   6.247   6.110   3.471  0.3260 -0.0394  0.5580
 1786TIP3   OH2 5321   4.180   0.011   2.462 -0.6299 -0.5938  0.7207
 1786TIP3    H1 5322   4.197   0.081   2.399 -1.4881  0.4366  1.6104
 1786TIP3    H2 5323   4.195  -0.070   2.412 -0.1479  0.2019 -0.4669
 1787TIP3   OH2 5324   4.202   5.666   0.853 -0.7517 -0.1334  0.0957
 1787TIP3    H1 5325   4.195   5.681   0.947 -0.7780  0.8444 -0.0488
 1787TIP3    H2 5326   4.112   5.669   0.821 -0.6572  0.6731 -0.1133
 1788TIP3   OH2 5327   0.399   0.872   5.171 -0.1995 -0.6276  0.1063
 1788TIP3    H1 5328   0.332   0.922   5.217  0.5854 -0.0817  0.6900
 1788TIP3    H2 5329   0.362   0.859   5.083 -2.2166 -2.7097  1.1746
 1789TIP3   OH2 5330   5.970   4.496   1.389 -0.4301 -0.0041  0.3800
 1789TIP3    H1 5331   5.889   4.504   1.439 -0.8019  0.6187 -0.2996
 1789TIP3    H2 5332   6.008   4.413   1.418 -2.7512 -1.8406 -1.3580
 1790TIP3   OH2 5333   3.120   2.927   0.065 -0.3143 -0.0820  0.2377
 1790TIP3    H1 5334   3.191   2.946   0.126 -0.1696  2.3475 -0.5534
 1790TIP3    H2 5335   3.042   2.922   0.119 -0.1069  1.4712  0.7406
 1791TIP3   OH2 5336   2.115   3.073   1.104 -0.0754 -0.4104 -0.1921
 1791TIP3    H1 5337   2.187   3.108   1.157 -1.1702  1.3079  0.2256
 1791TIP3    H2 5338   2.156   3.003   1.053  1.1439 -1.9498  2.6014
 1792TIP3   OH2 5339   1.122   6.803   1.291 -0.2870  0.1001  0.6141
 1792TIP3    H1 5340   1.181   6.845   1.353 -0.2385  0.4287  0.3506
 1792TIP3    H2 5341   1.172   6.729   1.256 -0.1778  0.1378  0.6889
 1793TIP3   OH2 5342   0.270   3.882   2.285 -0.0333  0.7288  0.0413
 1793TIP3    H1 5343   0.272   3.858   2.378  1.9677  0.9708  0.1193
 1793TIP3    H2 5344   0.259   3.798   2.240  3.3586 -0.0771  0.4297
 1794TIP3   OH2 5345   6.474   3.424   5.469  0.2840  0.9623  0.1903
 1794TIP3    H1 5346   6.502   3.334   5.452 -2.0093  0.2150 -0.0556
 1794TIP3    H2 5347   6.507   3.475   5.395 -2.6141 -0.7029 -2.5099
 1795TIP3   OH2 5348   2.405   5.200   0.104 -0.7976  0.2245 -0.2917
 1795TIP3    H1 5349   2.495   5.168   0.106 -1.0518 -0.6498 -1.5434
 1795TIP3    H2 5350   2.378   5.202   0.196 -0.3174 -1.8782 -0.0560
 1796TIP3   OH2 5351   0.878   5.675   2.233 -0.0889 -0.1790  0.2481
 1796TIP3    H1 5352   0.872   5.597   2.179  0.8592 -0.1747  0.1105
 1796TIP3    H2 5353   0.891   5.747   2.171  1.2780 -0.2098  0.4618
 1797TIP3   OH2 5354   3.116   6.350   0.372  0.1997 -0.1537 -0.0636
 1797TIP3    H1 5355   3.141   6.428   0.421 -1.8672 -0.1994  1.2110
 1797TIP3    H2 5356   3.172   6.281   0.406  0.1642  0.2280  0.8028
 1798TIP3   OH2 5357   5.397   2.252   0.669 -0.3264 -0.6034  0.0980
 1798TIP3    H1 5358   5.322   2.308   0.689  0.0322 -0.1083  0.0789
 1798TIP3    H2 5359   5.437   2.234   0.753  0.3698  0.3354 -0.0032
 1799TIP3   OH2 5360   0.348   2.518   4.017 -0.0156 -0.0955 -0.6062
 1799TIP3    H1 5361   0.404   2.565   3.955 -0.0977  0.1721 -0.4780
 1799TIP3    H2 5362   0.284   2.473   3.962 -0.1743  0.2531 -0.7126
 1800TIP3   OH2 5363   5.326   3.125   3.598 -0.4081 -0.0224  0.1855
 1800TIP3    H1 5364   5.370   3.210   3.599  2.2183 -1.2344 -1.2792
 1800TIP3    H2 5365   5.299   3.111   3.689 -0.8918  2.2844  0.4783
 1801TIP3   OH2 5366   0.236   4.950   3.715 -0.3931 -0.1865  0.0082
 1801TIP3    H1 5367   0.231   4.963   3.810 -0.9835  0.0506 -0.0547
 1801TIP3    H2 5368   0.304   4.883   3.704  0.0156  0.1244  0.5657
 1802TIP3   OH2 5369   1.298   1.679   5.848 -0.0161  0.4585  0.3296
 1802TIP3    H1 5370   1.324   1.619   5.919 -1.0212 -0.8138 -0.3294
 1802TIP3    H2 5371   1.358   1.753   5.856  0.7040 -0.2360  1.7293
 1803TIP3   OH2 5372   2.024   6.601   5.841 -0.0249  0.3786 -0.2522
 1803TIP3    H1 5373   2.004   6.524   5.787  2.7830 -0.1913 -0.6179
 1803TIP3    H2 5374   2.038   6.671   5.777  0.5639  0.3780 -0.1325
 1804TIP3   OH2 5375   0.684   2.364   4.913  0.3512  0.4777  0.1198
 1804TIP3    H1 5376   0.727   2.303   4.851  0.5696 -0.1716  0.8919
 1804TIP3    H2 5377   0.756   2.401   4.963  0.1060  0.3747  0.5468
 1805TIP3   OH2 5378   3.434   1.352   2.743 -0.1140  0.1988  0.0859
 1805TIP3    H1 5379   3.358   1.408   2.729 -0.4228  0.0580  1.1006
 1805TIP3    H2 5380   3.493   1.405   2.797  0.3185  0.1444 -0.3300
 1806TIP3   OH2 5381   4.339   3.900   5.229 -0.1632  0.4634 -0.3133
 1806TIP3    H1 5382   4.335   3.993   5.205 -2.0461  0.4973 -0.0051
 1806TIP3    H2 5383   4.284   3.856   5.164 -1.7738 -0.0113  1.3009
 1807TIP3   OH2 5384   0.919   0.743   2.696  0.4744  0.0917  0.3558
 1807TIP3    H1 5385   0.935   0.780   2.783  1.5093 -1.0603  0.6814
 1807TIP3    H2 5386   0.961   0.805   2.636  0.6916  0.3367  0.7503
 1808TIP3   OH2 5387   3.046   4.007   5.258 -0.1493 -0.0166 -0.0236
 1808TIP3    H1 5388   3.004   4.057   5.328 -1.0553 -0.5245 -0.1818
 1808TIP3    H2 5389   2.973   3.970   5.208  0.4794  0.1938 -1.1366
 1809TIP3   OH2 5390   6.226   1.298   0.884 -0.6392 -0.1251  0.4593
 1809TIP3    H1 5391   6.227   1.391   0.863 -2.0501 -0.5666 -1.9910
 1809TIP3    H2 5392   6.177   1.292   0.966 -4.6992  1.0863 -1.5844
 1810TIP3   OH2 5393   6.729   4.222   0.117  0.0049  0.4045  0.3590
 1810TIP3    H1 5394   6.766   4.212   0.029 -0.0845  2.6241 -0.0009
 1810TIP3    H2 5395   6.800   4.263   0.167 -1.2557  3.1144  0.1209
 1811TIP3   OH2 5396   0.708   6.088   1.111 -0.0286  0.4131 -0.1948
 1811TIP3    H1 5397   0.735   6.160   1.055  2.1525  0.1523  0.4430
 1811TIP3    H2 5398   0.769   6.017   1.092 -0.1902 -0.2029  1.3893
 1812TIP3   OH2 5399   0.744   2.699   2.559 -0.1294  0.2034 -0.1035
 1812TIP3    H1 5400   0.728   2.755   2.482 -1.1321  1.0783  0.7114
 1812TIP3    H2 5401   0.823   2.736   2.599  1.3754 -1.2477 -1.5503
 1813TIP3   OH2 5402   3.876   3.725   3.480  0.4405 -0.0079 -0.0717
 1813TIP3    H1 5403   3.953   3.746   3.427  0.0990  0.2721 -0.4653
 1813TIP3    H2 5404   3.909   3.666   3.547  1.3099  1.2971  0.6896
 1814TIP3   OH2 5405   0.237   4.031   1.783 -0.6063  0.3628 -0.4499
 1814TIP3    H1 5406   0.188   4.107   1.816 -0.5457  0.5873 -0.8610
 1814TIP3    H2 5407   0.262   3.982   1.861 -0.1933  1.0496 -0.1452
 1815TIP3   OH2 5408   0.303   3.956   4.811  0.2210 -0.4350  0.0420
 1815TIP3    H1 5409   0.329   3.937   4.721 -0.0833  3.1356 -0.9388
 1815TIP3    H2 5410   0.224   3.904   4.825  0.4105 -1.2219 -1.6480
 1816TIP3   OH2 5411   1.075   1.133   5.655 -0.4491  0.0828 -0.0651
 1816TIP3    H1 5412   1.134   1.103   5.586 -1.9332 -2.1373 -0.4813
 1816TIP3    H2 5413   1.117   1.106   5.736 -0.3904 -0.5843 -0.3112
 1817TIP3   OH2 5414   0.863   3.925   4.368 -0.1970  0.0784 -0.4594
 1817TIP3    H1 5415   0.771   3.902   4.384  0.1419 -0.5646  0.7003
 1817TIP3    H2 5416   0.872   3.921   4.273 -1.2009 -0.5783 -0.5486
 1818TIP3   OH2 5417   4.333   2.433   0.218  0.4634 -0.1690  0.2323
 1818TIP3    H1 5418   4.251   2.408   0.177  1.2264  0.0881 -1.5475
 1818TIP3    H2 5419   4.316   2.428   0.312 -1.1250 -1.5714 -0.0946
 1819TIP3   OH2 5420   3.435   4.262   0.133  0.0404  0.0601  0.4292
 1819TIP3    H1 5421   3.448   4.223   0.047 -1.3964  1.8094 -0.6777
 1819TIP3    H2 5422   3.474   4.201   0.195 -0.4722 -2.1409 -1.3193
 1820TIP3   OH2 5423   7.007   6.169   0.099 -0.3477  0.0695  0.8501
 1820TIP3    H1 5424   7.081   6.228   0.118  2.7852 -3.3942  0.5870
 1820TIP3    H2 5425   6.988   6.127   0.183  1.5503 -2.6252  0.0541
 1821TIP3   OH2 5426   2.398   6.462   3.522  0.5613 -0.4150  0.6555
 1821TIP3    H1 5427   2.481   6.474   3.569 -0.4282  2.3263  1.9214
 1821TIP3    H2 5428   2.337   6.432   3.590  0.4165 -2.2383 -0.2292
 1822TIP3   OH2 5429   2.089   4.780   5.712  0.5385 -0.2962  0.2212
 1822TIP3    H1 5430   2.023   4.751   5.775  1.5459  0.6843  1.7871
 1822TIP3    H2 5431   2.145   4.840   5.761  1.2872  0.6302 -1.6658
 1823TIP3   OH2 5432   5.286   3.689   0.327 -0.4191 -0.0704 -0.0798
 1823TIP3    H1 5433   5.303   3.783   0.332 -1.0167  0.0071  0.7108
 1823TIP3    H2 5434   5.259   3.674   0.237  0.5220  0.3612 -0.4543
 1824TIP3   OH2 5435   6.486   1.315   5.434 -0.4174  0.2543  0.3389
 1824TIP3    H1 5436   6.544   1.372   5.383  0.4804 -0.6605  0.3069
 1824TIP3    H2 5437   6.427   1.277   5.369 -0.0402 -0.0090  0.1526
 1825TIP3   OH2 5438   6.953   1.311   3.137 -0.1166 -0.6057  0.1568
 1825TIP3    H1 5439   6.957   1.406   3.124 -0.5719 -0.7162 -0.9084
 1825TIP3    H2 5440   6.969   1.298   3.230 -0.2260  0.5289  0.3388
 1826TIP3   OH2 5441   6.173   3.625   2.033 -0.0120  0.3560  0.1777
 1826TIP3    H1 5442   6.238   3.574   1.984 -0.0859 -0.2975  0.7496
 1826TIP3    H2 5443   6.203   3.621   2.124 -0.6610  0.3397  0.3959
 1827TIP3   OH2 5444   4.685   4.976   2.671  0.2632  0.4396  0.0408
 1827TIP3    H1 5445   4.611   4.937   2.625  1.7522 -1.8470 -0.5856
 1827TIP3    H2 5446   4.704   5.057   2.623 -0.4743 -0.0656 -1.1426
 1828TIP3   OH2 5447   3.713   1.959   1.709 -0.5415  0.2355 -0.6657
 1828TIP3    H1 5448   3.672   1.902   1.644  1.7731 -1.0398 -1.1034
 1828TIP3    H2 5449   3.715   2.046   1.668 -2.9716  0.4584 -0.4849
 1829TIP3   OH2 5450   6.348   6.540   4.355 -0.7497 -0.6208 -0.9002
 1829TIP3    H1 5451   6.288   6.545   4.430  0.5873 -2.8647  0.4496
 1829TIP3    H2 5452   6.416   6.604   4.375 -0.5283 -1.0335 -0.2891
 1830TIP3   OH2 5453   4.047   0.406   3.742  0.6198  0.3677  0.2560
 1830TIP3    H1 5454   4.072   0.411   3.650 -1.0577 -0.6659 -0.2918
 1830TIP3    H2 5455   4.034   0.497   3.768  1.1297  0.6722 -0.5053
 1831TIP3   OH2 5456   2.528   5.813   4.670 -0.0492  0.5365  0.2074
 1831TIP3    H1 5457   2.476   5.885   4.706  0.5815  1.3825 -0.5271
 1831TIP3    H2 5458   2.501   5.807   4.579  0.4078  0.3078  0.0868
 1832TIP3   OH2 5459   1.208   1.860   3.979 -0.0305 -0.0900  0.0290
 1832TIP3    H1 5460   1.304   1.862   3.979 -0.0249  1.8950 -0.1246
 1832TIP3    H2 5461   1.183   1.914   3.904 -1.2313  1.0115  1.1667
 1833TIP3   OH2 5462   5.792   4.856   0.622 -0.2222 -0.4343 -0.8448
 1833TIP3    H1 5463   5.740   4.926   0.584  1.5552  0.8790 -0.9750
 1833TIP3    H2 5464   5.837   4.816   0.547  0.4670 -0.2645 -0.5211
 1834TIP3   OH2 5465   0.135   4.419   4.252  0.2553 -0.7577 -0.1858
 1834TIP3    H1 5466   0.115   4.512   4.250 -1.3105 -0.9437  2.6138
 1834TIP3    H2 5467   0.224   4.414   4.287 -0.0075 -0.3267  0.5593
 1835TIP3   OH2 5468   6.649   4.962   1.596  0.4563 -0.3021 -1.0290
 1835TIP3    H1 5469   6.659   4.891   1.532 -0.2678  0.3030 -1.8490
 1835TIP3    H2 5470   6.560   4.994   1.580 -0.0029 -0.5942  0.7833
 1836TIP3   OH2 5471   5.603   0.938   2.784  0.3539  0.3642 -0.6438
 1836TIP3    H1 5472   5.518   0.972   2.811  0.6594  0.1765  0.5978
 1836TIP3    H2 5473   5.591   0.914   2.692 -0.7447  0.9366 -0.6621
 1837TIP3   OH2 5474   5.708   5.325   3.546  0.1532  0.1125  0.2460
 1837TIP3    H1 5475   5.623   5.364   3.567  0.4015  0.4204  0.6969
 1837TIP3    H2 5476   5.736   5.370   3.466 -0.8078 -1.0861 -0.7988
 1838TIP3   OH2 5477   4.378   6.659   4.908  0.2119 -0.1355 -0.3676
 1838TIP3    H1 5478   4.288   6.692   4.914  1.0541  2.5953 -1.3449
 1838TIP3    H2 5479   4.429   6.717   4.965  1.7733  0.2204 -2.0533
 1839TIP3   OH2 5480   6.307   2.350   1.001  0.6987 -0.1704  0.1098
 1839TIP3    H1 5481   6.398   2.340   1.027  0.8772  0.3002 -0.3095
 1839TIP3    H2 5482   6.297   2.294   0.925  0.3213 -1.1264  0.8482
 1840TIP3   OH2 5483   4.238   0.222   2.283  0.0671  0.0858 -0.1698
 1840TIP3    H1 5484   4.302   0.266   2.340 -1.2072  0.8883  0.7119
 1840TIP3    H2 5485   4.252   0.261   2.197  1.4398 -0.5002 -0.2398
 1841TIP3   OH2 5486   2.437   3.490   5.074  0.6804 -0.5627  0.7119
 1841TIP3    H1 5487   2.455   3.439   4.995 -0.4224 -0.0570  0.1022
 1841TIP3    H2 5488   2.342   3.487   5.083  0.6231  0.9595  0.9287
 1842TIP3   OH2 5489   3.974   4.985   3.254  0.3522 -0.3038  0.5392
 1842TIP3    H1 5490   3.975   5.080   3.265  1.4218  0.1590 -2.5086
 1842TIP3    H2 5491   3.882   4.961   3.262 -0.2693  1.3882 -0.9281
 1843TIP3   OH2 5492   1.740   5.301   3.062  0.2988  0.1085  0.5683
 1843TIP3    H1 5493   1.739   5.396   3.048  0.1594 -0.0051 -0.2222
 1843TIP3    H2 5494   1.648   5.277   3.075  0.3098  0.0447  0.5284
 1844TIP3   OH2 5495   4.419   5.839   3.833  0.9841  0.0493 -0.1767
 1844TIP3    H1 5496   4.409   5.776   3.905  3.7965  0.2536  0.5149
 1844TIP3    H2 5497   4.489   5.801   3.779 -0.8299  0.0752 -2.6905
 1845TIP3   OH2 5498   5.536   3.025   5.743  0.2056  0.2292 -0.0063
 1845TIP3    H1 5499   5.474   2.953   5.757  0.1649  0.0035 -1.2848
 1845TIP3    H2 5500   5.544   3.066   5.829 -0.3701 -0.8195  0.5701
 1846TIP3   OH2 5501   1.596   1.399   1.159  0.1144  0.7567  0.5030
 1846TIP3    H1 5502   1.630   1.452   1.087 -1.5397  2.3750  0.8155
 1846TIP3    H2 5503   1.646   1.318   1.156  1.4461  1.5877 -1.2112
 1847TIP3   OH2 5504   6.817   0.276   4.237 -0.2343  0.0190 -0.1020
 1847TIP3    H1 5505   6.817   0.259   4.143  3.9460  1.3094 -0.5110
 1847TIP3    H2 5506   6.760   0.353   4.246 -0.3771  0.1382 -1.6488
 1848TIP3   OH2 5507   6.576   1.544   3.910  0.7314  0.0390  0.1054
 1848TIP3    H1 5508   6.594   1.621   3.856  0.7703 -2.3417 -3.6524
 1848TIP3    H2 5509   6.481   1.542   3.920  0.8342  1.4137  1.7540
 1849TIP3   OH2 5510   2.177   2.901   2.388 -0.4900  0.0198  0.6188
 1849TIP3    H1 5511   2.216   2.821   2.424 -1.1726 -0.7801 -0.3435
 1849TIP3    H2 5512   2.120   2.933   2.458  0.3956  0.1184  1.3058
 1850TIP3   OH2 5513   6.597   0.213   2.638 -0.7617  0.5633  0.1630
 1850TIP3    H1 5514   6.508   0.176   2.642 -0.4306 -0.1807  1.4019
 1850TIP3    H2 5515   6.650   0.150   2.686  0.5241  0.8094 -0.8933
 1851TIP3   OH2 5516   5.798   4.350   4.841 -1.0142  0.0464 -0.6084
 1851TIP3    H1 5517   5.710   4.368   4.809 -1.4175 -1.4993 -0.4595
 1851TIP3    H2 5518   5.793   4.261   4.876  0.6974 -0.2171 -0.9466
 1852TIP3   OH2 5519   3.522   4.147   1.273  0.1099  0.0590 -0.4542
 1852TIP3    H1 5520   3.536   4.120   1.183  0.2447 -1.6241  0.0373
 1852TIP3    H2 5521   3.434   4.116   1.294  0.0466  0.5104 -0.0206
 1853TIP3   OH2 5522   1.422   4.080   1.865 -0.0273 -0.3257 -0.2631
 1853TIP3    H1 5523   1.376   4.049   1.787 -0.8901  1.3869 -0.4922
 1853TIP3    H2 5524   1.409   4.011   1.930 -0.3485 -1.2204 -1.2495
 1854TIP3   OH2 5525   0.559   1.389   4.139  0.1904 -0.0282  0.3437
 1854TIP3    H1 5526   0.590   1.309   4.183  2.8034  1.6119  1.7625
 1854TIP3    H2 5527   0.633   1.416   4.085 -0.5380  1.6040  0.1305
 1855TIP3   OH2 5528   5.853   0.957   4.065  0.5433  0.6856  1.0300
 1855TIP3    H1 5529   5.835   1.041   4.022  1.7876 -0.1078 -1.2502
 1855TIP3    H2 5530   5.933   0.972   4.115 -0.2009  1.2806  2.0832
 1856TIP3   OH2 5531   6.678   3.650   1.136 -0.3205 -0.1312 -0.4077
 1856TIP3    H1 5532   6.768   3.650   1.170 -0.0027 -2.4998 -1.1270
 1856TIP3    H2 5533   6.624   3.659   1.215  0.4840 -2.2606  0.4513
 1857TIP3   OH2 5534   6.946   3.932   4.437  0.5421 -0.0844 -0.0150
 1857TIP3    H1 5535   6.886   3.864   4.468  1.0026  0.1788  1.5495
 1857TIP3    H2 5536   6.912   3.957   4.351 -0.5688 -1.1434  0.0911
 1858TIP3   OH2 5537   3.257   0.286   3.294 -0.8637 -0.4405 -0.0411
 1858TIP3    H1 5538   3.246   0.251   3.382 -0.8019  2.1066  1.0876
 1858TIP3    H2 5539   3.342   0.254   3.265 -0.4448 -0.5131  1.2356
 1859TIP3   OH2 5540   6.820   6.557   0.516  0.3441 -0.0960 -0.2956
 1859TIP3    H1 5541   6.747   6.580   0.459 -0.6366  0.1231  0.9983
 1859TIP3    H2 5542   6.857   6.641   0.542 -0.3211 -0.1092  0.7522
 1860TIP3   OH2 5543   3.822   6.544   3.401  0.5049 -0.3502 -0.0212
 1860TIP3    H1 5544   3.910   6.536   3.437  0.5201  0.1101  0.0554
 1860TIP3    H2 5545   3.823   6.629   3.357 -0.3078  0.2764  1.1236
 1861TIP3   OH2 5546   5.841   1.315   1.857  0.0869 -0.1914 -0.5143
 1861TIP3    H1 5547   5.828   1.233   1.810 -1.5545  0.4768 -1.3148
 1861TIP3    H2 5548   5.928   1.345   1.830 -0.0932 -0.7143 -1.7577
 1862TIP3   OH2 5549   7.113   0.348   5.684 -0.3062 -0.0375 -0.1709
 1862TIP3    H1 5550   7.201   0.319   5.711 -0.7602  0.8279  2.4320
 1862TIP3    H2 5551   7.130   0.420   5.623  0.7778  0.0177  0.1715
 1863TIP3   OH2 5552   3.842   1.802   1.263 -0.0003 -0.1938 -0.1954
 1863TIP3    H1 5553   3.875   1.727   1.313  0.7205  0.4513  0.3071
 1863TIP3    H2 5554   3.774   1.765   1.208  1.2991 -1.5114 -0.9922
 1864TIP3   OH2 5555   1.446   2.149   5.404 -0.4847  0.3650 -0.7627
 1864TIP3    H1 5556   1.533   2.117   5.431 -0.7039  0.2397 -0.1896
 1864TIP3    H2 5557   1.416   2.084   5.341 -0.0921  0.5007 -1.0990
 1865TIP3   OH2 5558   1.583   5.877   0.527  0.4862  0.2249  0.5039
 1865TIP3    H1 5559   1.536   5.808   0.574  0.1685 -0.5501 -0.8962
 1865TIP3    H2 5560   1.582   5.849   0.436  1.1310  1.6573  0.0249
 1866TIP3   OH2 5561   4.145   0.232   5.455  0.1463 -0.6181 -0.6073
 1866TIP3    H1 5562   4.085   0.161   5.433 -1.0471  0.5855 -1.4611
 1866TIP3    H2 5563   4.091   0.311   5.450  1.9250  0.6017 -2.0206
 1867TIP3   OH2 5564   5.081   4.770   3.132  0.2931  0.2224  0.2350
 1867TIP3    H1 5565   5.042   4.683   3.130  0.3282  0.1878  0.8027
 1867TIP3    H2 5566   5.038   4.814   3.206 -0.0430  0.8387 -0.3189
 1868TIP3   OH2 5567   4.190   2.059   1.750  0.1608 -0.8183 -0.2848
 1868TIP3    H1 5568   4.259   2.069   1.685  0.8437  0.6719  0.6462
 1868TIP3    H2 5569   4.111   2.089   1.706  0.6158  0.1546 -0.4433
 1869TIP3   OH2 5570   1.589   5.998   2.657  0.1859  0.3099 -0.3787
 1869TIP3    H1 5571   1.676   5.965   2.679  0.2083  1.5330  1.6764
 1869TIP3    H2 5572   1.606   6.081   2.613  0.1077  1.0837  0.9823
 1870TIP3   OH2 5573   5.520   2.143   0.462 -0.5842 -0.0775  0.3567
 1870TIP3    H1 5574   5.451   2.110   0.405  0.1618  1.2129 -1.3932
 1870TIP3    H2 5575   5.474   2.183   0.535 -1.6693  0.1142 -0.4185
 1871TIP3   OH2 5576   5.134   0.968   3.200 -0.3191  0.3383 -0.1130
 1871TIP3    H1 5577   5.040   0.983   3.198 -1.5962 -5.4014  0.8473
 1871TIP3    H2 5578   5.167   1.017   3.124 -4.3722  0.8714 -1.7879
 1872TIP3   OH2 5579   0.681   5.516   4.429 -0.5177 -0.0190 -0.1366
 1872TIP3    H1 5580   0.660   5.589   4.487  2.0005  0.2939  0.4824
 1872TIP3    H2 5581   0.743   5.462   4.478 -0.4631 -1.2793 -1.4918
 1873TIP3   OH2 5582   0.131   1.500   0.522 -0.2637  0.1035 -0.0400
 1873TIP3    H1 5583   0.089   1.527   0.440  0.9354  1.3124 -0.2998
 1873TIP3    H2 5584   0.225   1.513   0.506  0.3760 -3.4220  0.1623
 1874TIP3   OH2 5585   4.432   0.577   2.147  0.3372  0.6875  0.1669
 1874TIP3    H1 5586   4.354   0.546   2.194  1.0946  0.4851  1.3450
 1874TIP3    H2 5587   4.413   0.668   2.125 -0.5961  0.3675 -0.3851
 1875TIP3   OH2 5588   1.362   2.775   2.428  0.4408 -0.1489  0.3194
 1875TIP3    H1 5589   1.344   2.681   2.432  0.3572 -0.1452  0.0459
 1875TIP3    H2 5590   1.420   2.786   2.353  0.9045 -0.0505  0.6927
 1876TIP3   OH2 5591   0.462   5.287   4.444  0.0848 -0.9352  0.4026
 1876TIP3    H1 5592   0.540   5.301   4.498  0.5858 -0.7511 -0.3515
 1876TIP3    H2 5593   0.486   5.213   4.388 -0.3836 -1.0442  0.3445
 1877TIP3   OH2 5594   6.336   0.251   1.785 -0.2392  0.1219  0.0978
 1877TIP3    H1 5595   6.299   0.328   1.743 -0.0806  0.9451  1.4311
 1877TIP3    H2 5596   6.430   0.269   1.788 -0.2379  0.0220  0.6991
 1878TIP3   OH2 5597   5.596   6.533   1.296 -0.0320 -0.6861  0.3087
 1878TIP3    H1 5598   5.609   6.452   1.346  0.4908 -0.1133  1.1186
 1878TIP3    H2 5599   5.597   6.602   1.361  0.2820  0.0515 -0.4607
 1879TIP3   OH2 5600   2.532   0.691   3.030  0.3161 -0.0952  0.1836
 1879TIP3    H1 5601   2.547   0.629   3.102  1.1259 -0.7001 -0.4859
 1879TIP3    H2 5602   2.458   0.654   2.982 -0.6067  0.6110  1.0032
 1880TIP3   OH2 5603   3.910   4.224   4.347 -0.6981 -0.4884  0.0618
 1880TIP3    H1 5604   3.979   4.189   4.292  1.0815  1.1174  1.1350
 1880TIP3    H2 5605   3.886   4.308   4.306 -1.2292 -0.5135  0.3073
 1881TIP3   OH2 5606   2.391   4.665   2.665  0.6259  0.1000 -0.1472
 1881TIP3    H1 5607   2.456   4.601   2.697  1.1809  0.0700 -1.2769
 1881TIP3    H2 5608   2.429   4.750   2.688  0.8917  0.0733 -0.4815
 1882TIP3   OH2 5609   5.375   4.064   3.826 -0.0921 -0.4231  0.1024
 1882TIP3    H1 5610   5.279   4.057   3.819 -0.1019 -1.2537  0.9627
 1882TIP3    H2 5611   5.408   4.003   3.760 -0.1656 -1.2678  0.8374
 1883TIP3   OH2 5612   2.409   0.751   4.476 -0.5018 -0.0175  0.0734
 1883TIP3    H1 5613   2.399   0.666   4.517 -0.9112  0.0376  0.0934
 1883TIP3    H2 5614   2.501   0.775   4.491 -0.8008  0.3020  1.5485
 1884TIP3   OH2 5615   2.099   0.687   0.623  0.1872  0.0453 -0.3452
 1884TIP3    H1 5616   2.019   0.737   0.638  0.1658  0.2756 -1.2118
 1884TIP3    H2 5617   2.074   0.619   0.560  0.0348 -1.5405  1.3148
 1885TIP3   OH2 5618   6.622   3.203   3.464  0.5368  0.0482  0.0904
 1885TIP3    H1 5619   6.574   3.120   3.467 -0.2980  0.5242  0.1062
 1885TIP3    H2 5620   6.611   3.240   3.552 -1.7229  1.6159 -0.7668
 1886TIP3   OH2 5621   4.312   5.265   3.849 -0.1030  0.1946 -0.5989
 1886TIP3    H1 5622   4.220   5.257   3.823  0.2674 -0.2562 -1.8495
 1886TIP3    H2 5623   4.322   5.201   3.920 -0.7784  0.3135 -0.3914
 1887TIP3   OH2 5624   3.437   6.660   3.113  0.2465  0.2062  0.2963
 1887TIP3    H1 5625   3.393   6.587   3.069  1.0603 -1.0283  1.4393
 1887TIP3    H2 5626   3.393   6.667   3.197 -0.9781  2.2305 -0.4448
 1888TIP3   OH2 5627   5.711   0.589   5.634 -0.0753 -0.5722  0.3355
 1888TIP3    H1 5628   5.708   0.497   5.660 -0.4196 -0.4375  0.7893
 1888TIP3    H2 5629   5.770   0.591   5.559  3.7550 -0.4790  3.0431
 1889TIP3   OH2 5630   2.322   1.209   2.304 -0.3820 -0.3098  0.1470
 1889TIP3    H1 5631   2.340   1.300   2.325 -0.3592 -0.2766 -0.0131
 1889TIP3    H2 5632   2.242   1.211   2.251  0.8291 -0.1557 -1.7805
 1890TIP3   OH2 5633   1.781   0.695   4.938 -0.4816  0.2872  0.0551
 1890TIP3    H1 5634   1.757   0.603   4.925 -0.2064  0.3980 -1.4306
 1890TIP3    H2 5635   1.757   0.714   5.029  0.1427 -1.4533  0.6244
 1891TIP3   OH2 5636   1.228   4.373   3.224 -0.6272  0.5675 -0.2940
 1891TIP3    H1 5637   1.290   4.304   3.203 -0.5948  0.7389 -0.7876
 1891TIP3    H2 5638   1.177   4.339   3.298  1.8627  1.5067  2.0164
 1892TIP3   OH2 5639   2.896   2.455   0.549 -0.4156 -0.0554 -0.0176
 1892TIP3    H1 5640   2.919   2.368   0.582 -0.8007 -0.9268 -1.9107
 1892TIP3    H2 5641   2.814   2.442   0.503 -0.4505  1.3084 -0.3819
 1893TIP3   OH2 5642   6.195   0.180   4.953  0.3095  0.3097  0.4957
 1893TIP3    H1 5643   6.102   0.188   4.930  0.3236 -0.3005  0.2064
 1893TIP3    H2 5644   6.236   0.256   4.913 -0.0363  0.4781  0.4560
 1894TIP3   OH2 5645   4.946   1.549   4.136 -0.9232 -0.3033 -0.1894
 1894TIP3    H1 5646   4.917   1.477   4.192  3.3180 -2.2986 -0.1325
 1894TIP3    H2 5647   4.981   1.505   4.058 -0.3831  1.8890 -1.2650
 1895TIP3   OH2 5648   2.287   6.730   1.222 -0.1705  0.2529 -0.6283
 1895TIP3    H1 5649   2.217   6.717   1.287 -0.4568  2.1662 -0.4943
 1895TIP3    H2 5650   2.249   6.790   1.158  1.1574  0.8417 -0.8794
 1896TIP3   OH2 5651   0.668   3.429   2.018 -0.2382 -0.2757 -0.2166
 1896TIP3    H1 5652   0.729   3.500   2.036  1.5109 -1.6247 -0.5690
 1896TIP3    H2 5653   0.585   3.473   1.999  0.2846  1.5569  1.4776
 1897TIP3   OH2 5654   6.239   6.056   4.721  0.3228  0.2902 -0.0253
 1897TIP3    H1 5655   6.284   6.058   4.636  3.2278 -1.8513  1.2910
 1897TIP3    H2 5656   6.171   5.990   4.710  2.3112 -1.9087 -0.1218
 1898TIP3   OH2 5657   0.397   6.530   0.691 -0.6963 -0.0096 -0.4889
 1898TIP3    H1 5658   0.415   6.564   0.603 -1.1032 -0.3093 -0.6909
 1898TIP3    H2 5659   0.468   6.564   0.745  0.4863 -1.1341 -1.2667
 1899TIP3   OH2 5660   3.054   5.617   0.770  0.3112  0.4981 -1.0881
 1899TIP3    H1 5661   3.037   5.611   0.864 -1.0999 -0.3222 -1.3570
 1899TIP3    H2 5662   2.976   5.659   0.734  0.1497 -0.5363 -2.0470
 1900TIP3   OH2 5663   4.092   5.130   1.177 -0.4232  0.2629  0.3051
 1900TIP3    H1 5664   4.115   5.063   1.242  0.3217 -0.1917 -0.4052
 1900TIP3    H2 5665   4.175   5.150   1.133 -0.9025  0.5968 -0.4720
 1901TIP3   OH2 5666   5.327   4.064   1.871 -0.5586 -0.4039  0.7644
 1901TIP3    H1 5667   5.304   4.129   1.805  0.1479  0.7674  1.6342
 1901TIP3    H2 5668   5.285   3.984   1.841 -2.2292  0.6460  0.1299
 1902TIP3   OH2 5669   7.065   4.183   3.363  0.4054  0.1876 -0.0456
 1902TIP3    H1 5670   7.025   4.107   3.406 -0.4989  0.8398  0.3150
 1902TIP3    H2 5671   7.143   4.148   3.321  1.0463 -0.5866  1.6869
 1903TIP3   OH2 5672   4.948   3.108   1.684  0.1561 -0.1941  0.6094
 1903TIP3    H1 5673   4.985   3.021   1.696 -1.6851 -0.9831  0.8778
 1903TIP3    H2 5674   4.883   3.117   1.754 -2.2259 -0.0684 -1.4525
 1904TIP3   OH2 5675   5.681   6.687   5.509 -0.0399  0.2071 -0.1729
 1904TIP3    H1 5676   5.587   6.670   5.502  0.1139 -1.4049  0.8735
 1904TIP3    H2 5677   5.688   6.761   5.569 -0.6656  1.4749 -1.6164
 1905TIP3   OH2 5678   0.064   0.431   2.758  0.0754 -0.3791  0.1279
 1905TIP3    H1 5679   0.097   0.343   2.778 -1.3089 -0.8521  0.4279
 1905TIP3    H2 5680   0.140   0.477   2.722  1.0501 -1.4161  0.7860
 1906TIP3   OH2 5681   2.232   4.772   4.211 -0.1865  0.2711 -0.2173
 1906TIP3    H1 5682   2.320   4.756   4.177 -1.5055 -0.8388 -3.4711
 1906TIP3    H2 5683   2.176   4.713   4.161 -2.5199 -1.2163  3.7713
 1907TIP3   OH2 5684   0.288   3.678   4.216  0.5238 -0.4019  0.4835
 1907TIP3    H1 5685   0.239   3.637   4.144  1.8625  0.4955 -1.0231
 1907TIP3    H2 5686   0.228   3.676   4.290 -0.8297 -1.6232 -0.5808
 1908TIP3   OH2 5687   4.647   6.532   0.056  0.1446 -0.0751 -0.2832
 1908TIP3    H1 5688   4.575   6.578   0.013  0.7591 -0.1302 -1.4327
 1908TIP3    H2 5689   4.606   6.477   0.122 -0.8901 -0.3814 -1.1664
 1909TIP3   OH2 5690   1.319   4.639   0.396  0.0533 -0.3132  0.2275
 1909TIP3    H1 5691   1.323   4.719   0.344  1.4684 -1.0323 -0.8389
 1909TIP3    H2 5692   1.308   4.670   0.486 -1.7416  0.9707 -0.3781
 1910TIP3   OH2 5693   0.996   3.952   0.703  0.5453 -0.5016  0.0662
 1910TIP3    H1 5694   0.905   3.981   0.711  0.6573  0.1930 -1.0478
 1910TIP3    H2 5695   0.993   3.858   0.721 -0.1614 -0.2314  1.4853
 1911TIP3   OH2 5696   2.274   5.496   5.390 -0.8301 -0.3147  0.3395
 1911TIP3    H1 5697   2.180   5.495   5.376 -0.9196  2.3023  0.2152
 1911TIP3    H2 5698   2.311   5.461   5.308 -1.6624 -0.6897  0.1161
 1912TIP3   OH2 5699   2.745   3.097   3.119 -0.3469  0.0223  0.1214
 1912TIP3    H1 5700   2.811   3.152   3.162  0.9075 -1.8588  0.7051
 1912TIP3    H2 5701   2.791   3.015   3.099 -2.4957 -1.3415  0.4972
 1913TIP3   OH2 5702   3.001   4.598   5.508 -0.5079 -0.1289  0.1889
 1913TIP3    H1 5703   2.943   4.538   5.554 -2.0644  1.0462 -0.1583
 1913TIP3    H2 5704   3.081   4.599   5.561  0.2724 -3.7328 -0.7099
 1914TIP3   OH2 5705   0.436   2.046   0.644 -1.1216  0.0150 -0.1092
 1914TIP3    H1 5706   0.411   2.136   0.622 -0.2167  1.1458  2.9658
 1914TIP3    H2 5707   0.357   2.007   0.680 -2.2797 -1.4615 -3.7745
 1915TIP3   OH2 5708   3.282   1.384   5.011 -0.5595  0.3097 -0.0806
 1915TIP3    H1 5709   3.325   1.371   5.096 -0.0316  1.1625 -0.2000
 1915TIP3    H2 5710   3.268   1.296   4.978  0.4606 -0.0189  0.3000
 1916TIP3   OH2 5711   5.775   6.253   4.735 -0.4992 -0.0648 -0.2806
 1916TIP3    H1 5712   5.811   6.179   4.687  1.0802 -0.0609  0.8057
 1916TIP3    H2 5713   5.845   6.319   4.734 -1.0250  0.5362  0.6687
 1917TIP3   OH2 5714   2.060   6.321   3.913 -0.1376  0.2110  0.1204
 1917TIP3    H1 5715   2.022   6.294   3.829  0.0324  1.5798 -0.4322
 1917TIP3    H2 5716   1.991   6.373   3.955  0.4154  1.1100 -0.0363
 1918TIP3   OH2 5717   4.549   5.856   5.457 -0.1654 -0.4616  0.4588
 1918TIP3    H1 5718   4.491   5.932   5.449  2.9776  2.1316 -0.0032
 1918TIP3    H2 5719   4.565   5.847   5.550 -0.6938 -0.7153  0.5295
 1919TIP3   OH2 5720   5.209   1.192   4.290 -0.0926  0.3912 -0.5679
 1919TIP3    H1 5721   5.163   1.118   4.251  0.5088 -1.0792  1.3543
 1919TIP3    H2 5722   5.191   1.186   4.383  2.0561  1.1190 -0.0301
 1920TIP3   OH2 5723   2.611   2.258   2.852  0.6379 -0.0072  0.1096
 1920TIP3    H1 5724   2.542   2.195   2.869 -0.6574  0.9985 -1.0921
 1920TIP3    H2 5725   2.621   2.257   2.757  2.3383 -0.1563  0.2615
 1921TIP3   OH2 5726   4.581   6.585   3.303 -0.3491 -0.1406 -0.0155
 1921TIP3    H1 5727   4.635   6.588   3.382 -1.1915 -1.1160  0.6121
 1921TIP3    H2 5728   4.644   6.594   3.231  0.3626  1.4788  0.7521
 1922TIP3   OH2 5729   1.278   3.190   5.061  0.0563 -0.2561 -0.4954
 1922TIP3    H1 5730   1.227   3.250   5.116 -1.6300 -0.6031 -1.5863
 1922TIP3    H2 5731   1.368   3.203   5.088 -0.4711  1.3769  0.6239
 1923TIP3   OH2 5732   1.547   1.377   4.618 -0.0499 -0.1070  0.1523
 1923TIP3    H1 5733   1.630   1.362   4.572 -0.7725  1.4878 -1.8009
 1923TIP3    H2 5734   1.507   1.290   4.623  1.6003 -0.8648  0.9413
 1924TIP3   OH2 5735   3.904   5.885   2.656  0.1318 -0.8110 -0.2016
 1924TIP3    H1 5736   3.936   5.896   2.567 -1.2097  0.3163 -0.5692
 1924TIP3    H2 5737   3.945   5.956   2.705 -0.3816 -0.4617 -0.2761
 1925TIP3   OH2 5738   3.895   3.559   0.207  0.1753  0.5414 -0.3390
 1925TIP3    H1 5739   3.877   3.493   0.140 -0.9125  0.0183  0.4413
 1925TIP3    H2 5740   3.970   3.524   0.256  1.6473  1.4057 -1.8659
 1926TIP3   OH2 5741   2.104   1.356   5.856 -0.3952  0.3079  0.3691
 1926TIP3    H1 5742   2.180   1.344   5.799 -1.2019  2.7972 -1.4237
 1926TIP3    H2 5743   2.059   1.272   5.855 -0.1395  0.1161 -2.4229
 1927TIP3   OH2 5744   5.967   2.286   2.789 -0.0820  0.2971  0.3825
 1927TIP3    H1 5745   5.919   2.216   2.833 -0.3695  0.3085  0.0901
 1927TIP3    H2 5746   6.048   2.295   2.839  0.5809 -1.1656 -0.3440
 1928TIP3   OH2 5747   5.766   0.367   3.387  0.0513  0.1555  0.0631
 1928TIP3    H1 5748   5.729   0.290   3.343 -1.4186  0.4547  0.7137
 1928TIP3    H2 5749   5.690   0.424   3.403  1.1366  1.8291 -0.5582
 1929TIP3   OH2 5750   2.035   3.795   3.874  0.6313  0.2163 -0.5232
 1929TIP3    H1 5751   2.039   3.819   3.781  0.2604 -1.2540 -0.9466
 1929TIP3    H2 5752   2.099   3.852   3.917  0.4959  1.2144 -1.6093
 1930TIP3   OH2 5753   5.288   2.854   4.059  0.1343 -0.0408 -0.4764
 1930TIP3    H1 5754   5.302   2.761   4.080  1.8732  0.0412 -1.0346
 1930TIP3    H2 5755   5.242   2.890   4.135 -1.2816 -1.5064 -0.5868
 1931TIP3   OH2 5756   5.997   5.985   5.071  0.0282 -0.5280 -0.0770
 1931TIP3    H1 5757   5.925   5.970   5.010 -0.1325  1.1568 -0.3267
 1931TIP3    H2 5758   6.056   5.910   5.057  0.5852  0.3505 -3.1368
 1932TIP3   OH2 5759   2.130   5.393   0.828  0.6509 -0.7135 -0.7366
 1932TIP3    H1 5760   2.196   5.461   0.839  1.0084 -0.8970 -1.6307
 1932TIP3    H2 5761   2.092   5.410   0.742 -2.1158  0.7729  0.6562
 1933TIP3   OH2 5762   5.386   5.657   5.345 -0.4718  0.0889 -0.4851
 1933TIP3    H1 5763   5.315   5.715   5.371 -1.3200 -1.6995  1.4942
 1933TIP3    H2 5764   5.362   5.625   5.259 -0.2844  2.1318 -1.3448
 1934TIP3   OH2 5765   5.804   0.250   3.736  0.0135  0.1612 -0.0528
 1934TIP3    H1 5766   5.863   0.323   3.752  0.3934 -0.0437 -0.5065
 1934TIP3    H2 5767   5.862   0.178   3.711 -0.3861 -0.1970  0.0449
 1935TIP3   OH2 5768   1.061   3.393   1.223  0.4792  0.0521 -0.0477
 1935TIP3    H1 5769   1.123   3.321   1.217  0.3347 -0.1100  0.3708
 1935TIP3    H2 5770   0.993   3.361   1.282  0.3717  0.4998  0.0722
 1936TIP3   OH2 5771   6.690   5.733   2.123  0.0489 -0.2228  0.1938
 1936TIP3    H1 5772   6.721   5.823   2.115  1.8839 -0.7926  0.4968
 1936TIP3    H2 5773   6.721   5.690   2.044  1.1663 -1.1012  1.0690
 1937TIP3   OH2 5774   5.852   5.839   4.216  0.6705 -0.7053  0.2021
 1937TIP3    H1 5775   5.797   5.842   4.137  1.5368  0.6396 -0.3722
 1937TIP3    H2 5776   5.872   5.930   4.235  1.6705 -1.1063  1.1451
 1938TIP3   OH2 5777   6.944   6.451   1.656  0.4116  0.0966  0.2939
 1938TIP3    H1 5778   6.961   6.362   1.687 -0.6148 -1.5089 -3.3316
 1938TIP3    H2 5779   7.029   6.494   1.659  0.5962 -0.1773  4.0097
 1939TIP3   OH2 5780   2.165   2.112   1.010  0.2663 -0.4820  0.2332
 1939TIP3    H1 5781   2.123   2.089   0.927 -0.6903  0.6131  0.3823
 1939TIP3    H2 5782   2.140   2.204   1.025  1.7361 -0.1738  0.9489
 1940TIP3   OH2 5783   3.044   6.637   3.963  0.1023 -0.1645  0.4600
 1940TIP3    H1 5784   3.129   6.644   4.007  0.1007 -0.2415  0.4746
 1940TIP3    H2 5785   2.984   6.688   4.019  0.5772  1.7708 -0.6841
 1941TIP3   OH2 5786   6.396   5.609   1.767 -0.1412  0.0545 -0.2383
 1941TIP3    H1 5787   6.328   5.551   1.733  0.1900  0.0175 -0.8527
 1941TIP3    H2 5788   6.467   5.601   1.704  1.2188 -1.3917  1.3875
 1942TIP3   OH2 5789   6.887   3.776   0.665  0.2270 -0.0905  0.3871
 1942TIP3    H1 5790   6.969   3.733   0.690 -0.1425 -0.7096  0.5737
 1942TIP3    H2 5791   6.850   3.809   0.747  0.1226 -0.1260  0.3557
 1943TIP3   OH2 5792   3.914   4.611   0.693  0.1386 -0.1148 -0.0706
 1943TIP3    H1 5793   3.831   4.600   0.646  1.7110 -1.0792 -2.8949
 1943TIP3    H2 5794   3.924   4.706   0.701 -1.6462  0.0216  1.2832
 1944TIP3   OH2 5795   5.884   5.614   5.254  0.1288 -0.2795 -0.2943
 1944TIP3    H1 5796   5.859   5.527   5.221  1.3466  0.1861 -2.6867
 1944TIP3    H2 5797   5.979   5.610   5.263  0.1812  0.7430 -0.2497
 1945TIP3   OH2 5798   5.231   0.671   0.237  0.3148 -0.6098 -0.0766
 1945TIP3    H1 5799   5.271   0.637   0.156 -0.1242  0.9053 -0.9582
 1945TIP3    H2 5800   5.162   0.608   0.257  1.0037 -1.4921 -0.3592
 1946TIP3   OH2 5801   6.588   2.751   2.070  0.4766  0.1408 -0.7753
 1946TIP3    H1 5802   6.636   2.810   2.129  0.4300  0.3287 -0.9235
 1946TIP3    H2 5803   6.555   2.682   2.128  0.1013  0.5307 -0.5167
 1947TIP3   OH2 5804   3.197   5.327   2.990 -0.5350 -0.4344  0.7285
 1947TIP3    H1 5805   3.147   5.350   2.911 -0.6980 -0.2799  0.8762
 1947TIP3    H2 5806   3.262   5.264   2.959 -1.1514 -1.0367  0.6238
 1948TIP3   OH2 5807   6.470   3.846   2.311  0.0949  0.0834 -0.1441
 1948TIP3    H1 5808   6.481   3.791   2.233  0.8227 -0.3000  0.2124
 1948TIP3    H2 5809   6.447   3.784   2.380 -0.0948  0.3648  0.0455
 1949TIP3   OH2 5810   6.982   5.016   5.178 -0.8664  0.0873  0.4618
 1949TIP3    H1 5811   6.987   5.011   5.273  0.4879  0.8094  0.4590
 1949TIP3    H2 5812   7.071   5.039   5.150 -1.1961 -0.2640 -0.9887
 1950TIP3   OH2 5813   0.027   6.667   1.742  0.1333 -0.1705 -0.2801
 1950TIP3    H1 5814   0.049   6.760   1.740  2.1956 -0.4423  2.6598
 1950TIP3    H2 5815  -0.031   6.658   1.818  1.2453 -1.4611  0.4532
 1951TIP3   OH2 5816   1.133   0.580   3.659  1.1171  0.3597 -0.2107
 1951TIP3    H1 5817   1.177   0.628   3.589  2.8486 -0.0450  0.5566
 1951TIP3    H2 5818   1.201   0.527   3.699 -0.5203 -2.0579 -0.3959
 1952TIP3   OH2 5819   0.980   6.446   4.327  0.5716  0.2071 -0.2770
 1952TIP3    H1 5820   0.965   6.357   4.295  0.7646  0.5838 -1.4620
 1952TIP3    H2 5821   0.916   6.457   4.398  1.1999 -1.1931  0.5529
 1953TIP3   OH2 5822   3.320   4.635   4.774 -0.2603  0.0176  0.0154
 1953TIP3    H1 5823   3.295   4.674   4.858  0.6983  0.1551  0.2574
 1953TIP3    H2 5824   3.333   4.710   4.716 -2.2010 -0.1268 -0.6608
 1954TIP3   OH2 5825   2.119   5.650   2.066  0.1815 -0.2463  0.1530
 1954TIP3    H1 5826   2.211   5.669   2.084 -0.0747  1.1045  0.1450
 1954TIP3    H2 5827   2.075   5.657   2.151 -0.3543  2.0154 -0.2470
 1955TIP3   OH2 5828   2.558   4.083   0.387 -0.4286  0.5563  0.3948
 1955TIP3    H1 5829   2.615   4.028   0.442 -1.0718  0.1632  0.6869
 1955TIP3    H2 5830   2.542   4.161   0.441 -0.7773  0.3259  0.6294
 1956TIP3   OH2 5831   1.392   3.744   5.841  0.7160  0.1168 -0.9167
 1956TIP3    H1 5832   1.320   3.699   5.886 -0.1543  1.0815 -1.3111
 1956TIP3    H2 5833   1.471   3.702   5.875  0.0791  0.5215  1.2058
 1957TIP3   OH2 5834   3.662   1.438   0.801 -0.2429  0.0205 -0.4447
 1957TIP3    H1 5835   3.631   1.504   0.739 -0.8163 -0.0359 -0.2242
 1957TIP3    H2 5836   3.749   1.469   0.826 -1.7985  2.7587  2.4054
 1958TIP3   OH2 5837   5.228   0.549   4.546 -0.4085  0.0218  0.1115
 1958TIP3    H1 5838   5.262   0.464   4.574 -0.0593  0.2702  0.4585
 1958TIP3    H2 5839   5.296   0.611   4.571 -0.8940  0.4672  0.3428
 1959TIP3   OH2 5840   2.069   5.339   1.241 -0.1991 -0.3807 -0.2692
 1959TIP3    H1 5841   2.027   5.258   1.267 -0.7025 -0.5589 -1.5542
 1959TIP3    H2 5842   2.098   5.379   1.323 -1.5394 -0.9854  0.5341
 1960TIP3   OH2 5843   6.554  -0.017   3.711 -0.1324  0.3042  0.2318
 1960TIP3    H1 5844   6.638   0.022   3.685 -1.1035  1.8377 -0.7480
 1960TIP3    H2 5845   6.551  -0.005   3.806  0.2135  1.4080  0.1208
 1961TIP3   OH2 5846   1.263   0.567   1.098 -0.0903  0.1366  0.2017
 1961TIP3    H1 5847   1.286   0.500   1.162 -1.9719  0.7447  1.6119
 1961TIP3    H2 5848   1.219   0.635   1.150  0.1425  1.6143 -1.4533
 1962TIP3   OH2 5849   3.165   2.723   2.643 -0.0098 -0.1626 -0.6826
 1962TIP3    H1 5850   3.244   2.693   2.599  1.7406 -0.5568  2.4281
 1962TIP3    H2 5851   3.094   2.674   2.602  1.8982 -3.0840 -0.7315
 1963TIP3   OH2 5852   6.377   4.699   4.789 -0.4825 -0.2420  0.2025
 1963TIP3    H1 5853   6.390   4.639   4.862  0.5416 -1.5434 -1.0036
 1963TIP3    H2 5854   6.296   4.669   4.747 -0.1743 -0.5663 -0.1724
 1964TIP3   OH2 5855   0.441   5.966   3.211 -0.0764  0.0196  0.4663
 1964TIP3    H1 5856   0.524   5.919   3.200 -0.2685 -0.1298 -0.3942
 1964TIP3    H2 5857   0.459   6.054   3.178 -0.6650 -0.4398 -1.1796
 1965TIP3   OH2 5858   6.320   5.021   4.278 -0.4753  0.4323  0.4087
 1965TIP3    H1 5859   6.388   4.973   4.232 -2.0818  0.2202 -1.8806
 1965TIP3    H2 5860   6.247   4.959   4.284 -1.2502  1.3613  0.8393
 1966TIP3   OH2 5861   5.662   2.577   4.765  0.6764 -0.2536  0.3010
 1966TIP3    H1 5862   5.665   2.618   4.852  0.4197  0.8376 -0.1904
 1966TIP3    H2 5863   5.612   2.497   4.779  0.9934 -0.3060  1.2431
 1967TIP3   OH2 5864   6.821   1.683   1.821 -0.2843 -0.4545 -0.3030
 1967TIP3    H1 5865   6.843   1.758   1.876  0.7420  0.3629 -1.7598
 1967TIP3    H2 5866   6.805   1.612   1.883 -0.9648  0.8646  1.1028
 1968TIP3   OH2 5867   0.712   1.947   5.261 -0.2131 -0.0395 -0.7454
 1968TIP3    H1 5868   0.640   1.932   5.200 -1.4235  1.1632  0.3215
 1968TIP3    H2 5869   0.669   1.974   5.342  1.4933  2.1265 -0.4786
 1969TIP3   OH2 5870   0.831   1.666   0.314 -0.3242 -0.5885 -0.4474
 1969TIP3    H1 5871   0.776   1.612   0.257  0.6484 -1.1472 -0.8672
 1969TIP3    H2 5872   0.911   1.681   0.264  0.0897 -0.1389  0.3272
 1970TIP3   OH2 5873   5.183   4.614   5.304  0.0639  0.0427  0.5146
 1970TIP3    H1 5874   5.137   4.696   5.323  0.9655  0.8686 -0.6491
 1970TIP3    H2 5875   5.204   4.577   5.389  0.8182  1.7278  1.1093
 1971TIP3   OH2 5876   5.786   5.151   0.413 -0.6552  0.3858 -0.0710
 1971TIP3    H1 5877   5.874   5.188   0.418 -0.3242  0.0229 -2.3316
 1971TIP3    H2 5878   5.732   5.211   0.465 -0.0142  3.8214 -3.0060
 1972TIP3   OH2 5879   4.307   4.105   2.194  0.1200  0.1943  0.0749
 1972TIP3    H1 5880   4.402   4.095   2.190  0.0364 -1.3878  0.9057
 1972TIP3    H2 5881   4.279   4.041   2.260 -1.3467  1.9683  1.2981
 1973TIP3   OH2 5882   1.903   0.109   4.141  0.1014 -0.7634 -0.3736
 1973TIP3    H1 5883   1.898   0.155   4.057  0.2825 -1.3409 -0.7069
 1973TIP3    H2 5884   1.865   0.023   4.123  1.2338 -1.3179 -0.1683
 1974TIP3   OH2 5885   3.933   6.126   5.229  0.2362 -0.0815 -0.1465
 1974TIP3    H1 5886   3.966   6.078   5.305  1.0321  0.7865  0.0789
 1974TIP3    H2 5887   3.933   6.218   5.257 -1.5207  0.0509 -0.4622
 1975TIP3   OH2 5888   1.116   3.014   4.927 -0.3605 -0.0053  0.0577
 1975TIP3    H1 5889   1.113   3.066   4.847 -1.5734 -1.2549 -0.7400
 1975TIP3    H2 5890   1.167   3.068   4.988 -0.3730  1.4717 -1.1730
 1976TIP3   OH2 5891   0.501   1.669   4.752 -0.0753  0.1586 -0.3497
 1976TIP3    H1 5892   0.563   1.693   4.820 -0.4160 -2.1696  0.9009
 1976TIP3    H2 5893   0.550   1.675   4.670  0.8704  1.2631  0.2810
 1977TIP3   OH2 5894   6.593   1.707   2.703  0.5891  0.1035 -0.5039
 1977TIP3    H1 5895   6.595   1.624   2.751 -0.9980 -0.7584 -1.8078
 1977TIP3    H2 5896   6.502   1.735   2.707  0.8726  1.1703 -1.0950
 1978TIP3   OH2 5897   3.646   2.299   5.355 -0.2393 -0.0513  0.5593
 1978TIP3    H1 5898   3.602   2.225   5.313 -0.7020  0.5033  0.0477
 1978TIP3    H2 5899   3.644   2.369   5.289 -0.2480  0.5768  1.2084
 1979TIP3   OH2 5900   5.600   2.054   2.830 -0.3988 -0.0496 -0.2128
 1979TIP3    H1 5901   5.688   2.020   2.843 -0.1570  0.9960  1.1112
 1979TIP3    H2 5902   5.543   1.977   2.831  0.4023 -0.6492 -0.2299
 1980TIP3   OH2 5903   2.133   5.707   4.580 -0.3485  0.2418  0.2269
 1980TIP3    H1 5904   2.152   5.660   4.499  0.2886  1.1835 -0.1854
 1980TIP3    H2 5905   2.121   5.798   4.553 -1.2999  0.3799  1.0441
 1981TIP3   OH2 5906   6.146   3.490   1.687 -0.7352 -0.1696  0.1682
 1981TIP3    H1 5907   6.159   3.401   1.717 -1.2345 -0.1256  0.5040
 1981TIP3    H2 5908   6.126   3.541   1.765  0.9570  0.5258  0.2100
 1982TIP3   OH2 5909   1.747   6.772   0.042 -0.4503  0.5738 -0.3683
 1982TIP3    H1 5910   1.681   6.747   0.107 -0.4694  1.4171 -0.0506
 1982TIP3    H2 5911   1.816   6.815   0.092  1.0589 -1.5361 -0.4983
 1983TIP3   OH2 5912   0.282   5.486   4.369  0.0225 -0.0106 -0.2573
 1983TIP3    H1 5913   0.337   5.562   4.350 -0.4430  0.4521  0.2095
 1983TIP3    H2 5914   0.342   5.423   4.411  0.2668  0.3628 -0.0363
 1984TIP3   OH2 5915   5.829   3.012   0.665  0.0128 -0.1838  0.3571
 1984TIP3    H1 5916   5.895   2.943   0.657  0.6305  0.1892  1.8644
 1984TIP3    H2 5917   5.753   2.968   0.702 -0.0407 -0.3078  0.1002
 1985TIP3   OH2 5918   2.263   6.028   1.234 -0.6852 -0.6481  0.0418
 1985TIP3    H1 5919   2.275   6.060   1.323 -0.1728 -0.4466 -0.0918
 1985TIP3    H2 5920   2.197   5.960   1.241  0.4249 -1.6913  0.8317
 1986TIP3   OH2 5921   2.095   1.403   2.458 -0.0468  0.3145  0.2812
 1986TIP3    H1 5922   2.184   1.416   2.492  0.0858 -1.0605  0.5212
 1986TIP3    H2 5923   2.089   1.308   2.442 -1.2132  0.4924 -0.4621
 1987TIP3   OH2 5924   4.030   3.981   2.401  0.5111 -0.3388 -0.1780
 1987TIP3    H1 5925   4.122   3.958   2.396  0.8940  0.6163  1.7443
 1987TIP3    H2 5926   3.991   3.913   2.456  0.5112  0.4121  0.7706
 1988TIP3   OH2 5927   4.858   2.389   0.078 -0.2931  0.2891 -0.2358
 1988TIP3    H1 5928   4.935   2.405   0.023 -0.8656  2.5687 -0.4913
 1988TIP3    H2 5929   4.797   2.459   0.054 -1.2789  0.2806  2.0130
 1989TIP3   OH2 5930   1.959   2.753   4.436  0.5804  0.4901  0.3121
 1989TIP3    H1 5931   2.034   2.804   4.404  2.3500 -1.7762  0.5668
 1989TIP3    H2 5932   1.956   2.771   4.530 -0.1848  1.7364  0.0701
 1990TIP3   OH2 5933   1.905   4.304   3.502 -0.0816 -0.1673  0.4101
 1990TIP3    H1 5934   1.984   4.327   3.452 -0.7993  0.5152 -0.4653
 1990TIP3    H2 5935   1.894   4.210   3.488  1.3977 -0.5899  1.7937
 1991TIP3   OH2 5936   0.922   6.628   3.935  0.2052  0.0929 -0.0053
 1991TIP3    H1 5937   0.877   6.561   3.988  3.0302 -1.4643  0.6627
 1991TIP3    H2 5938   0.886   6.617   3.847 -0.8465 -0.9361  0.5189
 1992TIP3   OH2 5939   6.387   4.697   5.861  0.2477 -0.4745 -0.8426
 1992TIP3    H1 5940   6.309   4.642   5.872  0.3092 -0.5143 -0.6093
 1992TIP3    H2 5941   6.365   4.780   5.903  0.8172 -0.9408  0.4083
 1993TIP3   OH2 5942   4.796   4.595   4.934  0.9398  0.0721  1.0597
 1993TIP3    H1 5943   4.754   4.525   4.884 -0.0252  2.0407 -1.0962
 1993TIP3    H2 5944   4.859   4.633   4.873  0.3650  2.0125  1.6138
 1994TIP3   OH2 5945   2.310  -0.001   4.990  0.0110 -0.0068 -0.9360
 1994TIP3    H1 5946   2.303   0.089   5.021  1.3094  0.2130 -1.2542
 1994TIP3    H2 5947   2.333  -0.052   5.068 -1.6879 -0.2488 -0.5461
 1995TIP3   OH2 5948   5.263   5.293   2.745  0.6505  0.5424 -0.9631
 1995TIP3    H1 5949   5.185   5.245   2.719  1.3369 -0.0678 -1.9714
 1995TIP3    H2 5950   5.299   5.244   2.819 -0.2738  1.2096 -0.0481
 1996TIP3   OH2 5951   2.972   1.702   0.999 -0.1287 -0.2973 -0.6252
 1996TIP3    H1 5952   2.991   1.624   1.052  0.0071  0.2023  0.0688
 1996TIP3    H2 5953   3.033   1.768   1.032  0.3541 -0.1382 -1.7913
 1997TIP3   OH2 5954   5.227   3.915   4.728 -0.0006  0.4937  0.4278
 1997TIP3    H1 5955   5.256   3.857   4.798  0.3492 -0.3844 -0.4152
 1997TIP3    H2 5956   5.293   3.984   4.724 -0.0704  0.5926  1.0120
 1998TIP3   OH2 5957   7.234   1.503   0.792 -0.1677  0.6063  0.5382
 1998TIP3    H1 5958   7.151   1.548   0.809 -0.7390 -0.0569 -0.3783
 1998TIP3    H2 5959   7.232   1.485   0.698 -0.1096 -1.5768  0.9129
 1999TIP3   OH2 5960   6.245   2.224   1.299  0.0478  0.1311 -0.5026
 1999TIP3    H1 5961   6.291   2.308   1.299  2.7278 -1.2367 -0.7569
 1999TIP3    H2 5962   6.241   2.198   1.391  0.5458 -0.1062 -0.5423
 2000TIP3   OH2 5963   2.141   2.427   3.911  0.4351 -0.1592 -0.3604
 2000TIP3    H1 5964   2.087   2.349   3.925  3.5035 -2.2640  1.0027
 2000TIP3    H2 5965   2.140   2.472   3.996 -2.5957  2.3794 -1.5556
 2001TIP3   OH2 5966   3.693   2.647   1.492  0.4654 -0.0831  0.3780
 2001TIP3    H1 5967   3.717   2.644   1.585  0.8231 -1.5185  0.2669
 2001TIP3    H2 5968   3.598   2.640   1.492  0.5461 -1.6348  0.6231
 2002TIP3   OH2 5969   5.856   5.835   2.407  1.1334  0.0100 -0.4715
 2002TIP3    H1 5970   5.840   5.758   2.352  1.2254 -0.5329  0.2450
 2002TIP3    H2 5971   5.776   5.886   2.402  1.1443 -0.0288 -1.1125
 2003TIP3   OH2 5972   2.926   5.967   0.125 -0.3038 -0.7383 -0.0131
 2003TIP3    H1 5973   2.841   5.989   0.088 -1.0159 -1.8848  0.8503
 2003TIP3    H2 5974   2.975   5.928   0.052  0.3073  1.8306 -1.0624
 2004TIP3   OH2 5975   3.338   3.157   2.885 -0.6256 -0.0418 -0.1598
 2004TIP3    H1 5976   3.300   3.163   2.797  0.6741 -0.6883 -0.7971
 2004TIP3    H2 5977   3.430   3.181   2.873 -0.2304 -0.9465  0.8704
 2005TIP3   OH2 5978   2.674   2.255   3.864 -0.2237 -0.7006 -0.1058
 2005TIP3    H1 5979   2.690   2.278   3.956 -1.1891  1.3570 -0.4011
 2005TIP3    H2 5980   2.579   2.257   3.855 -0.1023  1.6966 -1.7113
 2006TIP3   OH2 5981   4.463   0.441   0.561  0.5863 -0.5082  0.1475
 2006TIP3    H1 5982   4.460   0.498   0.639 -0.5863  0.9357 -0.8889
 2006TIP3    H2 5983   4.417   0.362   0.587 -1.7145  0.8197  0.3291
 2007TIP3   OH2 5984   1.589   0.858   2.023  0.0456  0.4307  0.1235
 2007TIP3    H1 5985   1.534   0.783   2.047 -0.0278  0.6070  0.5107
 2007TIP3    H2 5986   1.582   0.863   1.928 -1.6530  1.2377  0.2447
 2008TIP3   OH2 5987   6.951   2.751   3.407 -0.0014 -0.1377 -0.2433
 2008TIP3    H1 5988   6.928   2.813   3.338  1.3665 -0.0762 -0.6863
 2008TIP3    H2 5989   6.984   2.806   3.479 -1.5444 -0.1896  0.5505
 2009TIP3   OH2 5990   6.341   2.457   0.469  0.2777  0.2908 -0.1275
 2009TIP3    H1 5991   6.387   2.517   0.528  1.0143  0.9962 -1.3841
 2009TIP3    H2 5992   6.388   2.464   0.386  1.1480 -2.8952 -0.0460
 2010TIP3   OH2 5993   1.836   4.368   4.184 -0.0668 -0.5139 -0.3663
 2010TIP3    H1 5994   1.796   4.432   4.244 -0.3097 -2.0784  1.2287
 2010TIP3    H2 5995   1.812   4.399   4.097 -3.9716 -0.7941  0.4235
 2011TIP3   OH2 5996   2.148   4.553   0.425  0.1179 -0.3524  0.2803
 2011TIP3    H1 5997   2.069   4.534   0.374  1.5854 -0.7681 -2.0074
 2011TIP3    H2 5998   2.189   4.626   0.378  1.5220 -0.7171  0.8881
 2012TIP3   OH2 5999   3.081   0.083   0.866  0.4810  0.4698  0.4120
 2012TIP3    H1 6000   3.011   0.084   0.801  0.4448 -0.4085  0.4289
 2012TIP3    H2 6001   3.161   0.093   0.815  0.4059  0.5165  0.3027
 2013TIP3   OH2 6002   5.305   5.119   0.263  0.7298  0.4222  0.2847
 2013TIP3    H1 6003   5.246   5.112   0.188 -0.5579  0.6346  1.2279
 2013TIP3    H2 6004   5.356   5.198   0.246  0.1265  0.7301 -0.1630
 2014TIP3   OH2 6005   3.415   6.758   1.059 -0.0534  0.3230 -0.1472
 2014TIP3    H1 6006   3.404   6.840   1.107  0.1549 -0.9285  2.1611
 2014TIP3    H2 6007   3.336   6.751   1.006 -0.1719  1.8896 -0.2340
 2015TIP3   OH2 6008   6.345   3.958   5.171 -0.3750 -0.2347 -0.4243
 2015TIP3    H1 6009   6.280   3.888   5.174 -0.2798 -0.2732  2.0292
 2015TIP3    H2 6010   6.349   3.992   5.260  0.5676  2.0165 -1.2545
 2016TIP3   OH2 6011   2.328   2.671   0.693 -0.1355  0.2577 -0.1141
 2016TIP3    H1 6012   2.274   2.698   0.768  0.4025  1.3468 -0.0975
 2016TIP3    H2 6013   2.278   2.696   0.616 -0.5938 -0.6694 -0.1264
 2017TIP3   OH2 6014   1.544   0.797   3.276 -0.2701  0.4845 -0.2478
 2017TIP3    H1 6015   1.512   0.713   3.243  1.7475 -1.0046  1.3069
 2017TIP3    H2 6016   1.633   0.804   3.241  0.3019  0.9835  1.2468
 2018TIP3   OH2 6017   1.737   1.526   3.366 -1.1251  0.1630  0.2394
 2018TIP3    H1 6018   1.832   1.510   3.368 -1.0751  0.4752  1.3394
 2018TIP3    H2 6019   1.703   1.472   3.438 -1.7644  0.1660 -0.0540
 2019TIP3   OH2 6020   2.014   3.402   3.676  0.3273  0.8068  0.1996
 2019TIP3    H1 6021   2.041   3.450   3.598  1.0616 -0.1834 -0.1693
 2019TIP3    H2 6022   2.021   3.310   3.651 -1.6029  0.4824  0.7022
 2020TIP3   OH2 6023   6.664   2.032   4.602 -0.0152 -0.0003  0.6359
 2020TIP3    H1 6024   6.625   1.945   4.592 -0.8344  0.1515  2.1577
 2020TIP3    H2 6025   6.591   2.087   4.631  0.6586  1.0347  0.3982
 2021TIP3   OH2 6026   6.891   3.801   3.108 -0.2443 -0.4062  0.0792
 2021TIP3    H1 6027   6.976   3.843   3.118  0.4243 -1.4553 -1.0000
 2021TIP3    H2 6028   6.844   3.855   3.044 -1.0670  1.1203  1.8849
 2022TIP3   OH2 6029   7.139   2.472   5.291  0.0156 -0.1180  0.1075
 2022TIP3    H1 6030   7.164   2.531   5.220  1.7443 -1.0004 -0.0828
 2022TIP3    H2 6031   7.143   2.527   5.370  0.9662  0.2060 -0.1439
 2023TIP3   OH2 6032   0.162   2.065   2.238  0.0998 -0.3401 -0.4167
 2023TIP3    H1 6033   0.232   2.002   2.220  0.4406 -0.2168  0.4135
 2023TIP3    H2 6034   0.101   2.018   2.295 -0.1477 -0.2300 -0.5872
 2024TIP3   OH2 6035   3.051   0.086   0.189 -0.4798 -0.0828 -0.4011
 2024TIP3    H1 6036   3.066   0.026   0.116  0.9688  1.0354 -1.0848
 2024TIP3    H2 6037   3.138   0.122   0.208 -0.9301  0.1052  1.4833
 2025TIP3   OH2 6038   1.301   4.096   4.104  0.1839  0.1751  0.1100
 2025TIP3    H1 6039   1.315   4.005   4.079 -0.2116 -0.3300  1.6281
 2025TIP3    H2 6040   1.210   4.114   4.079  0.0580 -0.0598  0.3887
 2026TIP3   OH2 6041   4.766   0.262   3.199 -0.0525  0.1428  0.0345
 2026TIP3    H1 6042   4.828   0.287   3.131 -0.2347  1.4500  0.3241
 2026TIP3    H2 6043   4.820   0.226   3.270  0.2135 -0.3548 -0.4175
 2027TIP3   OH2 6044   7.004   0.267   5.339  0.2360  0.5734 -0.2296
 2027TIP3    H1 6045   6.951   0.216   5.399  2.0459  0.1745  1.1361
 2027TIP3    H2 6046   7.093   0.231   5.349  0.7134  0.8254 -2.7898
 2028TIP3   OH2 6047   0.485   3.621   0.303  0.5154  0.3298  0.3632
 2028TIP3    H1 6048   0.394   3.612   0.274  0.4230 -0.5533  0.8933
 2028TIP3    H2 6049   0.537   3.610   0.223  0.1208  3.0262 -0.3610
 2029TIP3   OH2 6050   4.044   4.814   3.015  0.1498  0.9958  0.1391
 2029TIP3    H1 6051   3.968   4.826   2.958 -0.6533 -0.5735  0.7931
 2029TIP3    H2 6052   4.036   4.884   3.080 -2.1358 -0.4425  1.5719
 2030TIP3   OH2 6053   4.975   2.773   4.423  0.6410 -0.0482  0.6517
 2030TIP3    H1 6054   4.969   2.827   4.344  0.4062 -0.1749  0.5797
 2030TIP3    H2 6055   5.069   2.762   4.438  0.7129  1.1172  1.1747
 2031TIP3   OH2 6056   5.221   5.905   3.347 -0.2934  0.1678 -0.3340
 2031TIP3    H1 6057   5.167   5.975   3.384 -1.0398 -0.1642 -0.7807
 2031TIP3    H2 6058   5.310   5.939   3.351 -0.4539  0.5024  0.9347
 2032TIP3   OH2 6059   4.966   0.919   0.109  0.1013 -0.3594 -0.0191
 2032TIP3    H1 6060   4.971   0.853   0.040  0.5132 -0.2004 -0.1453
 2032TIP3    H2 6061   4.873   0.940   0.116  0.1345  0.1871 -1.0613
 2033TIP3   OH2 6062   5.361   1.101   2.069 -0.0052  0.1320 -0.0192
 2033TIP3    H1 6063   5.351   1.175   2.008  0.6303 -0.5610 -0.9874
 2033TIP3    H2 6064   5.271   1.081   2.096 -0.3072  0.4640 -0.7327
 2034TIP3   OH2 6065   5.127   1.730   1.161 -0.2526 -0.3080 -0.1749
 2034TIP3    H1 6066   5.157   1.693   1.243  0.3835 -0.5100 -0.4948
 2034TIP3    H2 6067   5.127   1.825   1.175 -0.5628 -0.3617  0.1946
 2035TIP3   OH2 6068   0.122   3.234   4.449 -0.4057 -0.7558 -0.4344
 2035TIP3    H1 6069   0.150   3.294   4.380  0.4651 -2.3696 -1.5293
 2035TIP3    H2 6070   0.167   3.265   4.527 -1.1648  0.9131 -0.6115
 2036TIP3   OH2 6071   3.848   0.721   2.098  0.0621 -0.0504  0.5232
 2036TIP3    H1 6072   3.810   0.795   2.144 -0.5186 -1.1843  1.9714
 2036TIP3    H2 6073   3.942   0.738   2.098 -0.2217  1.7525 -1.1944
 2037TIP3   OH2 6074   4.404   5.712   2.533  0.0751 -0.7232 -0.4803
 2037TIP3    H1 6075   4.361   5.796   2.517 -0.3587 -0.7641  0.3828
 2037TIP3    H2 6076   4.345   5.647   2.495  0.0046 -0.6889 -0.4298
 2038TIP3   OH2 6077   1.050   6.753   5.388  0.3176 -0.5120 -0.1072
 2038TIP3    H1 6078   1.109   6.679   5.377 -0.4954 -1.1764 -0.1677
 2038TIP3    H2 6079   0.962   6.713   5.388 -0.1218  0.4293  0.0587
 2039TIP3   OH2 6080   2.811   2.205   3.631 -0.4449 -0.2062  0.1039
 2039TIP3    H1 6081   2.747   2.173   3.568 -0.7417  1.4940 -0.5331
 2039TIP3    H2 6082   2.764   2.209   3.714 -0.1806 -2.0396  0.3784
 2040TIP3   OH2 6083   0.987   3.693   0.760  0.2479  0.4393 -0.8475
 2040TIP3    H1 6084   0.970   3.658   0.673  1.2838  0.8639 -1.2416
 2040TIP3    H2 6085   1.048   3.631   0.800  2.9494  2.1670 -1.9427
 2041TIP3   OH2 6086   6.592   2.066   0.958 -0.5656  0.0076  0.0821
 2041TIP3    H1 6087   6.680   2.042   0.984  0.0250  0.5774 -1.2723
 2041TIP3    H2 6088   6.540   2.058   1.037  0.8173  0.2086  1.0415
 2042TIP3   OH2 6089   6.357   3.838   1.939 -0.8790 -0.5904 -0.4274
 2042TIP3    H1 6090   6.268   3.806   1.948 -1.1070  0.3478  0.8316
 2042TIP3    H2 6091   6.402   3.806   2.017 -1.1347  2.0998  0.9426
 2043TIP3   OH2 6092   1.912   3.150   0.843  0.3435  0.0024  0.5794
 2043TIP3    H1 6093   1.878   3.183   0.760 -1.4982 -0.6777  1.0149
 2043TIP3    H2 6094   1.885   3.215   0.908 -0.3033 -0.6180  0.9530
 2044TIP3   OH2 6095   3.289   2.252   0.997 -0.1110  0.0727  0.6676
 2044TIP3    H1 6096   3.381   2.279   0.990 -0.1393  0.0680  0.2539
 2044TIP3    H2 6097   3.246   2.294   0.922 -0.8639  1.7822  1.9677
 2045TIP3   OH2 6098   6.722   1.741   1.583  0.1088 -0.4773  0.0494
 2045TIP3    H1 6099   6.633   1.747   1.619  0.3013 -1.1131  0.6649
 2045TIP3    H2 6100   6.776   1.715   1.658  0.8616  0.1546 -0.2568
 2046TIP3   OH2 6101   6.941   4.646   2.945 -0.0483  0.0078  0.2214
 2046TIP3    H1 6102   6.901   4.733   2.949  0.4689  0.2504  0.2401
 2046TIP3    H2 6103   7.030   4.659   2.978  0.5982 -0.1755 -1.3464
 2047TIP3   OH2 6104   5.292   5.970   1.964 -0.5032  0.4049 -0.3879
 2047TIP3    H1 6105   5.274   6.051   2.012  1.1878  0.8190 -0.3837
 2047TIP3    H2 6106   5.240   5.903   2.008 -0.0232  1.0307  1.1775
 2048TIP3   OH2 6107   5.836   1.329   0.722  0.5629  0.2460 -0.1973
 2048TIP3    H1 6108   5.808   1.386   0.650 -0.3695 -0.2016 -0.2015
 2048TIP3    H2 6109   5.799   1.370   0.800 -0.8424 -0.7889 -0.2898
 2049TIP3   OH2 6110   0.203   2.368   2.360 -0.4598  0.2463 -0.3334
 2049TIP3    H1 6111   0.297   2.385   2.358 -0.2310 -1.0382 -0.9552
 2049TIP3    H2 6112   0.194   2.276   2.336 -1.8618  0.2786 -0.0238
 2050TIP3   OH2 6113   0.870   3.033   0.238  0.2244 -0.0522  0.1838
 2050TIP3    H1 6114   0.840   3.124   0.235 -1.2809 -0.5131 -2.4244
 2050TIP3    H2 6115   0.954   3.034   0.190  0.7485  0.1016  1.0875
 2051TIP3   OH2 6116   0.546   3.114   0.409 -0.3731 -0.2093  0.0001
 2051TIP3    H1 6117   0.492   3.184   0.372 -0.6396  0.6165  1.8427
 2051TIP3    H2 6118   0.635   3.149   0.407 -0.4903  0.1569  0.8099
 2052TIP3   OH2 6119   2.574   2.782   0.123 -0.3305 -0.2223 -0.1482
 2052TIP3    H1 6120   2.658   2.752   0.157  0.1263  0.3389 -0.7634
 2052TIP3    H2 6121   2.567   2.739   0.037 -0.2158  0.4995 -0.5218
 2053TIP3   OH2 6122   2.402   4.565   5.599  0.1177  0.1915  0.4343
 2053TIP3    H1 6123   2.471   4.503   5.624  1.2197  0.5358 -1.5629
 2053TIP3    H2 6124   2.343   4.567   5.675  1.0974 -1.7973  1.3197
 2054TIP3   OH2 6125   1.128   3.095   1.298 -0.1388 -0.2068 -0.3221
 2054TIP3    H1 6126   1.152   3.086   1.205 -0.0468  1.5239 -0.5031
 2054TIP3    H2 6127   1.032   3.087   1.298 -0.2093  0.5038 -0.6893
 2055TIP3   OH2 6128   6.957   3.407   5.280 -0.5209 -0.0465  0.2818
 2055TIP3    H1 6129   7.035   3.358   5.308  0.1144  0.2110 -0.9324
 2055TIP3    H2 6130   6.921   3.444   5.360  2.1763  2.1014  0.6493
 2056TIP3   OH2 6131   2.849   6.138   4.787 -0.3317  0.3792 -0.8285
 2056TIP3    H1 6132   2.929   6.187   4.805 -0.5358  0.4791 -0.1776
 2056TIP3    H2 6133   2.793   6.200   4.741 -1.1734  1.2714  1.3013
 2057TIP3   OH2 6134   5.524   1.506   4.200 -0.2551  0.0125 -0.8472
 2057TIP3    H1 6135   5.481   1.422   4.217 -0.1260  0.3813  1.5860
 2057TIP3    H2 6136   5.609   1.481   4.163 -0.1025 -0.9598  0.1028
 2058TIP3   OH2 6137   4.220   3.819   2.098  0.1200  0.1125 -0.0256
 2058TIP3    H1 6138   4.271   3.875   2.040  0.3823 -1.6350 -1.5670
 2058TIP3    H2 6139   4.129   3.848   2.087  0.2401  0.1795 -0.8751
 2059TIP3   OH2 6140   5.488   5.117   3.965  0.3605 -0.0780 -0.7202
 2059TIP3    H1 6141   5.513   5.148   3.878  1.7557  1.5695  0.1886
 2059TIP3    H2 6142   5.565   5.133   4.019 -0.6481 -0.5490  0.9424
 2060TIP3   OH2 6143   4.036   0.040   3.177 -0.1304 -0.2729  0.0493
 2060TIP3    H1 6144   4.103   0.007   3.236 -0.9437 -1.1415  0.5038
 2060TIP3    H2 6145   4.029  -0.026   3.108  1.2075  0.9840 -1.3977
 2061TIP3   OH2 6146   0.593   5.609   1.222  0.0547  0.2279  0.0979
 2061TIP3    H1 6147   0.606   5.572   1.309 -1.2082  2.7421  1.4903
 2061TIP3    H2 6148   0.498   5.609   1.209  0.2146 -0.0826 -1.2990
 2062TIP3   OH2 6149   5.875   0.587   3.280  0.6140 -0.5050  0.3201
 2062TIP3    H1 6150   5.823   0.508   3.268  0.4601 -0.2484 -0.7283
 2062TIP3    H2 6151   5.852   0.618   3.368  0.7699 -1.6840  0.7951
 2063TIP3   OH2 6152   2.862   5.218   1.719 -0.5484  0.5051 -0.2357
 2063TIP3    H1 6153   2.905   5.146   1.673 -1.4833 -1.2638  1.4908
 2063TIP3    H2 6154   2.933   5.276   1.745  0.5462 -1.0603  0.4114
 2064TIP3   OH2 6155   2.166   5.696   3.255 -0.3117  0.0884  0.4871
 2064TIP3    H1 6156   2.221   5.749   3.197 -0.3901 -1.0095 -0.6487
 2064TIP3    H2 6157   2.160   5.611   3.210 -0.8894 -0.5989  1.8217
 2065TIP3   OH2 6158   5.352   0.556   5.000 -0.3563  0.2122  0.4996
 2065TIP3    H1 6159   5.333   0.649   4.990 -0.4847 -0.0554 -2.8443
 2065TIP3    H2 6160   5.436   0.544   4.955 -0.4528 -1.3021  0.6721
 2066TIP3   OH2 6161   2.188   3.286   5.007 -0.1570  0.6421  0.3466
 2066TIP3    H1 6162   2.212   3.194   5.001  1.2569  0.9430  0.8297
 2066TIP3    H2 6163   2.104   3.287   5.054  0.0956 -0.3748  0.8377
 2067TIP3   OH2 6164   6.950   4.375   1.958 -0.6748  0.0686  0.0486
 2067TIP3    H1 6165   6.924   4.433   2.030  0.8791 -0.4705  1.1041
 2067TIP3    H2 6166   6.999   4.431   1.899 -0.1789  0.0928  0.4734
 2068TIP3   OH2 6167   5.554   4.971   3.292  0.2295  0.2405  0.5492
 2068TIP3    H1 6168   5.518   5.054   3.321 -0.0418 -0.0654  1.1130
 2068TIP3    H2 6169   5.488   4.934   3.234  1.1958  1.3088 -1.3348
 2069TIP3   OH2 6170   5.295   0.036   2.769 -0.3808  0.3584  0.2564
 2069TIP3    H1 6171   5.241   0.091   2.712  0.0286 -0.3164 -0.8126
 2069TIP3    H2 6172   5.384   0.063   2.750 -0.2756  1.2461  1.7883
 2070TIP3   OH2 6173   4.914   0.630   3.457  0.5119  0.3266  0.7883
 2070TIP3    H1 6174   4.966   0.565   3.410  1.5986  0.0459  2.3086
 2070TIP3    H2 6175   4.852   0.663   3.392  2.0506  0.0850 -0.8705
 2071TIP3   OH2 6176   1.511   5.834   1.103  0.1132 -0.8840 -0.5362
 2071TIP3    H1 6177   1.595   5.820   1.147  0.5556  1.7302 -0.4027
 2071TIP3    H2 6178   1.461   5.754   1.121  1.8604 -1.7136  0.9828
 2072TIP3   OH2 6179   6.075   1.213   0.662  0.1599  0.0263 -0.2254
 2072TIP3    H1 6180   5.989   1.255   0.661 -0.4238 -1.0803  0.3819
 2072TIP3    H2 6181   6.124   1.259   0.730 -0.4431 -0.2110  0.3856
 2073TIP3   OH2 6182   6.129   1.914   3.507  0.9618  0.9444  0.2708
 2073TIP3    H1 6183   6.038   1.936   3.528  0.5824 -1.1091  1.0760
 2073TIP3    H2 6184   6.171   1.901   3.592  2.3903  3.0487 -0.0503
 2074TIP3   OH2 6185   6.288   1.836   3.716 -0.4813  0.5882 -0.1937
 2074TIP3    H1 6186   6.346   1.910   3.737 -1.1729  0.8496  0.8776
 2074TIP3    H2 6187   6.339   1.782   3.656  1.5353 -0.0223  1.9192
 2075TIP3   OH2 6188   2.422   1.917   4.162 -0.3596  0.2251 -0.0909
 2075TIP3    H1 6189   2.472   1.848   4.118 -0.9255  1.0754 -2.1953
 2075TIP3    H2 6190   2.333   1.882   4.169 -0.2604  0.0747  0.4164
 2076TIP3   OH2 6191   7.094   5.779   0.235  0.5449  0.2575 -0.1578
 2076TIP3    H1 6192   7.098   5.843   0.305  2.2862 -0.5372  0.5390
 2076TIP3    H2 6193   7.079   5.695   0.280  0.2458 -0.0723 -0.8580
 2077TIP3   OH2 6194   4.187   1.331   2.007 -0.3688  0.0883  0.3221
 2077TIP3    H1 6195   4.103   1.306   2.044 -0.5691  1.2538  0.6974
 2077TIP3    H2 6196   4.250   1.313   2.077 -0.2523 -1.0494 -0.0589
 2078TIP3   OH2 6197   0.842   2.941   3.482  0.1492 -0.1525  0.0889
 2078TIP3    H1 6198   0.787   3.010   3.518  1.6004 -0.4262  3.1157
 2078TIP3    H2 6199   0.786   2.897   3.417 -2.2047  1.2866  1.0288
 2079TIP3   OH2 6200   4.868   6.601   3.447  0.8105 -0.2751 -1.1052
 2079TIP3    H1 6201   4.946   6.555   3.415  2.9910  0.2782  2.7762
 2079TIP3    H2 6202   4.891   6.694   3.443 -0.2371 -0.0001 -1.1648
 2080TIP3   OH2 6203   4.456   1.644   5.536 -0.3431  0.1154 -0.2599
 2080TIP3    H1 6204   4.550   1.633   5.551 -0.2776 -0.5775 -1.1349
 2080TIP3    H2 6205   4.415   1.574   5.587 -0.3710  0.2852 -0.0495
 2081TIP3   OH2 6206   5.198   4.382   4.081 -0.3284  0.5388 -0.3944
 2081TIP3    H1 6207   5.189   4.328   4.002  1.7189 -1.0021  0.3242
 2081TIP3    H2 6208   5.273   4.345   4.127 -0.9343  1.9102  1.8905
 2082TIP3   OH2 6209   0.009   1.612   2.854  0.4451 -1.0426 -0.2524
 2082TIP3    H1 6210   0.041   1.563   2.930  1.5465 -0.3210 -0.2285
 2082TIP3    H2 6211   0.083   1.668   2.829 -0.3423 -0.3438 -1.0684
 2083TIP3   OH2 6212   6.354   2.045   0.338  0.6160 -0.1107 -0.2678
 2083TIP3    H1 6213   6.388   2.068   0.252  0.1263 -0.9531 -0.6986
 2083TIP3    H2 6214   6.316   1.958   0.326  0.1715 -0.0594  0.6971
 2084TIP3   OH2 6215   7.112   2.703   4.040  0.4345 -0.2240 -0.0419
 2084TIP3    H1 6216   7.026   2.713   4.000  0.0451 -1.2515  0.5084
 2084TIP3    H2 6217   7.097   2.722   4.133  0.6260 -1.2111  0.1985
 2085TIP3   OH2 6218   4.088   3.077   1.518 -0.3933  0.7873  0.6169
 2085TIP3    H1 6219   4.065   2.985   1.505 -0.3926  0.9449 -0.6270
 2085TIP3    H2 6220   4.061   3.096   1.607 -2.2340  0.1205  0.2439
 2086TIP3   OH2 6221   3.979   6.364   3.127  0.5526  0.3598 -0.0621
 2086TIP3    H1 6222   4.040   6.412   3.183 -1.1030  2.0224  0.4394
 2086TIP3    H2 6223   3.913   6.330   3.187 -0.1532  0.4151 -0.7882
 2087TIP3   OH2 6224   2.027   6.559   1.727  0.2058  0.5664 -0.0619
 2087TIP3    H1 6225   1.948   6.588   1.680 -0.2835  0.4259  0.6583
 2087TIP3    H2 6226   1.995   6.492   1.788  1.2362 -1.1676 -1.3462
 2088TIP3   OH2 6227   3.257   5.048   2.212  0.0761  0.5009  0.4913
 2088TIP3    H1 6228   3.279   5.135   2.246 -0.1636  0.6535  0.2555
 2088TIP3    H2 6229   3.162   5.048   2.206  0.1356  0.6647 -0.6712
 2089TIP3   OH2 6230   0.633   1.513   5.072  0.2379  0.1491  0.0917
 2089TIP3    H1 6231   0.706   1.516   5.135  1.0150  0.4810 -0.7975
 2089TIP3    H2 6232   0.591   1.599   5.081  0.4759  0.2758  0.0158
 2090TIP3   OH2 6233   3.927   4.373   0.190  0.4467  0.1080 -0.3163
 2090TIP3    H1 6234   3.993   4.309   0.163 -0.2778 -1.2860  1.0407
 2090TIP3    H2 6235   3.958   4.456   0.154  1.6884 -0.9038 -1.7104
 2091TIP3   OH2 6236   1.913   0.415   0.747  0.3482  0.0039 -0.7456
 2091TIP3    H1 6237   1.891   0.411   0.840  3.6548 -0.4203  0.1702
 2091TIP3    H2 6238   1.875   0.498   0.717 -1.8376 -0.4324  0.6206
 2092TIP3   OH2 6239   1.622   5.143   1.661  0.3826 -0.2902  0.0628
 2092TIP3    H1 6240   1.528   5.129   1.649  0.8470 -1.7521 -2.9082
 2092TIP3    H2 6241   1.654   5.063   1.702  0.4502 -0.1985  0.1886
 2093TIP3   OH2 6242   3.251   5.202   5.553  0.3025  0.2503 -0.3180
 2093TIP3    H1 6243   3.159   5.226   5.543  0.4861  0.8807 -0.5583
 2093TIP3    H2 6244   3.282   5.256   5.626  0.3463 -0.3740  0.1393
 2094TIP3   OH2 6245   2.716   3.939   1.601 -0.2182  0.1531  0.2562
 2094TIP3    H1 6246   2.805   3.911   1.623 -0.2107  0.7104  0.9818
 2094TIP3    H2 6247   2.729   4.015   1.545 -0.2317  0.2653  0.4036
 2095TIP3   OH2 6248   3.555   0.645   2.302  0.0574 -0.5045 -0.3646
 2095TIP3    H1 6249   3.493   0.716   2.288  1.3601  0.5318 -1.0662
 2095TIP3    H2 6250   3.615   0.649   2.228  0.8823 -1.5786  0.2017
 2096TIP3   OH2 6251   3.096   5.439   1.027  0.5676  0.0344  0.0904
 2096TIP3    H1 6252   3.004   5.439   1.053  0.3737 -0.0006 -0.5721
 2096TIP3    H2 6253   3.137   5.505   1.083  0.4091 -0.8635  1.2934
 2097TIP3   OH2 6254   1.028   4.615   4.333 -0.5401  0.5475 -0.0426
 2097TIP3    H1 6255   0.949   4.564   4.351 -0.5678  1.1374  1.7176
 2097TIP3    H2 6256   0.998   4.705   4.325 -0.3290  0.4923 -1.8805
 2098TIP3   OH2 6257   2.385   1.007   0.283  0.9434 -0.0509  0.3069
 2098TIP3    H1 6258   2.442   0.930   0.290  0.5087 -0.6676 -2.0315
 2098TIP3    H2 6259   2.300   0.971   0.257  0.5998  1.1780 -0.3554
 2099TIP3   OH2 6260   7.130   2.861   2.515  0.2184  0.5085 -0.9357
 2099TIP3    H1 6261   7.190   2.935   2.505  0.6140  0.1928 -0.9322
 2099TIP3    H2 6262   7.111   2.833   2.426  0.2758  0.4499 -0.9294
 2100TIP3   OH2 6263   1.189   1.295   1.186 -0.8355 -0.4045  0.1306
 2100TIP3    H1 6264   1.172   1.388   1.202 -0.5886  0.0312 -1.8642
 2100TIP3    H2 6265   1.239   1.294   1.104 -0.0723 -2.2536  0.5836
 2101TIP3   OH2 6266   1.243   0.237   3.354  0.1197  0.1486  0.2247
 2101TIP3    H1 6267   1.258   0.166   3.292 -2.2709 -2.3879  2.2716
 2101TIP3    H2 6268   1.176   0.292   3.311 -0.9653 -1.1495  0.1795
 2102TIP3   OH2 6269   7.210   5.720   2.245  0.0328  0.1334 -0.8864
 2102TIP3    H1 6270   7.209   5.635   2.290 -1.1355 -0.6069 -2.2194
 2102TIP3    H2 6271   7.148   5.774   2.293  1.5532  0.6329  0.6098
 2103TIP3   OH2 6272   2.119   1.221   0.400  0.4505 -0.1500  0.0207
 2103TIP3    H1 6273   2.194   1.251   0.349 -0.6869  0.2953 -1.4875
 2103TIP3    H2 6274   2.114   1.127   0.382  0.8669 -0.2469  0.4192
 2104TIP3   OH2 6275   5.760   3.650   0.746  0.0787  0.2911  0.3338
 2104TIP3    H1 6276   5.811   3.717   0.699 -1.3958  0.0456 -1.7768
 2104TIP3    H2 6277   5.681   3.697   0.775 -0.9950 -0.4628 -1.2133
 2105TIP3   OH2 6278   0.319   4.589   0.403  0.2190  0.4968 -0.7339
 2105TIP3    H1 6279   0.348   4.680   0.390  1.5383  0.0622 -0.9829
 2105TIP3    H2 6280   0.233   4.585   0.362 -0.9391  2.2252  1.3041
 2106TIP3   OH2 6281   2.189   4.434   3.014  0.4570  0.4916 -0.7004
 2106TIP3    H1 6282   2.183   4.485   2.933  0.7135  0.3597 -0.8032
 2106TIP3    H2 6283   2.231   4.492   3.077  1.3434  0.1917 -1.0011
 2107TIP3   OH2 6284   2.551   1.215   1.726 -0.1768  0.2950  0.0879
 2107TIP3    H1 6285   2.528   1.221   1.818 -0.6637 -0.6273  0.0473
 2107TIP3    H2 6286   2.646   1.210   1.724 -0.0823  1.6298  0.4404
 2108TIP3   OH2 6287   5.196   4.630   4.393 -0.0896 -0.3841  0.5280
 2108TIP3    H1 6288   5.246   4.702   4.430 -0.0173 -0.7119  1.0759
 2108TIP3    H2 6289   5.241   4.551   4.423 -0.9912 -0.6839  1.1315
 2109TIP3   OH2 6290   3.345   3.507   4.768 -0.8240 -0.2599  0.2508
 2109TIP3    H1 6291   3.364   3.596   4.738  0.0061 -0.0294  1.3786
 2109TIP3    H2 6292   3.325   3.459   4.688  0.2781  0.5637 -0.5637
 2110TIP3   OH2 6293   3.237   5.182   5.168 -0.4002  0.4835 -0.5699
 2110TIP3    H1 6294   3.328   5.203   5.184 -0.1840 -0.1899 -0.8881
 2110TIP3    H2 6295   3.198   5.264   5.138  0.6456  0.2485 -2.7340
 2111TIP3   OH2 6296   6.196   0.404   2.697  0.0595  0.0748 -0.0310
 2111TIP3    H1 6297   6.235   0.392   2.784  1.2319 -0.0699 -0.5573
 2111TIP3    H2 6298   6.148   0.323   2.680  0.1372 -0.0478  0.3289
 2112TIP3   OH2 6299   6.977   5.623   4.577  0.4853 -0.2250 -0.2643
 2112TIP3    H1 6300   7.005   5.589   4.662  0.9476 -1.5109 -0.8853
 2112TIP3    H2 6301   6.914   5.558   4.545 -2.0825  1.7822  0.3763
 2113TIP3   OH2 6302   4.215   5.071   1.850 -0.0664  0.0908  0.0237
 2113TIP3    H1 6303   4.304   5.083   1.817 -0.9486  3.9007 -1.5525
 2113TIP3    H2 6304   4.162   5.051   1.773 -0.6444 -2.6750  1.0059
 2114TIP3   OH2 6305   6.728   6.584   2.017 -0.2049  0.3541 -0.4143
 2114TIP3    H1 6306   6.775   6.638   1.954  0.9617 -0.6116 -0.4091
 2114TIP3    H2 6307   6.637   6.587   1.989  0.3689 -0.6269 -2.6044
 2115TIP3   OH2 6308   0.156   2.720   4.388  0.2245 -0.1712  0.2177
 2115TIP3    H1 6309   0.088   2.727   4.455  1.0692  2.3403  0.9156
 2115TIP3    H2 6310   0.238   2.722   4.436  0.8371  0.9282 -0.8114
 2116TIP3   OH2 6311   2.884   2.721   3.557  0.2323  0.1669  0.7484
 2116TIP3    H1 6312   2.882   2.790   3.491 -0.4498 -0.5258  0.0184
 2116TIP3    H2 6313   2.976   2.696   3.563  0.1608 -0.5857 -0.8505
 2117TIP3   OH2 6314   3.997   2.706   3.155  0.2004  0.6187 -0.0779
 2117TIP3    H1 6315   3.924   2.691   3.216 -0.2157  2.5672 -0.0124
 2117TIP3    H2 6316   4.070   2.730   3.212  0.1479  1.2451 -0.2665
 2118TIP3   OH2 6317   1.708   5.856   0.833  0.2275 -0.8204  0.3453
 2118TIP3    H1 6318   1.654   5.923   0.876 -0.2040 -0.0628 -1.3284
 2118TIP3    H2 6319   1.644   5.795   0.795  0.5584 -0.3599 -0.9608
 2119TIP3   OH2 6320   2.066   5.859   5.246  0.6560  0.4733 -0.7681
 2119TIP3    H1 6321   2.154   5.890   5.223  0.2414  0.7916 -2.0190
 2119TIP3    H2 6322   2.017   5.863   5.164 -0.5726  0.4220 -0.0634
 2120TIP3   OH2 6323   5.666   2.710   5.012 -0.0879 -0.1362 -0.1366
 2120TIP3    H1 6324   5.687   2.799   5.041  1.7329 -1.2060  2.1685
 2120TIP3    H2 6325   5.593   2.683   5.067  1.2031 -1.0024  1.2269
 2121TIP3   OH2 6326   6.211   4.988   1.698 -0.4097  0.1438  0.0386
 2121TIP3    H1 6327   6.229   4.896   1.718 -1.8717  0.1872  1.9251
 2121TIP3    H2 6328   6.262   5.036   1.763  0.7577  0.7115 -1.2758
 2122TIP3   OH2 6329   2.358   6.523   0.858  0.4809 -0.2683  0.2495
 2122TIP3    H1 6330   2.441   6.560   0.886  0.7656 -0.1525 -0.7391
 2122TIP3    H2 6331   2.375   6.487   0.771 -0.4094 -0.5747  0.1880
 2123TIP3   OH2 6332   7.099   3.965   5.047 -0.5007  0.6722 -0.2864
 2123TIP3    H1 6333   7.117   4.028   5.117  0.2944  0.1004  0.0392
 2123TIP3    H2 6334   7.037   4.010   4.989 -0.3650  1.5414  0.2313
 2124TIP3   OH2 6335   0.151   3.062   2.965 -0.3945 -0.5392  0.6864
 2124TIP3    H1 6336   0.102   3.132   2.923 -0.7773 -0.7194  0.8228
 2124TIP3    H2 6337   0.135   2.985   2.910  2.0724  0.0102 -0.9089
 2125TIP3   OH2 6338   3.646   3.027   3.865  0.4402 -0.2651 -0.3672
 2125TIP3    H1 6339   3.699   3.066   3.795  1.8224 -1.3503  0.0296
 2125TIP3    H2 6340   3.678   2.937   3.871 -1.3860 -0.9242 -0.0111
 2126TIP3   OH2 6341   5.933   6.698   3.111  0.1863 -0.2769  0.1429
 2126TIP3    H1 6342   5.981   6.620   3.082 -0.0976 -0.2065 -0.5362
 2126TIP3    H2 6343   5.971   6.770   3.061  0.4632  0.0319  0.7854
 2127TIP3   OH2 6344   1.030   3.792   1.648 -0.2058  0.2423 -0.2347
 2127TIP3    H1 6345   1.110   3.816   1.695 -0.0659  0.8228 -0.7541
 2127TIP3    H2 6346   0.989   3.876   1.627 -1.6033 -0.0511  1.1143
 2128TIP3   OH2 6347   6.193   2.121   4.310 -0.2859  0.3478 -0.5211
 2128TIP3    H1 6348   6.191   2.214   4.331 -1.4460 -0.0099  1.1491
 2128TIP3    H2 6349   6.266   2.086   4.360 -0.8357  0.0992  0.1162
 2129TIP3   OH2 6350   2.189   6.130   2.710  0.3178  0.1200 -0.2216
 2129TIP3    H1 6351   2.266   6.160   2.758 -0.0104  0.3435  0.1816
 2129TIP3    H2 6352   2.210   6.041   2.682  1.0102  0.4550 -0.7704
 2130TIP3   OH2 6353   5.413   3.318   2.344 -0.2068  0.4953  0.2376
 2130TIP3    H1 6354   5.496   3.276   2.323  0.6280  0.9338  2.4340
 2130TIP3    H2 6355   5.375   3.265   2.414 -1.1274  1.0607  0.1893
 2131TIP3   OH2 6356   4.001   0.135   3.761 -0.1935  0.4181  0.0384
 2131TIP3    H1 6357   3.916   0.134   3.805  0.4880  0.5912  1.4040
 2131TIP3    H2 6358   4.019   0.227   3.745 -0.4735  0.3497 -0.6775
 2132TIP3   OH2 6359   0.388   1.334   2.152  0.4984 -0.0441 -0.4866
 2132TIP3    H1 6360   0.430   1.284   2.222  1.0838  0.2094 -0.6557
 2132TIP3    H2 6361   0.348   1.267   2.096 -0.1485 -0.2406  0.1910
 2133TIP3   OH2 6362   0.199   2.193   0.545  0.3830 -0.0369  0.0191
 2133TIP3    H1 6363   0.104   2.194   0.551  0.3508 -0.4083 -0.4416
 2133TIP3    H2 6364   0.218   2.170   0.454  0.9341 -2.5483  0.7129
 2134TIP3   OH2 6365   5.685   3.509   4.964  0.2782 -0.3027  0.0065
 2134TIP3    H1 6366   5.670   3.415   4.970  0.5809 -0.2921  1.4542
 2134TIP3    H2 6367   5.689   3.538   5.055  2.0679  0.7983 -0.3746
 2135TIP3   OH2 6368   0.705   0.518   4.400  0.3281 -0.3612  0.1957
 2135TIP3    H1 6369   0.736   0.437   4.361  0.5151 -1.0735  1.7548
 2135TIP3    H2 6370   0.619   0.533   4.360  0.3341 -1.2654 -0.1676
 2136TIP3   OH2 6371   3.616   4.741   4.634 -0.3048  0.3394 -0.2846
 2136TIP3    H1 6372   3.575   4.784   4.709  0.5029  0.0654  0.3313
 2136TIP3    H2 6373   3.579   4.786   4.558 -0.2565  1.4154  0.3040
 2137TIP3   OH2 6374   4.304   5.825   1.344 -0.3964  0.2739 -0.2503
 2137TIP3    H1 6375   4.342   5.739   1.360 -0.8008  0.1824  0.2244
 2137TIP3    H2 6376   4.272   5.854   1.429 -1.5724  0.2604 -0.6581
 2138TIP3   OH2 6377   1.692   2.569   3.024 -0.0175  0.6620  0.1813
 2138TIP3    H1 6378   1.778   2.598   3.055 -0.9592  0.0969  3.6976
 2138TIP3    H2 6379   1.631   2.599   3.091 -2.2681 -1.0307 -0.9855
 2139TIP3   OH2 6380   3.697   1.797   5.534 -0.2118 -0.1738 -0.1401
 2139TIP3    H1 6381   3.626   1.841   5.580 -0.1303  1.2735 -1.3441
 2139TIP3    H2 6382   3.684   1.704   5.554 -1.1183  0.2531  1.4410
 2140TIP3   OH2 6383   4.779   2.932   0.057 -0.1388  0.1010 -0.0743
 2140TIP3    H1 6384   4.817   2.982   0.129  0.4701 -2.8740  1.8691
 2140TIP3    H2 6385   4.732   2.861   0.100  1.2619 -2.5428 -2.5510
 2141TIP3   OH2 6386   1.596   1.772   3.256  0.1890  0.1868  0.2448
 2141TIP3    H1 6387   1.598   1.824   3.336  0.8226  1.4226 -0.5611
 2141TIP3    H2 6388   1.616   1.683   3.285 -0.8212  0.3711  1.6217
 2142TIP3   OH2 6389   4.409   0.902   3.688  0.3014  0.2933  0.3618
 2142TIP3    H1 6390   4.473   0.960   3.730  0.8326  0.0106 -0.0344
 2142TIP3    H2 6391   4.395   0.832   3.752  1.1555 -0.1696  0.0544
 2143TIP3   OH2 6392   7.011   1.666   3.880 -0.1833 -0.2031  0.3786
 2143TIP3    H1 6393   6.999   1.629   3.968 -0.2691  0.3451  0.6037
 2143TIP3    H2 6394   6.974   1.754   3.886  1.6095  0.5870  0.3619
 2144TIP3   OH2 6395   4.109   2.372   0.092 -0.1738 -0.3044 -0.7732
 2144TIP3    H1 6396   4.042   2.305   0.106 -0.3475 -0.1546 -0.8807
 2144TIP3    H2 6397   4.129   2.367  -0.002  0.3872 -0.7411 -0.6399
 2145TIP3   OH2 6398   7.038   4.994   3.056  0.6533 -0.0537  0.6383
 2145TIP3    H1 6399   6.945   4.972   3.054  1.0194 -1.7172 -0.8192
 2145TIP3    H2 6400   7.077   4.931   3.116  0.8282  0.7228  1.3477
 2146TIP3   OH2 6401   6.318   3.771   4.821 -0.0326  0.5340  0.3597
 2146TIP3    H1 6402   6.260   3.843   4.846  0.7252  0.9699  0.9023
 2146TIP3    H2 6403   6.396   3.814   4.786  0.9740  0.0460  1.8630
 2147TIP3   OH2 6404   1.531   2.961   4.978  0.8586 -0.0226  0.0804
 2147TIP3    H1 6405   1.506   2.882   4.931 -0.0370  1.2516 -1.6770
 2147TIP3    H2 6406   1.451   3.013   4.983  1.8073  1.5539 -0.4207
 2148TIP3   OH2 6407   1.022   0.656   3.104  0.6573  0.0786  0.5196
 2148TIP3    H1 6408   1.077   0.732   3.081 -0.6050  0.2325 -2.4296
 2148TIP3    H2 6409   0.934   0.692   3.113  0.0479 -0.9800 -0.8538
 2149TIP3   OH2 6410   1.446   4.359   1.739  0.4057  0.2414  0.6276
 2149TIP3    H1 6411   1.457   4.275   1.783  0.6677 -0.2460 -0.3332
 2149TIP3    H2 6412   1.353   4.364   1.717  0.6133 -0.4416 -0.5125
 2150TIP3   OH2 6413   5.175   4.212   1.172  0.3315  0.3615 -0.5776
 2150TIP3    H1 6414   5.132   4.296   1.153 -0.9285  0.1436  1.0801
 2150TIP3    H2 6415   5.150   4.155   1.099  0.1416  1.0537 -1.0629
 2151TIP3   OH2 6416   0.362   1.356   0.870 -0.0463  0.2861  0.6264
 2151TIP3    H1 6417   0.451   1.325   0.889  0.8170  1.9218 -0.3990
 2151TIP3    H2 6418   0.331   1.298   0.800  0.9509  0.7688 -0.2491
 2152TIP3   OH2 6419   6.451   5.401   2.658 -0.2470 -0.1016 -0.3240
 2152TIP3    H1 6420   6.533   5.377   2.614  0.7647 -0.9807  1.9124
 2152TIP3    H2 6421   6.478   5.428   2.746 -2.2560  0.9045  0.0432
 2153TIP3   OH2 6422   5.068   0.243   5.555 -0.0294  0.1597 -0.2007
 2153TIP3    H1 6423   5.079   0.286   5.640  1.1673 -1.0615  0.3090
 2153TIP3    H2 6424   5.092   0.310   5.491 -0.1324  0.8414  0.4617
 2154TIP3   OH2 6425   1.822   3.365   2.765 -0.1662 -0.2591  0.2983
 2154TIP3    H1 6426   1.885   3.293   2.772 -1.6991 -1.6877 -0.1301
 2154TIP3    H2 6427   1.877   3.443   2.759  1.5567 -1.1828  2.4630
 2155TIP3   OH2 6428   5.947   1.164   1.076 -0.3988 -0.5313  0.5212
 2155TIP3    H1 6429   5.867   1.182   1.125 -1.2064 -2.3602 -0.0372
 2155TIP3    H2 6430   5.917   1.134   0.990  0.8669 -1.2987  0.3103
 2156TIP3   OH2 6431   5.234   2.817   2.152 -0.4851 -0.4495 -0.1626
 2156TIP3    H1 6432   5.282   2.741   2.120  0.7309  0.2999 -0.1448
 2156TIP3    H2 6433   5.208   2.864   2.073  0.1722 -0.0268 -0.1277
 2157TIP3   OH2 6434   5.784   5.635   5.674  0.1994 -0.2074  0.3851
 2157TIP3    H1 6435   5.741   5.649   5.590  1.3173  2.6996  0.1697
 2157TIP3    H2 6436   5.713   5.640   5.739 -0.3745 -0.1197 -0.2376
 2158TIP3   OH2 6437   0.638   0.541   4.668 -0.3308  0.1604  0.4223
 2158TIP3    H1 6438   0.657   0.534   4.574 -1.9928 -0.7810  0.1210
 2158TIP3    H2 6439   0.705   0.486   4.710  0.5143  0.7075 -0.1654
 2159TIP3   OH2 6440   1.546   2.839   4.681  0.5269 -0.7666  0.1076
 2159TIP3    H1 6441   1.579   2.810   4.596  0.6962 -3.0016  0.8735
 2159TIP3    H2 6442   1.540   2.759   4.734  1.4441  0.6513  2.5582
 2160TIP3   OH2 6443   7.160   3.534   0.456  0.1894  0.2398  0.0853
 2160TIP3    H1 6444   7.197   3.609   0.409  0.4522  0.7673  1.0937
 2160TIP3    H2 6445   7.124   3.572   0.536 -1.3126 -0.4684 -0.2275
 2161TIP3   OH2 6446   0.345   1.363   3.540 -0.0583  0.0210 -0.0348
 2161TIP3    H1 6447   0.439   1.377   3.550 -0.1915  0.2943  0.8734
 2161TIP3    H2 6448   0.308   1.382   3.626 -1.2426  2.3075 -0.9548
 2162TIP3   OH2 6449   5.928   4.726   0.853  0.1008  0.0728  0.7892
 2162TIP3    H1 6450   5.845   4.737   0.899  0.2543 -1.0024  1.3461
 2162TIP3    H2 6451   5.909   4.752   0.763 -1.0766 -1.0073  0.7124
 2163TIP3   OH2 6452   4.019   5.141   5.779  0.3990  0.1135  0.0067
 2163TIP3    H1 6453   3.971   5.073   5.731 -0.4883 -0.9122  2.2172
 2163TIP3    H2 6454   4.103   5.147   5.734  0.6805 -2.7822 -0.0176
 2164TIP3   OH2 6455   4.341   1.745   3.311  0.1142 -0.5587  0.3228
 2164TIP3    H1 6456   4.335   1.691   3.232 -1.1474 -0.4882  0.3461
 2164TIP3    H2 6457   4.435   1.753   3.328  0.3486 -1.9249 -0.2391
 2165TIP3   OH2 6458   5.328   6.024   3.898  0.4757 -0.0900  0.4760
 2165TIP3    H1 6459   5.391   5.988   3.835 -0.8347  0.7654 -1.4119
 2165TIP3    H2 6460   5.315   5.954   3.962  2.6908 -0.5835  0.4675
 2166TIP3   OH2 6461   6.205   0.238   2.032 -0.3116 -0.8783  0.4341
 2166TIP3    H1 6462   6.244   0.243   1.944 -0.8443 -0.0031  0.2364
 2166TIP3    H2 6463   6.249   0.164   2.073  1.7620  0.2162  0.3099
 2167TIP3   OH2 6464   3.652   5.936   4.496 -0.2801  0.0223  0.1757
 2167TIP3    H1 6465   3.629   5.852   4.457 -0.2416 -0.9761  2.2266
 2167TIP3    H2 6466   3.645   5.923   4.590  0.5290  2.0863  0.5880
 2168TIP3   OH2 6467   5.306   4.287   1.690 -0.3550  0.1537  0.0087
 2168TIP3    H1 6468   5.328   4.380   1.693  0.3155  0.1229 -2.1556
 2168TIP3    H2 6469   5.309   4.265   1.597 -0.6786 -1.9933  0.4602
 2169TIP3   OH2 6470   7.128   2.699   3.726 -0.4659 -0.2487  0.1393
 2169TIP3    H1 6471   7.186   2.774   3.738 -1.2817  0.3458  0.4371
 2169TIP3    H2 6472   7.183   2.633   3.682 -0.1049  0.9923 -1.3446
 2170TIP3   OH2 6473   3.835   3.871   0.410  0.4052 -0.1421  0.2734
 2170TIP3    H1 6474   3.914   3.867   0.464  1.9938 -2.4099 -2.0163
 2170TIP3    H2 6475   3.780   3.799   0.441  0.3998 -0.1874  0.1582
 2171TIP3   OH2 6476   1.801   4.888   5.684 -0.5430  0.0171 -0.3368
 2171TIP3    H1 6477   1.850   4.970   5.696  1.5032 -1.0268 -1.0339
 2171TIP3    H2 6478   1.828   4.833   5.757 -2.1204  0.0160  0.2797
 2172TIP3   OH2 6479   5.311   3.646   2.647 -0.1992  0.3110  0.4343
 2172TIP3    H1 6480   5.319   3.631   2.553  1.1401 -2.0040  0.8303
 2172TIP3    H2 6481   5.228   3.606   2.671  0.9881 -2.2723  0.6569
 2173TIP3   OH2 6482   0.864   1.195   0.254  0.2114  0.1476 -0.1466
 2173TIP3    H1 6483   0.790   1.192   0.314 -0.1342 -1.5033 -0.6176
 2173TIP3    H2 6484   0.941   1.190   0.311 -0.0697  0.0972  0.2316
 2174TIP3   OH2 6485   5.247   5.460   4.408 -0.0535 -0.1890  0.5196
 2174TIP3    H1 6486   5.166   5.414   4.387  0.2948 -1.2987  1.4780
 2174TIP3    H2 6487   5.244   5.472   4.503  0.7080  0.1418  0.5089
 2175TIP3   OH2 6488   0.981   0.417   1.204 -0.2432 -0.0998 -0.2540
 2175TIP3    H1 6489   0.919   0.349   1.229 -0.5587 -0.0009 -0.7720
 2175TIP3    H2 6490   0.929   0.498   1.200  0.1872  0.2406  0.6695
 2176TIP3   OH2 6491   0.627   3.182   3.115  0.2014 -0.4887 -0.0661
 2176TIP3    H1 6492   0.555   3.235   3.079  0.0121 -0.8305 -0.1954
 2176TIP3    H2 6493   0.646   3.222   3.200 -0.3781 -0.6108  0.1229
 2177TIP3   OH2 6494   6.617   6.468   2.852 -0.0571 -0.2558  0.0572
 2177TIP3    H1 6495   6.577   6.394   2.805 -0.2620 -0.8993  1.2195
 2177TIP3    H2 6496   6.601   6.450   2.944  0.0835  1.1432  0.3793
 2178TIP3   OH2 6497   5.171   0.000   3.791  0.4650  0.1775  0.1459
 2178TIP3    H1 6498   5.263   0.019   3.808  0.0485  2.0771  0.4963
 2178TIP3    H2 6499   5.125   0.079   3.818 -1.4469 -1.3048  1.4886
 2179TIP3   OH2 6500   5.026   4.657   0.184 -0.0360  0.2081  0.6004
 2179TIP3    H1 6501   5.113   4.686   0.156  0.5661 -2.4442 -0.6642
 2179TIP3    H2 6502   5.040   4.624   0.273  0.0373  0.6466  0.7528
 2180TIP3   OH2 6503   1.205   5.038   2.760 -0.2760 -0.2012  0.1592
 2180TIP3    H1 6504   1.294   5.071   2.775  0.2913 -1.6991  0.2628
 2180TIP3    H2 6505   1.150   5.117   2.762  1.0126  0.7367  0.2902
 2181TIP3   OH2 6506   5.665   1.763   4.271 -0.0930  0.5469 -0.3786
 2181TIP3    H1 6507   5.619   1.687   4.237  0.3471  0.4883 -0.8548
 2181TIP3    H2 6508   5.606   1.837   4.256 -0.9417  0.1800  0.9711
 2182TIP3   OH2 6509   6.814   1.428   4.828  0.1003 -0.1036  0.0963
 2182TIP3    H1 6510   6.898   1.400   4.864 -0.3449 -0.1243  1.1514
 2182TIP3    H2 6511   6.757   1.352   4.840 -0.2058  0.0846 -0.1545
 2183TIP3   OH2 6512   1.676   0.542   3.580  0.4325 -0.1174 -0.3138
 2183TIP3    H1 6513   1.637   0.586   3.655 -0.0874 -0.3819 -0.4251
 2183TIP3    H2 6514   1.603   0.497   3.537  0.5572  0.7477 -1.4792
 2184TIP3   OH2 6515   1.507   3.380   0.474 -0.2576  0.0445 -0.2646
 2184TIP3    H1 6516   1.595   3.342   0.476 -0.7864 -1.2189 -0.4056
 2184TIP3    H2 6517   1.504   3.428   0.390  0.8371  1.5049  0.4855
 2185TIP3   OH2 6518   0.105   0.332   4.465  0.1642  0.5779 -0.5081
 2185TIP3    H1 6519   0.043   0.270   4.426  0.9080 -0.1562 -0.5586
 2185TIP3    H2 6520   0.191   0.294   4.448  0.5791  0.9600  0.6186
 2186TIP3   OH2 6521   6.383   2.444   2.697  0.4855 -0.0452  0.5236
 2186TIP3    H1 6522   6.384   2.418   2.605  0.2402  0.5443  0.3546
 2186TIP3    H2 6523   6.366   2.538   2.696  1.6833  0.2024  1.1186
 2187TIP3   OH2 6524   0.000   0.828   2.413  0.0752  0.1512  0.5159
 2187TIP3    H1 6525   0.067   0.780   2.461  1.1628  1.3245  0.2329
 2187TIP3    H2 6526   0.010   0.918   2.442 -1.0369  0.4331  0.0684
 2188TIP3   OH2 6527   4.367   6.544   1.107 -0.2864 -0.4181 -0.8368
 2188TIP3    H1 6528   4.435   6.612   1.104 -0.7481  0.1855  0.8768
 2188TIP3    H2 6529   4.289   6.587   1.072 -0.2008 -0.5729 -1.2209
 2189TIP3   OH2 6530   4.391   3.357   2.109  0.3554 -0.8808  0.2653
 2189TIP3    H1 6531   4.308   3.390   2.143  0.9768 -0.1045  1.0712
 2189TIP3    H2 6532   4.445   3.435   2.096  0.7525 -1.3223 -0.8487
 2190TIP3   OH2 6533   4.772   3.376   4.339  0.6129  0.2510  0.3367
 2190TIP3    H1 6534   4.848   3.320   4.325  0.8152  0.8130 -0.9810
 2190TIP3    H2 6535   4.809   3.463   4.353  0.2373  0.3859  0.4864
 2191TIP3   OH2 6536   2.691   6.050   3.178 -0.2469 -0.1293  0.4121
 2191TIP3    H1 6537   2.785   6.034   3.171 -0.3631 -0.3805 -0.9088
 2191TIP3    H2 6538   2.676   6.068   3.270  1.2882  1.1336  0.4484
 2192TIP3   OH2 6539   5.855   2.912   5.098 -0.7356 -0.2806  0.1707
 2192TIP3    H1 6540   5.941   2.931   5.061 -0.6368 -0.6468  0.2094
 2192TIP3    H2 6541   5.853   2.962   5.180 -0.7810  0.1742 -0.1005
 2193TIP3   OH2 6542   5.723   5.366   5.394  0.4147  0.1534 -0.1686
 2193TIP3    H1 6543   5.642   5.343   5.439 -0.8569  0.0188 -2.4144
 2193TIP3    H2 6544   5.788   5.306   5.431 -1.0347 -1.4044 -0.0162
 2194TIP3   OH2 6545   0.012   2.384   0.164 -0.1536  0.0256 -0.7464
 2194TIP3    H1 6546  -0.009   2.336   0.084  3.6725 -0.7208 -1.4684
 2194TIP3    H2 6547   0.010   2.476   0.138 -1.0039 -0.0878 -1.1170
 2195TIP3   OH2 6548   4.529   2.403   5.450  0.0351  0.6045  0.0049
 2195TIP3    H1 6549   4.578   2.363   5.522  2.3810  1.2159 -1.1394
 2195TIP3    H2 6550   4.533   2.339   5.380 -0.1882  0.9663 -0.3435
 2196TIP3   OH2 6551   1.967   3.796   1.492 -0.5626 -0.1930 -0.2174
 2196TIP3    H1 6552   1.953   3.736   1.565 -0.1770 -1.6921 -1.3222
 2196TIP3    H2 6553   1.880   3.809   1.454 -1.1262  2.2100  1.6289
 2197TIP3   OH2 6554   6.290   3.630   4.522 -0.2956  0.1949 -0.1726
 2197TIP3    H1 6555   6.294   3.601   4.613 -0.9619 -0.8910 -0.4626
 2197TIP3    H2 6556   6.365   3.589   4.480 -0.1668  0.4356 -0.1771
 2198TIP3   OH2 6557   2.058   5.272   5.080 -0.2834  1.1387 -0.2167
 2198TIP3    H1 6558   2.101   5.346   5.040 -0.3628  0.9366 -0.6793
 2198TIP3    H2 6559   2.111   5.252   5.158  1.1072  0.2077 -1.3523
 2199TIP3   OH2 6560   7.089   2.206   5.526 -0.4769 -0.5556  0.1102
 2199TIP3    H1 6561   7.164   2.245   5.571 -2.9092  3.0475  1.5925
 2199TIP3    H2 6562   7.060   2.135   5.583  0.0267  0.0267  1.1076
 2200TIP3   OH2 6563   5.670   5.387   0.495  0.3695 -0.5224 -0.1239
 2200TIP3    H1 6564   5.721   5.447   0.550 -0.7061 -0.3930  0.7744
 2200TIP3    H2 6565   5.694   5.411   0.406  1.2511  0.0859  0.2520
 2201TIP3   OH2 6566   6.745   5.611   0.416  0.2732  0.1229  0.7124
 2201TIP3    H1 6567   6.677   5.558   0.457 -0.1162 -0.8643 -1.0999
 2201TIP3    H2 6568   6.786   5.658   0.489 -0.5529 -1.3075  2.1670
 2202TIP3   OH2 6569   4.120   3.870   1.254  0.5688 -0.1295 -0.1837
 2202TIP3    H1 6570   4.198   3.893   1.204 -0.1487  0.2620 -1.1772
 2202TIP3    H2 6571   4.120   3.774   1.257  1.1841 -0.1282  0.0063
 2203TIP3   OH2 6572   1.783   3.169   4.714  0.2636  0.1447 -0.6013
 2203TIP3    H1 6573   1.809   3.255   4.681  0.8878  0.5523  0.8698
 2203TIP3    H2 6574   1.704   3.186   4.765  0.3677 -0.1545 -0.3392
 2204TIP3   OH2 6575   0.683   3.294   3.378  0.7682  0.1858 -0.2835
 2204TIP3    H1 6576   0.772   3.290   3.413  0.9801 -2.6018 -0.9661
 2204TIP3    H2 6577   0.635   3.227   3.427 -0.7246  0.9546 -0.6355
 2205TIP3   OH2 6578   2.113   2.996   0.305 -0.1725  0.2527  0.2962
 2205TIP3    H1 6579   2.153   2.975   0.220 -0.2467 -1.0409  0.5632
 2205TIP3    H2 6580   2.022   2.967   0.297 -0.4782  1.1189  0.4649
 2206TIP3   OH2 6581   0.977   0.630   4.107 -0.0424 -0.1000  0.2043
 2206TIP3    H1 6582   0.895   0.584   4.090  0.8952 -1.1891 -1.6261
 2206TIP3    H2 6583   0.961   0.720   4.078 -0.6332 -0.2619  0.0267
 2207TIP3   OH2 6584   0.041   0.996   1.349  0.5888 -0.3387 -0.1182
 2207TIP3    H1 6585   0.100   1.032   1.283 -1.1028  1.4064 -0.7911
 2207TIP3    H2 6586   0.050   1.055   1.424  1.0276 -1.1427  0.4755
 2208TIP3   OH2 6587   5.018   3.358   1.577  0.5021  0.4808 -0.3934
 2208TIP3    H1 6588   4.938   3.406   1.594  0.5914  1.0009 -1.3859
 2208TIP3    H2 6589   5.000   3.269   1.607 -0.2997  0.6972 -0.2327
 2209TIP3   OH2 6590   2.640   3.834   5.643  0.5395 -0.0853 -0.7497
 2209TIP3    H1 6591   2.697   3.869   5.711 -0.0712  1.4397 -0.9895
 2209TIP3    H2 6592   2.573   3.784   5.691  1.9640 -1.8226 -0.4685
 2210TIP3   OH2 6593   0.291   4.635   3.717  0.1985  0.2761  0.0042
 2210TIP3    H1 6594   0.329   4.579   3.650  0.1089  0.6705 -0.3793
 2210TIP3    H2 6595   0.207   4.594   3.738 -0.2162  0.6803 -0.8288
 2211TIP3   OH2 6596   7.119   3.515   2.660 -0.6158  0.2294  0.3428
 2211TIP3    H1 6597   7.105   3.609   2.670 -0.5873  0.2603  0.0923
 2211TIP3    H2 6598   7.115   3.500   2.566  1.7563  0.3474  0.1532
 2212TIP3   OH2 6599   7.145   0.739   0.357 -0.1123  0.6948  0.1528
 2212TIP3    H1 6600   7.066   0.791   0.339  0.2758  1.2848  0.1126
 2212TIP3    H2 6601   7.169   0.763   0.447 -1.5200 -1.5476  1.2176
 2213TIP3   OH2 6602   4.800   0.067   0.909  0.3164 -0.0459 -0.0851
 2213TIP3    H1 6603   4.749   0.123   0.967  2.5838  0.8942  1.1459
 2213TIP3    H2 6604   4.822  -0.009   0.963 -1.2286 -1.3530 -1.1852
 2214TIP3   OH2 6605   3.443   1.177   1.281  0.1805 -0.0013  0.1150
 2214TIP3    H1 6606   3.479   1.150   1.196  0.7323 -2.4806  1.0658
 2214TIP3    H2 6607   3.348   1.165   1.271 -0.2180  3.0817 -1.1927
 2215TIP3   OH2 6608   3.312   3.948   5.058  0.8031  0.0200 -0.2330
 2215TIP3    H1 6609   3.275   3.990   4.981  1.0711 -1.2799 -1.1064
 2215TIP3    H2 6610   3.256   3.871   5.072  1.8376 -0.7530 -0.2421
 2216TIP3   OH2 6611   5.431   1.064   4.917  0.0070 -0.4514  0.0420
 2216TIP3    H1 6612   5.348   1.093   4.955  2.0717  1.3301  3.7389
 2216TIP3    H2 6613   5.476   1.146   4.894  1.4595 -1.2817 -0.1628
 2217TIP3   OH2 6614   3.446   3.787   5.546 -0.1522 -0.2921 -0.5808
 2217TIP3    H1 6615   3.401   3.791   5.461  1.4085  1.0752 -1.4001
 2217TIP3    H2 6616   3.516   3.851   5.538 -0.4591  0.4579  2.0584
 2218TIP3   OH2 6617   5.759   0.734   4.595  0.2692 -0.2200  1.3915
 2218TIP3    H1 6618   5.693   0.665   4.585  0.2911 -0.0363 -0.2508
 2218TIP3    H2 6619   5.840   0.687   4.612  0.3151 -0.6195  0.1055
 2219TIP3   OH2 6620   2.194   3.363   2.293 -0.6018  0.3131 -0.1356
 2219TIP3    H1 6621   2.144   3.362   2.374 -3.0216  2.8404 -1.4307
 2219TIP3    H2 6622   2.195   3.271   2.264  0.3648 -0.6610  2.6543
 2220TIP3   OH2 6623   0.363   6.510   5.600 -0.3875  0.2860  0.0251
 2220TIP3    H1 6624   0.402   6.580   5.653  0.6839  1.3339 -2.0027
 2220TIP3    H2 6625   0.414   6.511   5.519 -1.3287 -1.8759 -0.6571
 2221TIP3   OH2 6626   4.843   1.846   3.760 -0.1291 -0.0926  0.4390
 2221TIP3    H1 6627   4.780   1.916   3.741  2.1082  1.9891  0.2155
 2221TIP3    H2 6628   4.822   1.818   3.849 -1.2171  0.6720  0.4434
 2222TIP3   OH2 6629   0.671   5.738   4.120  0.2453  0.2497  0.8286
 2222TIP3    H1 6630   0.757   5.702   4.098 -0.9805 -2.0996 -0.5368
 2222TIP3    H2 6631   0.622   5.664   4.156 -1.3337  1.4245  1.2056
 2223TIP3   OH2 6632   3.406   6.137   2.913  0.1867  0.7126 -0.4544
 2223TIP3    H1 6633   3.426   6.121   3.005 -1.5270  0.5918 -0.0676
 2223TIP3    H2 6634   3.399   6.049   2.875  0.0227  0.7367 -0.4829
 2224TIP3   OH2 6635   2.560   5.919   2.151 -0.1741 -0.6493 -0.1790
 2224TIP3    H1 6636   2.496   5.988   2.170 -0.6697 -0.1203 -3.2057
 2224TIP3    H2 6637   2.640   5.947   2.195 -1.4345 -0.2403  1.9358
 2225TIP3   OH2 6638   4.492   2.626   0.122 -0.3799  0.0709  0.2669
 2225TIP3    H1 6639   4.440   2.650   0.046  0.2246  1.3600  0.2392
 2225TIP3    H2 6640   4.438   2.562   0.169 -0.3640 -1.5213 -1.7155
 2226TIP3   OH2 6641   6.102   2.474   2.185 -0.1049  0.1999 -0.5262
 2226TIP3    H1 6642   6.194   2.494   2.170 -0.1194  1.4845  0.8741
 2226TIP3    H2 6643   6.065   2.464   2.097  0.6538  3.1791 -1.2817
 2227TIP3   OH2 6644   7.002   3.263   3.898  0.3103 -0.1455 -0.5713
 2227TIP3    H1 6645   7.096   3.255   3.884  0.4304 -0.1264  0.1711
 2227TIP3    H2 6646   6.985   3.358   3.897  0.2650 -0.1557 -0.8915
 2228TIP3   OH2 6647   1.569   0.541   3.153 -0.0585 -0.1891  0.2044
 2228TIP3    H1 6648   1.595   0.449   3.140 -1.4047 -0.4439 -0.8843
 2228TIP3    H2 6649   1.482   0.547   3.113  0.3667  1.7778 -0.5144
 2229TIP3   OH2 6650   0.294   0.772   0.789  0.0521 -0.3160 -0.1472
 2229TIP3    H1 6651   0.324   0.799   0.702 -0.0252  2.2113  0.5474
 2229TIP3    H2 6652   0.222   0.711   0.772  0.5391 -0.4758 -1.8323
 2230TIP3   OH2 6653   5.191   6.623   4.210 -0.3477  0.1328  0.3642
 2230TIP3    H1 6654   5.205   6.583   4.296  1.2364  0.9014  0.5135
 2230TIP3    H2 6655   5.111   6.674   4.220 -0.3516 -0.0347  1.2966
 2231TIP3   OH2 6656   5.861   0.374   1.519  0.2704 -0.0496 -0.0742
 2231TIP3    H1 6657   5.805   0.440   1.479  1.6958  0.3004 -1.6278
 2231TIP3    H2 6658   5.807   0.295   1.521  0.1601 -0.1795 -3.0846
 2232TIP3   OH2 6659   5.325   2.429   5.132 -0.2334 -0.0473 -0.7675
 2232TIP3    H1 6660   5.349   2.514   5.095  0.5056  0.4912  0.8677
 2232TIP3    H2 6661   5.256   2.448   5.196  0.4030 -0.5525  0.0953
 2233TIP3   OH2 6662   3.610   0.158   5.300  0.0942 -0.2562 -0.3403
 2233TIP3    H1 6663   3.558   0.080   5.320  0.6076 -0.5197 -0.0119
 2233TIP3    H2 6664   3.668   0.131   5.229  0.9913 -0.4854  0.4716
 2234TIP3   OH2 6665   1.364   5.920   4.435 -0.2635  0.0859 -0.2161
 2234TIP3    H1 6666   1.291   5.966   4.394 -0.8700 -0.3144  0.3886
 2234TIP3    H2 6667   1.337   5.828   4.436 -0.2970  0.0885  1.1026
 2235TIP3   OH2 6668   5.726   1.824   3.843 -0.3346 -0.2282 -0.1948
 2235TIP3    H1 6669   5.715   1.742   3.796  1.0268 -1.0193  0.7881
 2235TIP3    H2 6670   5.767   1.799   3.926  0.7997  1.4954 -0.1761
 2236TIP3   OH2 6671   3.968   0.961   0.553 -0.3389  0.4767  0.1304
 2236TIP3    H1 6672   3.980   0.868   0.574 -1.1274  0.5950  1.1776
 2236TIP3    H2 6673   3.997   1.007   0.632 -1.6690  1.0253  0.3210
 2237TIP3   OH2 6674   1.207   3.300   5.296  0.3343 -0.4087  0.2772
 2237TIP3    H1 6675   1.234   3.239   5.365 -1.0070 -0.6043  0.6505
 2237TIP3    H2 6676   1.114   3.314   5.312 -0.0582 -0.6401 -1.6343
 2238TIP3   OH2 6677   5.155   4.967   1.788 -0.4240  0.3212 -0.5512
 2238TIP3    H1 6678   5.064   4.993   1.781 -0.1018  1.3947 -0.9734
 2238TIP3    H2 6679   5.200   5.018   1.721  0.3859 -0.7074 -0.8196
 2239TIP3   OH2 6680   6.438   0.098   0.403 -0.2500  0.5970 -0.0423
 2239TIP3    H1 6681   6.459   0.019   0.353 -0.3095  0.0108  0.8204
 2239TIP3    H2 6682   6.381   0.149   0.346 -1.2020 -0.5538 -0.1742
 2240TIP3   OH2 6683   4.978   5.960   5.248  0.3489 -0.0557 -0.6543
 2240TIP3    H1 6684   4.971   5.975   5.342 -1.4246 -0.3219 -0.7157
 2240TIP3    H2 6685   4.952   5.869   5.235  0.6467 -0.0466 -1.3881
 2241TIP3   OH2 6686   5.116   3.461   2.205  0.1089  0.4704 -0.6768
 2241TIP3    H1 6687   5.131   3.527   2.137 -0.3165  0.6737 -0.5749
 2241TIP3    H2 6688   5.179   3.484   2.274  1.5511 -0.5939 -1.5880
 2242TIP3   OH2 6689   3.967   0.951  -0.012  0.0904 -0.1364  0.3669
 2242TIP3    H1 6690   4.022   0.877  -0.037 -1.0368 -1.4705  1.5746
 2242TIP3    H2 6691   4.004   0.982   0.071  1.2699  1.4777 -0.7130
 2243TIP3   OH2 6692   4.129   4.183   2.944 -0.1760  0.1173  0.9506
 2243TIP3    H1 6693   4.150   4.178   2.851  1.3168 -0.4395  1.2812
 2243TIP3    H2 6694   4.034   4.180   2.948 -0.4064  2.3328 -0.6756
 2244TIP3   OH2 6695   3.574   4.472   0.019 -0.2939  0.3934  0.1531
 2244TIP3    H1 6696   3.501   4.419   0.051  0.7191  0.5026  2.9370
 2244TIP3    H2 6697   3.620   4.500   0.098  1.1690  2.6546 -1.3768
 2245TIP3   OH2 6698   0.195   3.165   1.005  0.2015 -0.3460  0.1119
 2245TIP3    H1 6699   0.247   3.242   0.985  0.6131 -0.8938 -1.0081
 2245TIP3    H2 6700   0.122   3.169   0.943  0.5848 -1.1874 -0.4193
 2246TIP3   OH2 6701   2.205   1.951   0.419 -0.6423 -0.2822 -0.2579
 2246TIP3    H1 6702   2.145   1.947   0.344 -0.5979  0.2076 -0.3244
 2246TIP3    H2 6703   2.289   1.975   0.381 -0.7997  0.8159  0.0263
 2247TIP3   OH2 6704   6.309   1.630   1.118 -0.1776 -0.2222  0.3189
 2247TIP3    H1 6705   6.353   1.700   1.069  1.2379  0.1703  2.0296
 2247TIP3    H2 6706   6.227   1.615   1.071  0.1461  1.5807 -0.9208
 2248TIP3   OH2 6707   7.097   2.851   1.269  0.2766 -0.7240 -0.1960
 2248TIP3    H1 6708   7.158   2.809   1.330  0.0930 -0.5160  0.1324
 2248TIP3    H2 6709   7.035   2.898   1.325 -0.4473 -1.2833 -0.5155
 2249TIP3   OH2 6710   1.721   5.326   3.828 -0.3442 -0.1952  0.9184
 2249TIP3    H1 6711   1.694   5.236   3.844  1.7719 -1.0897 -0.0325
 2249TIP3    H2 6712   1.698   5.342   3.737  0.2473 -0.1784  0.7673
 2250TIP3   OH2 6713   3.577   2.399   1.679 -0.0673 -0.1066 -0.3580
 2250TIP3    H1 6714   3.519   2.374   1.607 -1.0118 -0.5243  0.5155
 2250TIP3    H2 6715   3.530   2.470   1.724 -0.5230 -1.2690  1.0836
 2251TIP3   OH2 6716   2.831   2.201   4.313  0.0899  0.1915 -0.4276
 2251TIP3    H1 6717   2.825   2.267   4.382  0.0337  1.0090 -1.1914
 2251TIP3    H2 6718   2.792   2.122   4.351 -0.4584  0.7891  0.2772
 2252TIP3   OH2 6719   5.039   5.234   1.105 -0.0550 -0.0378  0.3766
 2252TIP3    H1 6720   5.117   5.185   1.084 -0.2241  0.0204 -0.4117
 2252TIP3    H2 6721   4.985   5.229   1.026 -0.4167  0.7383  0.5607
 2253TIP3   OH2 6722   5.607   4.128   1.151  0.1389 -0.2412  0.3171
 2253TIP3    H1 6723   5.521   4.088   1.168  1.0814 -2.0054  1.1686
 2253TIP3    H2 6724   5.655   4.061   1.102  1.6799 -0.0556  1.5050
 2254TIP3   OH2 6725   1.661   5.134   1.316 -0.8162  0.1183 -0.1491
 2254TIP3    H1 6726   1.726   5.068   1.339 -1.5976 -1.1962 -1.4985
 2254TIP3    H2 6727   1.679   5.207   1.374  2.1637  0.0092 -0.7695
 2255TIP3   OH2 6728   2.684   3.871   0.943 -0.6053 -0.3487 -0.5236
 2255TIP3    H1 6729   2.653   3.782   0.961 -0.2476 -0.8234 -2.1469
 2255TIP3    H2 6730   2.622   3.905   0.879  0.0254  0.0926 -0.9076
 2256TIP3   OH2 6731   4.717   4.474   0.617  0.0902 -0.1540 -0.5279
 2256TIP3    H1 6732   4.640   4.527   0.601 -0.0065  0.1977  0.9279
 2256TIP3    H2 6733   4.682   4.389   0.645  0.1705  0.4991  1.7036
 2257TIP3   OH2 6734   1.287   1.530   4.191 -0.9270 -0.0521 -0.3418
 2257TIP3    H1 6735   1.342   1.464   4.235 -0.0723  1.4123  0.8676
 2257TIP3    H2 6736   1.254   1.585   4.262 -0.7529  1.4714 -1.3969
 2258TIP3   OH2 6737   1.525   5.377   2.195 -0.2017 -0.3028 -0.0873
 2258TIP3    H1 6738   1.534   5.294   2.242 -1.4796 -0.2469  0.2953
 2258TIP3    H2 6739   1.464   5.428   2.249 -0.1237  0.5372 -0.7787
 2259TIP3   OH2 6740   2.501   5.143   1.350  0.2347  0.4292  0.4908
 2259TIP3    H1 6741   2.530   5.216   1.404  0.6490  0.9101 -0.3633
 2259TIP3    H2 6742   2.570   5.132   1.285 -0.7485  0.5495 -0.5899
 2260TIP3   OH2 6743   2.938   1.051   3.270  0.3367  0.3789 -0.1675
 2260TIP3    H1 6744   2.947   1.079   3.361  0.0140  2.8313 -0.8298
 2260TIP3    H2 6745   2.861   0.992   3.271  0.1024  0.6735  1.0676
 2261TIP3   OH2 6746   0.342   1.191   1.904  0.3168 -0.5613  0.2743
 2261TIP3    H1 6747   0.339   1.273   1.856 -4.2089  0.1550  1.3073
 2261TIP3    H2 6748   0.300   1.127   1.846  0.6455 -1.2546  0.7838
 2262TIP3   OH2 6749   6.019   3.787   5.724  0.0753 -0.0288 -0.1672
 2262TIP3    H1 6750   6.044   3.701   5.690 -1.8879 -0.7191 -0.0191
 2262TIP3    H2 6751   6.006   3.773   5.818  2.3958  1.1202  0.3743
 2263TIP3   OH2 6752   5.619   1.912   5.581 -0.4098  0.4632 -0.4554
 2263TIP3    H1 6753   5.679   1.865   5.640 -0.3192  1.1015 -0.0294
 2263TIP3    H2 6754   5.586   1.845   5.522 -0.8213 -0.2742  0.5804
 2264TIP3   OH2 6755   2.065   2.510   2.383  0.1899 -0.4462  0.6832
 2264TIP3    H1 6756   2.076   2.575   2.453  0.7302  1.3369 -0.9580
 2264TIP3    H2 6757   2.102   2.552   2.305 -1.0398 -2.0534 -0.8624
 2265TIP3   OH2 6758   2.944   6.145   1.960 -0.1758  0.5045 -0.4936
 2265TIP3    H1 6759   2.942   6.077   2.028 -2.7270 -0.2855 -1.2336
 2265TIP3    H2 6760   2.863   6.131   1.910  1.0254  1.7953 -2.9778
 2266TIP3   OH2 6761   7.094   4.974   5.453 -0.3224 -0.6942  0.4970
 2266TIP3    H1 6762   7.182   5.011   5.441 -0.4268 -0.4958  0.3283
 2266TIP3    H2 6763   7.109   4.885   5.485 -0.0634 -0.3374  1.4102
 2267TIP3   OH2 6764   6.409   6.497   3.890  0.0839  0.3495  0.2142
 2267TIP3    H1 6765   6.325   6.532   3.860 -0.3802 -1.1657 -0.3967
 2267TIP3    H2 6766   6.399   6.402   3.882  2.0335  0.1444 -0.3716
 2268TIP3   OH2 6767   1.161   4.141   4.723 -0.4121 -0.6516 -0.3668
 2268TIP3    H1 6768   1.210   4.068   4.686  1.0913  0.1820 -0.1067
 2268TIP3    H2 6769   1.216   4.218   4.706  1.2140 -0.3038  4.7585
 2269TIP3   OH2 6770   1.437   2.752   3.789  0.1240  0.0250  0.1568
 2269TIP3    H1 6771   1.402   2.810   3.721  2.1446  1.0350 -0.1252
 2269TIP3    H2 6772   1.396   2.667   3.772 -2.2963  1.1396  0.0702
 2270TIP3   OH2 6773   6.347   0.280   5.188 -0.4194  0.3305 -0.0382
 2270TIP3    H1 6774   6.405   0.352   5.164  1.0697 -0.7149  0.2898
 2270TIP3    H2 6775   6.321   0.241   5.105 -0.5762  0.7378 -0.1832
 2271TIP3   OH2 6776   0.206   1.549   3.406 -0.0996 -0.3108 -0.9873
 2271TIP3    H1 6777   0.112   1.534   3.401 -0.3877  0.8891  0.2803
 2271TIP3    H2 6778   0.238   1.481   3.465 -0.2254 -0.4717 -1.1035
 2272TIP3   OH2 6779   6.233   2.763   3.161 -0.0131 -0.2602 -0.0935
 2272TIP3    H1 6780   6.242   2.819   3.084 -1.1855 -0.8272 -0.6740
 2272TIP3    H2 6781   6.310   2.782   3.214  1.7103 -1.0636 -2.1718
 2273TIP3   OH2 6782   5.256   5.798   0.838  0.2079 -0.5758 -0.0893
 2273TIP3    H1 6783   5.169   5.838   0.842  0.3023 -0.3851  0.0721
 2273TIP3    H2 6784   5.255   5.746   0.758  0.6538  1.0860 -1.2297
 2274TIP3   OH2 6785   4.366   2.076   5.575  0.4331 -0.1784  0.3033
 2274TIP3    H1 6786   4.391   2.157   5.620 -1.9777  0.8749 -0.0586
 2274TIP3    H2 6787   4.447   2.044   5.535  1.8708  0.8685  2.2515
 2275TIP3   OH2 6788   5.589   0.579   3.606 -0.3920  0.3206  0.6750
 2275TIP3    H1 6789   5.669   0.617   3.641  0.2327  0.8049 -1.1558
 2275TIP3    H2 6790   5.592   0.598   3.512 -1.2146 -2.1560  0.0480
 2276TIP3   OH2 6791   3.318   5.081   2.889  0.2028  0.5325  0.1759
 2276TIP3    H1 6792   3.366   5.080   2.806 -1.3704  2.0909 -0.8183
 2276TIP3    H2 6793   3.386   5.092   2.956  1.2620  3.3925 -1.1979
 2277TIP3   OH2 6794   1.788   2.953   0.399 -0.4637  0.6235 -0.0449
 2277TIP3    H1 6795   1.768   2.869   0.441  0.4422  1.0099  1.2315
 2277TIP3    H2 6796   1.832   3.003   0.467 -0.1853  1.8115 -1.0720
 2278TIP3   OH2 6797   1.442   4.572   2.933  0.4051  0.1819  0.4810
 2278TIP3    H1 6798   1.536   4.556   2.936  0.5374  0.7843 -0.2207
 2278TIP3    H2 6799   1.411   4.519   2.860  0.4539  1.1820 -0.2760
 2279TIP3   OH2 6800   2.640   2.086   2.459 -0.1179  0.8301 -0.3504
 2279TIP3    H1 6801   2.639   2.033   2.380  0.1476  1.1362 -0.5617
 2279TIP3    H2 6802   2.558   2.064   2.504 -1.4575  2.4249 -1.8764
 2280TIP3   OH2 6803   0.731   1.108   1.546  0.0181  0.0074 -0.3152
 2280TIP3    H1 6804   0.684   1.026   1.559 -2.3223  1.1053 -1.3508
 2280TIP3    H2 6805   0.725   1.126   1.452  1.0501  1.0692 -0.2115
 2281TIP3   OH2 6806   6.486   3.764   1.652 -1.0825 -0.1868  0.0037
 2281TIP3    H1 6807   6.396   3.769   1.684 -0.8649  1.6464  0.4221
 2281TIP3    H2 6808   6.531   3.835   1.697  0.6693 -1.2793  0.0417
 2282TIP3   OH2 6809   0.082   5.390   3.276  0.2014 -0.5438  0.5444
 2282TIP3    H1 6810   0.118   5.433   3.198  0.3651 -1.2440  0.2315
 2282TIP3    H2 6811   0.094   5.297   3.260 -2.0871 -0.8448  0.2749
 2283TIP3   OH2 6812   6.194   0.938   4.560  0.3998  0.8372  0.0449
 2283TIP3    H1 6813   6.239   0.906   4.482  0.0838  0.5678 -0.0289
 2283TIP3    H2 6814   6.104   0.950   4.532  0.0043 -0.4260  0.6729
 2284TIP3   OH2 6815   1.718   2.907   2.378 -0.0233 -0.5589 -0.7233
 2284TIP3    H1 6816   1.628   2.902   2.345 -0.2512  0.0733 -0.2307
 2284TIP3    H2 6817   1.724   2.995   2.416  0.5748 -0.8684 -0.0813
 2285TIP3   OH2 6818   5.970   1.749   4.772  0.1595 -0.8558  0.2112
 2285TIP3    H1 6819   5.897   1.811   4.778  0.6866 -0.2349  0.2726
 2285TIP3    H2 6820   5.939   1.671   4.819 -0.6737 -0.8040 -0.2474
 2286TIP3   OH2 6821   6.407   2.392   4.136 -0.0040  0.4094 -0.0247
 2286TIP3    H1 6822   6.322   2.405   4.094 -0.2977 -0.6607  0.2195
 2286TIP3    H2 6823   6.448   2.478   4.133 -0.8636  0.8120 -0.6529
 2287TIP3   OH2 6824   5.409   1.431   1.033  0.1792 -0.3249  0.1661
 2287TIP3    H1 6825   5.466   1.360   1.004 -0.1996 -0.6961  0.3196
 2287TIP3    H2 6826   5.345   1.389   1.091 -0.0812  0.1294  0.2167
 2288TIP3   OH2 6827   2.353   1.302   0.271 -0.2909  0.2483 -0.1120
 2288TIP3    H1 6828   2.382   1.364   0.205  1.1399 -0.4914 -0.2178
 2288TIP3    H2 6829   2.428   1.245   0.286 -0.2987  0.7934  2.6582
 2289TIP3   OH2 6830   5.831   6.342   0.812 -0.2298 -0.4175  0.3393
 2289TIP3    H1 6831   5.749   6.342   0.860 -1.2435 -1.0027 -1.3203
 2289TIP3    H2 6832   5.807   6.367   0.723  1.7724  2.0230  0.3533
 2290TIP3   OH2 6833   2.274   6.669   3.358 -0.2294 -0.1176 -0.0920
 2290TIP3    H1 6834   2.330   6.609   3.409 -0.5612  0.5824  1.1403
 2290TIP3    H2 6835   2.312   6.668   3.270  1.9633  0.6217  0.7906
 2291TIP3   OH2 6836   1.835   4.989   4.018  0.0064 -0.4304  0.1479
 2291TIP3    H1 6837   1.901   5.044   3.976 -0.5347  1.9376  2.1688
 2291TIP3    H2 6838   1.853   4.996   4.111 -1.6353 -1.7194  0.6186
 2292TIP3   OH2 6839   0.219   2.241   3.179  0.1519 -0.3259  0.6390
 2292TIP3    H1 6840   0.206   2.246   3.085  1.2081 -0.7750  0.4570
 2292TIP3    H2 6841   0.137   2.205   3.213 -0.2766 -0.0509 -0.0830
 2293TIP3   OH2 6842   5.505   5.873   0.440 -0.2090  0.2798 -0.2605
 2293TIP3    H1 6843   5.595   5.843   0.433 -0.5354 -0.4219 -2.0191
 2293TIP3    H2 6844   5.492   5.928   0.362 -1.7412 -0.9328 -0.9183
 2294TIP3   OH2 6845   3.603   5.714   5.241 -0.1771  0.1170 -0.5294
 2294TIP3    H1 6846   3.537   5.738   5.305  0.2052  1.2269 -0.5405
 2294TIP3    H2 6847   3.666   5.785   5.243 -0.2053  0.2338 -2.2086
 2295TIP3   OH2 6848   2.411   2.181   3.100 -0.4752  0.0947  0.0485
 2295TIP3    H1 6849   2.498   2.152   3.127  1.1072  2.7816 -1.5862
 2295TIP3    H2 6850   2.354   2.105   3.113  2.0075 -1.6453  1.5716
 2296TIP3   OH2 6851   4.494   3.336   0.450  0.4629 -0.1439 -0.3054
 2296TIP3    H1 6852   4.506   3.286   0.531  1.1891  2.6838  1.4819
 2296TIP3    H2 6853   4.582   3.341   0.412  0.3407 -0.4362 -0.6301
 2297TIP3   OH2 6854   2.270   4.976   1.254 -0.2281  0.1203 -0.2374
 2297TIP3    H1 6855   2.332   5.040   1.289 -0.3931  0.2362 -0.1575
 2297TIP3    H2 6856   2.236   4.931   1.332 -1.1877  0.9172 -0.1788
 2298TIP3   OH2 6857   5.295   0.620   0.933  0.1155 -0.3681 -0.3399
 2298TIP3    H1 6858   5.316   0.656   1.019  0.0611 -0.4854 -0.2773
 2298TIP3    H2 6859   5.263   0.695   0.882  0.6161 -0.1958 -0.4158
 2299TIP3   OH2 6860   5.464   2.589   3.824 -0.2528 -0.3874 -0.4293
 2299TIP3    H1 6861   5.384   2.565   3.872 -0.1343  1.9862  1.1542
 2299TIP3    H2 6862   5.525   2.517   3.841 -0.9088 -0.5700  1.3591
 2300TIP3   OH2 6863   2.253   4.739   3.573 -0.4297  0.5127 -0.0341
 2300TIP3    H1 6864   2.209   4.673   3.626  0.4238  0.7051  0.9431
 2300TIP3    H2 6865   2.294   4.690   3.502  1.2076 -0.2028  1.3467
 2301TIP3   OH2 6866   6.939   3.781   2.814 -0.4933 -0.1141 -0.2304
 2301TIP3    H1 6867   6.891   3.850   2.860  0.1124  0.6075 -0.6457
 2301TIP3    H2 6868   6.874   3.714   2.796 -0.9715  0.0890  0.6913
 2302TIP3   OH2 6869   5.136   5.733   0.570  0.4896 -0.1932 -0.1720
 2302TIP3    H1 6870   5.208   5.698   0.517  0.2655 -1.1354  0.1331
 2302TIP3    H2 6871   5.070   5.664   0.570 -0.8175  1.0052 -1.1946
 2303TIP3   OH2 6872   0.690   1.312   1.759 -0.3158 -0.2745  0.0093
 2303TIP3    H1 6873   0.725   1.232   1.719 -2.7923 -0.1303 -2.8784
 2303TIP3    H2 6874   0.615   1.282   1.810 -0.6928  0.0998 -0.3189
 2304TIP3   OH2 6875   0.216   1.110   1.158  0.6352 -0.0267  0.0882
 2304TIP3    H1 6876   0.161   1.189   1.161  0.5185 -0.1188  1.8916
 2304TIP3    H2 6877   0.232   1.095   1.065 -1.8020  0.4136 -0.4837
 2305TIP3   OH2 6878   4.666   5.147   5.439 -0.0382  0.3471  1.0477
 2305TIP3    H1 6879   4.572   5.128   5.439 -0.3033  0.5425 -3.2923
 2305TIP3    H2 6880   4.671   5.241   5.457 -1.3388  1.3860 -2.8248
 2306TIP3   OH2 6881   4.313   5.764   2.827 -0.1329 -0.1072 -0.0326
 2306TIP3    H1 6882   4.327   5.670   2.825 -0.6931 -0.1852 -0.2435
 2306TIP3    H2 6883   4.241   5.780   2.767  0.0533  0.4760 -0.1115
 2307TIP3   OH2 6884   6.520   2.172   2.242 -0.0563  0.0313  0.1070
 2307TIP3    H1 6885   6.571   2.161   2.322 -0.9710  0.6873  0.7982
 2307TIP3    H2 6886   6.428   2.164   2.270 -0.3520 -1.6473 -1.1872
 2308TIP3   OH2 6887   2.988   4.677   0.902  0.3843 -0.0161 -0.0127
 2308TIP3    H1 6888   3.029   4.652   0.819  1.0209  0.0514  0.2756
 2308TIP3    H2 6889   3.014   4.769   0.915 -1.5237  0.6904 -0.8176
 2309TIP3   OH2 6890   5.852   3.161   1.430  0.6588  0.0260  0.3237
 2309TIP3    H1 6891   5.792   3.096   1.393  0.7193 -0.2802  0.7577
 2309TIP3    H2 6892   5.936   3.143   1.389  0.4972  0.3355 -0.1457
 2310TIP3   OH2 6893   1.125   5.062   1.552 -0.4895  0.5046 -0.4295
 2310TIP3    H1 6894   1.075   5.101   1.480  0.4582  0.1774 -1.2741
 2310TIP3    H2 6895   1.076   5.088   1.630 -1.8858  0.3649 -1.2074
 2311TIP3   OH2 6896   0.647   5.452   0.335  0.3804  0.5381 -0.0675
 2311TIP3    H1 6897   0.647   5.521   0.401 -2.6816  0.6191  0.0182
 2311TIP3    H2 6898   0.612   5.494   0.256 -0.3121 -0.5575 -0.3798
 2312TIP3   OH2 6899   4.543   4.706   4.668 -0.5074 -0.0074 -0.2416
 2312TIP3    H1 6900   4.512   4.670   4.585  0.7606 -1.0498 -0.2972
 2312TIP3    H2 6901   4.637   4.721   4.653 -0.7588  2.3445  0.1406
 2313TIP3   OH2 6902   6.283   4.875   2.610 -0.0168 -0.2411  0.1338
 2313TIP3    H1 6903   6.303   4.782   2.620  0.3160 -0.0391  1.5230
 2313TIP3    H2 6904   6.238   4.880   2.526 -0.4400 -1.7282  0.2279
 2314TIP3   OH2 6905   5.679   4.339   0.636 -0.2505  0.6339  0.0797
 2314TIP3    H1 6906   5.665   4.329   0.731  0.1933 -0.0493  0.0772
 2314TIP3    H2 6907   5.685   4.249   0.603 -0.6777  0.8649 -0.6419
 2315TIP3   OH2 6908   0.868   3.205   4.449 -0.0542 -0.0194  0.1696
 2315TIP3    H1 6909   0.825   3.174   4.529 -1.8399 -0.6154 -0.9599
 2315TIP3    H2 6910   0.808   3.270   4.413  0.6005  0.0616 -0.8219
 2316TIP3   OH2 6911   3.251   1.550   2.698 -0.2491  0.6232 -0.7336
 2316TIP3    H1 6912   3.167   1.563   2.654 -0.0122  1.5199 -0.9459
 2316TIP3    H2 6913   3.259   1.625   2.758 -0.6668 -0.6827  1.0192
 2317TIP3   OH2 6914   5.073   6.122   3.424 -0.2815 -0.2465 -0.0604
 2317TIP3    H1 6915   4.983   6.114   3.391 -0.5147 -0.8288  0.6925
 2317TIP3    H2 6916   5.064   6.117   3.519  0.7278 -2.4926 -0.0186
 2318TIP3   OH2 6917   3.212   1.722   0.158 -0.3024  0.0965  0.3806
 2318TIP3    H1 6918   3.298   1.697   0.125 -0.7065 -0.0449 -0.6133
 2318TIP3    H2 6919   3.225   1.737   0.252  0.6096 -0.7724  0.4030
 2319TIP3   OH2 6920   5.675   4.599   0.512 -0.4678  0.1183 -0.5047
 2319TIP3    H1 6921   5.708   4.654   0.584 -0.6246 -0.3013 -0.1100
 2319TIP3    H2 6922   5.721   4.516   0.522 -0.6789 -0.0279 -0.7369
 2320TIP3   OH2 6923   0.714   0.006   2.372 -0.0183  0.0031  0.6506
 2320TIP3    H1 6924   0.662   0.007   2.292 -0.1790 -1.3505  0.7102
 2320TIP3    H2 6925   0.650  -0.005   2.442  0.3180 -2.6308  0.6642
 2321TIP3   OH2 6926   2.661   1.983   3.088  0.3799  0.3694 -0.0346
 2321TIP3    H1 6927   2.610   1.958   3.010 -0.0340 -0.2015  0.4097
 2321TIP3    H2 6928   2.732   2.036   3.054 -1.5547  2.8522 -0.5181
 2322TIP3   OH2 6929   4.382   3.969   0.943 -0.3668 -0.4362  0.1860
 2322TIP3    H1 6930   4.448   3.899   0.941 -0.0531 -0.1353 -1.7496
 2322TIP3    H2 6931   4.396   4.013   1.026  0.9860 -1.2206  0.3983
 2323TIP3   OH2 6932   1.314   2.513   3.789 -0.0209  0.0220 -0.0715
 2323TIP3    H1 6933   1.250   2.489   3.856 -0.1564  3.3354  1.1511
 2323TIP3    H2 6934   1.292   2.458   3.714 -1.9007 -1.5542  1.5325
 2324TIP3   OH2 6935   2.384   3.463   1.441  0.0656 -0.3560 -0.3963
 2324TIP3    H1 6936   2.436   3.475   1.521  0.4084  1.0401 -0.7917
 2324TIP3    H2 6937   2.332   3.385   1.458  1.5171 -1.1928  0.4334
 2325TIP3   OH2 6938   6.612   0.167   2.178  0.5576 -0.3864 -0.1460
 2325TIP3    H1 6939   6.628   0.093   2.118  2.0628  0.4487 -0.8407
 2325TIP3    H2 6940   6.551   0.223   2.131 -0.0162 -0.8114  0.0748
 2326TIP3   OH2 6941   1.141   0.148   0.607 -0.3294  0.3381 -0.6003
 2326TIP3    H1 6942   1.054   0.150   0.567  0.3206 -2.0491 -2.3697
 2326TIP3    H2 6943   1.201   0.154   0.533  0.9417 -2.1451  0.1121
 2327TIP3   OH2 6944   6.923   1.283   0.315  0.0612 -0.4420 -0.0512
 2327TIP3    H1 6945   6.939   1.196   0.351 -0.8756 -1.4032 -1.8317
 2327TIP3    H2 6946   6.832   1.302   0.338  0.4635  0.3768  0.9075
 2328TIP3   OH2 6947   3.648   1.468   3.899  0.5775 -0.2569  0.3348
 2328TIP3    H1 6948   3.647   1.507   3.987  0.4737 -0.8128  0.5830
 2328TIP3    H2 6949   3.634   1.542   3.840  1.2494  0.2156  0.7491
 2329TIP3   OH2 6950   1.505   0.190   5.346  0.4570  0.0270 -0.2966
 2329TIP3    H1 6951   1.417   0.205   5.312  0.0951 -0.5873  0.3459
 2329TIP3    H2 6952   1.534   0.276   5.377 -0.8800 -0.1755  1.6944
 2330TIP3   OH2 6953   6.721   1.332   1.698 -0.9530 -0.0068 -0.1877
 2330TIP3    H1 6954   6.706   1.318   1.791 -1.4621 -0.7617 -0.3764
 2330TIP3    H2 6955   6.658   1.275   1.655  0.7917 -1.3781 -1.0172
 2331TIP3   OH2 6956   0.003   3.263   5.314 -0.3266  0.1713  0.2843
 2331TIP3    H1 6957   0.039   3.307   5.391 -0.0382 -4.1377  2.9702
 2331TIP3    H2 6958   0.076   3.257   5.253  0.3135  1.0851  0.9350
 2332TIP3   OH2 6959   6.105   1.867   5.872 -0.3176 -0.4040 -0.1214
 2332TIP3    H1 6960   6.095   1.910   5.787  0.6675 -0.3942 -0.2423
 2332TIP3    H2 6961   6.020   1.880   5.915 -0.1927  1.3317 -0.3115
 2333TIP3   OH2 6962   0.764   4.341   0.683  0.2397  0.1558  0.0968
 2333TIP3    H1 6963   0.711   4.413   0.716  0.1334  0.2673 -0.3013
 2333TIP3    H2 6964   0.848   4.380   0.661 -0.0780  0.3443 -0.8824
 2334TIP3   OH2 6965   1.411   0.676   0.307  0.1251  0.3807 -0.3330
 2334TIP3    H1 6966   1.475   0.700   0.240  1.8322 -1.5812  0.4682
 2334TIP3    H2 6967   1.460   0.678   0.389 -0.5191 -2.0189  0.2080
 2335TIP3   OH2 6968   2.575   4.558   2.944  0.1843 -0.0891  0.2718
 2335TIP3    H1 6969   2.639   4.618   2.904  1.5733 -0.4088  1.8638
 2335TIP3    H2 6970   2.579   4.479   2.890  1.9318 -0.4751  0.8849
 2336TIP3   OH2 6971   1.327   4.268   0.588  0.4851  0.1493  0.3479
 2336TIP3    H1 6972   1.253   4.325   0.609  1.0519  1.3986 -0.8927
 2336TIP3    H2 6973   1.398   4.301   0.643  0.3104 -0.6077  1.0350
 2337TIP3   OH2 6974   5.935   4.099   0.468 -0.1761  0.4089  0.5355
 2337TIP3    H1 6975   5.977   4.031   0.416 -0.7720  1.0093 -0.7852
 2337TIP3    H2 6976   5.871   4.052   0.522  1.5990 -0.4238  2.0377
 2338TIP3   OH2 6977   5.645   4.206   1.632  0.0255  0.5272 -0.0638
 2338TIP3    H1 6978   5.724   4.240   1.674  1.6045 -2.3282 -0.4793
 2338TIP3    H2 6979   5.577   4.215   1.698  1.4493  0.1834  1.5105
 2339TIP3   OH2 6980   5.462   6.204   2.328  0.3352  0.4255 -0.0597
 2339TIP3    H1 6981   5.419   6.174   2.247  1.1900 -1.6772  0.1786
 2339TIP3    H2 6982   5.487   6.294   2.310 -0.5546  0.3902 -1.6995
 2340TIP3   OH2 6983   6.138   5.732   1.860  0.3603 -0.5674 -0.2724
 2340TIP3    H1 6984   6.230   5.711   1.847  0.4326 -0.5892  0.2292
 2340TIP3    H2 6985   6.129   5.740   1.955 -0.3824 -1.6402 -0.2314
 2341TIP3   OH2 6986   7.044   3.570   2.986 -0.7518 -0.6026  0.6009
 2341TIP3    H1 6987   7.013   3.561   3.077  0.2173  2.2403  1.3085
 2341TIP3    H2 6988   7.001   3.649   2.954  0.4393 -0.4728 -0.7415
 2342TIP3   OH2 6989   5.316   2.328   2.367 -0.3100 -0.3000  0.5818
 2342TIP3    H1 6990   5.304   2.423   2.363  0.9528 -0.1284  0.4223
 2342TIP3    H2 6991   5.410   2.316   2.363 -0.4951 -1.6219 -0.5589
 2343TIP3   OH2 6992   3.439   6.454   4.496 -0.7330 -0.3868 -0.2433
 2343TIP3    H1 6993   3.427   6.456   4.591 -2.1066  1.8221 -0.4190
 2343TIP3    H2 6994   3.427   6.362   4.473 -1.8458 -0.7375  1.5406
 2344TIP3   OH2 6995   2.615   1.097   0.825  0.3495 -0.8612 -1.3498
 2344TIP3    H1 6996   2.565   1.137   0.755  0.2494 -1.5554 -1.6826
 2344TIP3    H2 6997   2.561   1.023   0.854 -0.7095  0.7202  1.0129
 2345TIP3   OH2 6998   5.794   2.904   1.598  0.2845  0.2485 -0.0853
 2345TIP3    H1 6999   5.844   2.850   1.660 -1.0929 -3.1078 -1.6669
 2345TIP3    H2 7000   5.741   2.961   1.654 -0.1535 -1.9048  1.8858
 2346TIP3   OH2 7001   0.567   1.676   2.934 -0.2356  0.1154  0.2754
 2346TIP3    H1 7002   0.577   1.746   2.869  0.1942  0.6038  0.8529
 2346TIP3    H2 7003   0.539   1.722   3.014 -2.0658 -0.6203  0.1052
 2347TIP3   OH2 7004   0.075   2.620   5.766 -0.4331 -0.0754 -0.1123
 2347TIP3    H1 7005   0.052   2.606   5.858  0.4064  0.0978  0.1354
 2347TIP3    H2 7006   0.077   2.715   5.756 -2.8746 -0.0534 -0.9437
 2348TIP3   OH2 7007   2.376   3.505   2.631 -0.2382 -0.6526 -0.1213
 2348TIP3    H1 7008   2.405   3.549   2.550  1.5853 -2.0183 -0.2601
 2348TIP3    H2 7009   2.352   3.417   2.602  0.2335 -1.0848  0.7869
 2349TIP3   OH2 7010   5.423   6.419   5.078 -0.0966  0.1091  0.9074
 2349TIP3    H1 7011   5.396   6.349   5.018  1.1779 -0.1746  0.6438
 2349TIP3    H2 7012   5.486   6.377   5.136  0.2309  0.9012  1.1252
 2350TIP3   OH2 7013   3.151   3.778   0.469  0.1359  0.1040  1.1724
 2350TIP3    H1 7014   3.145   3.870   0.492 -0.1210 -0.0161  1.5981
 2350TIP3    H2 7015   3.241   3.767   0.437 -0.9433  1.3894 -2.8804
 2351TIP3   OH2 7016   0.507   2.100   5.433  0.1261 -0.4268  0.2528
 2351TIP3    H1 7017   0.537   2.188   5.456 -0.6582  0.4159 -1.7447
 2351TIP3    H2 7018   0.413   2.110   5.420  0.1210 -1.4366 -0.5460
 2352TIP3   OH2 7019   5.327   4.424   5.735 -0.1850 -0.3190 -0.1114
 2352TIP3    H1 7020   5.264   4.355   5.713 -2.8899  2.1596 -0.7252
 2352TIP3    H2 7021   5.368   4.394   5.816 -3.7904 -1.1641  1.6036
 2353TIP3   OH2 7022   3.266   2.631   2.887  0.6337 -0.2280  0.3432
 2353TIP3    H1 7023   3.224   2.665   2.808 -0.0571 -1.6745  0.0511
 2353TIP3    H2 7024   3.204   2.653   2.958  1.2133  0.9916  0.4978
 2354TIP3   OH2 7025   1.495   0.375   3.928  0.1574  0.6338  0.0360
 2354TIP3    H1 7026   1.532   0.306   3.985 -2.1991 -1.0193 -0.2985
 2354TIP3    H2 7027   1.572   0.423   3.897  1.7712 -0.5501  1.9140
 2355TIP3   OH2 7028   4.575   5.286   1.883  0.2365  0.1661  0.3213
 2355TIP3    H1 7029   4.574   5.363   1.827 -0.9774  0.1814  0.3460
 2355TIP3    H2 7030   4.538   5.216   1.829 -0.9463  0.1823  1.0616
 2356TIP3   OH2 7031   5.762   3.599   4.130 -0.0792  0.3904  0.5773
 2356TIP3    H1 7032   5.673   3.564   4.130  0.7406 -1.8875  1.4912
 2356TIP3    H2 7033   5.769   3.646   4.047 -1.9989  0.3026  0.3151
 2357TIP3   OH2 7034   0.556   4.872   2.168  0.2251 -0.4092 -0.1781
 2357TIP3    H1 7035   0.500   4.794   2.165  0.3730 -0.5468  0.4800
 2357TIP3    H2 7036   0.506   4.936   2.218  0.1265 -0.0901 -0.6737
 2358TIP3   OH2 7037   3.428   0.632   1.094 -0.3935 -0.5615 -0.6525
 2358TIP3    H1 7038   3.445   0.704   1.154 -1.6523 -2.2215  1.8425
 2358TIP3    H2 7039   3.504   0.575   1.103 -0.4022 -0.6308 -0.9872
 2359TIP3   OH2 7040   5.140   1.829   5.336 -0.0529  0.4965 -0.4680
 2359TIP3    H1 7041   5.167   1.901   5.280  1.2143 -0.4943 -1.1915
 2359TIP3    H2 7042   5.209   1.822   5.402 -0.2024 -0.0102 -0.3593
 2360TIP3   OH2 7043   6.315   1.853   0.970 -0.3598  0.1280 -0.2862
 2360TIP3    H1 7044   6.370   1.905   1.030  0.8681 -1.2124 -0.1854
 2360TIP3    H2 7045   6.299   1.911   0.896  1.5034  0.4795 -0.4660
 2361TIP3   OH2 7046   3.673   3.839   2.840  0.2503  0.0681 -0.0356
 2361TIP3    H1 7047   3.644   3.813   2.752 -0.6529  0.1752  0.2213
 2361TIP3    H2 7048   3.649   3.932   2.846 -1.5283 -0.4273  1.0489
 2362TIP3   OH2 7049   7.119   2.659   0.772  0.2272 -0.4678 -0.5338
 2362TIP3    H1 7050   7.152   2.712   0.699 -0.3957  1.5287  0.5480
 2362TIP3    H2 7051   7.151   2.704   0.850  0.8166 -2.5145  0.4633
 2363TIP3   OH2 7052   5.903   0.917   4.445 -0.2373 -0.3782  0.0353
 2363TIP3    H1 7053   5.863   0.837   4.479  1.6261 -0.7401  1.5463
 2363TIP3    H2 7054   5.902   0.978   4.518  2.5552 -0.6662  0.4305
 2364TIP3   OH2 7055   6.657   6.278   5.011  0.0125  0.2149 -0.5440
 2364TIP3    H1 7056   6.562   6.266   5.014 -0.2126  0.7636 -3.1572
 2364TIP3    H2 7057   6.689   6.240   5.093 -2.1471 -2.8987 -0.9873
 2365TIP3   OH2 7058   0.304   4.830   4.266 -0.6219  0.3469  0.0223
 2365TIP3    H1 7059   0.340   4.804   4.351 -0.6858  2.8829  0.9083
 2365TIP3    H2 7060   0.219   4.869   4.287  0.2212  2.8675 -0.8943
 2366TIP3   OH2 7061   5.494   3.526   4.083  0.5511  0.0068 -0.2284
 2366TIP3    H1 7062   5.444   3.458   4.129  1.2643 -0.2573  0.1777
 2366TIP3    H2 7063   5.468   3.607   4.126  0.4160 -0.1205 -0.0640
 2367TIP3   OH2 7064   1.829   1.921   0.101  0.4253 -0.2601 -0.4882
 2367TIP3    H1 7065   1.744   1.931   0.059  0.0961  0.2003  0.2693
 2367TIP3    H2 7066   1.816   1.956   0.190  1.1770 -0.9320 -0.1004
 2368TIP3   OH2 7067   4.601   6.708   1.015 -0.5442  0.1915 -0.0374
 2368TIP3    H1 7068   4.597   6.801   0.995 -0.3031 -0.0200 -1.1863
 2368TIP3    H2 7069   4.580   6.665   0.931 -2.6941 -0.7891  0.9174
 2369TIP3   OH2 7070   2.498   2.904   0.506  0.3146  0.1179 -0.2936
 2369TIP3    H1 7071   2.541   2.979   0.466  0.7549  0.3209  0.5532
 2369TIP3    H2 7072   2.491   2.926   0.599  1.1419 -1.2047  0.1072
 2370TIP3   OH2 7073   1.523   0.796   2.978  0.8301  0.2975 -0.2168
 2370TIP3    H1 7074   1.607   0.788   2.932  0.4665 -1.3605 -0.6692
 2370TIP3    H2 7075   1.501   0.889   2.972  1.6640  0.4367 -1.8284
 2371TIP3   OH2 7076   1.711   5.400   5.318  0.1365  0.0433 -0.5167
 2371TIP3    H1 7077   1.663   5.414   5.236  1.9192 -1.1257 -1.8223
 2371TIP3    H2 7078   1.643   5.395   5.385 -1.3405  1.6629 -1.7988
 2372TIP3   OH2 7079   6.983   0.657   0.678  0.0255 -0.0718 -0.9411
 2372TIP3    H1 7080   7.078   0.649   0.670  0.1040  0.3152 -0.4891
 2372TIP3    H2 7081   6.971   0.723   0.746 -0.5619 -0.7747 -0.3416
 2373TIP3   OH2 7082   7.003   4.256   5.686  0.2301 -0.3713 -0.0722
 2373TIP3    H1 7083   7.031   4.169   5.715 -0.5799 -0.8258 -0.6016
 2373TIP3    H2 7084   6.908   4.248   5.679  0.1398  0.6062  0.0151
 2374TIP3   OH2 7085   5.835   1.555   4.936 -0.0242  0.4212  0.1476
 2374TIP3    H1 7086   5.747   1.572   4.970  0.6375  0.8865  1.7364
 2374TIP3    H2 7087   5.832   1.465   4.906 -0.7711  0.0631  1.2141
 2375TIP3   OH2 7088   3.220   1.171   0.035 -0.3362  0.4946  0.5287
 2375TIP3    H1 7089   3.147   1.225   0.066 -0.1881  0.9177  0.1527
 2375TIP3    H2 7090   3.242   1.208  -0.051 -0.7116 -0.6301 -0.0651
 2376TIP3   OH2 7091   4.871   4.351   2.504 -0.1337 -0.1205  0.5483
 2376TIP3    H1 7092   4.928   4.280   2.533 -0.0273  0.0281  0.7005
 2376TIP3    H2 7093   4.893   4.425   2.561  0.7412  0.4518 -0.4868
 2377TIP3   OH2 7094   1.398   6.584   2.760  0.6251  0.3746 -0.0750
 2377TIP3    H1 7095   1.312   6.625   2.757 -0.0256 -0.7483  1.7080
 2377TIP3    H2 7096   1.443   6.627   2.833  1.0834  0.0174 -0.1424
 2378TIP3   OH2 7097   6.324   0.611   0.243  0.4095  0.4338 -0.5649
 2378TIP3    H1 7098   6.401   0.586   0.193  0.9615 -0.0904  0.5126
 2378TIP3    H2 7099   6.343   0.699   0.274  0.0209  0.8026 -1.3323
 2379TIP3   OH2 7100   6.694   0.910   5.258 -0.2340 -0.5572  0.0691
 2379TIP3    H1 7101   6.720   0.994   5.218 -0.0786 -0.9136 -0.5931
 2379TIP3    H2 7102   6.761   0.894   5.324 -1.1116  0.5973  1.3004
 2380TIP3   OH2 7103   5.691   0.629   4.996  0.3788  0.2396  0.4636
 2380TIP3    H1 7104   5.683   0.703   4.937  0.9671  1.5118  1.9119
 2380TIP3    H2 7105   5.640   0.653   5.073 -1.8121 -2.1169 -0.1355
 2381TIP3   OH2 7106   6.725   2.906   2.453  0.1556  0.1111 -0.6537
 2381TIP3    H1 7107   6.782   2.901   2.376 -0.2354  0.5220 -0.9750
 2381TIP3    H2 7108   6.758   2.838   2.512 -0.6274 -1.4430 -1.9231
 2382TIP3   OH2 7109   4.916   2.972   0.300  0.2612  0.4071  0.2321
 2382TIP3    H1 7110   4.913   2.970   0.396  2.2738 -0.3836  0.3349
 2382TIP3    H2 7111   4.973   2.899   0.277  0.9900  1.4636 -1.4809
 2383TIP3   OH2 7112   5.834   1.013   5.701  0.1947  0.4273 -0.8593
 2383TIP3    H1 7113   5.856   0.941   5.760 -1.7927  1.2151  0.9597
 2383TIP3    H2 7114   5.918   1.051   5.676  1.1432  0.8788  2.5754
 2384TIP3   OH2 7115   4.056   0.419   1.847  0.1190 -0.6457 -0.0410
 2384TIP3    H1 7116   3.980   0.414   1.904  1.5867  0.2579  2.1077
 2384TIP3    H2 7117   4.023   0.456   1.765 -1.8822 -1.1562  0.5016
 2385TIP3   OH2 7118   0.346   3.019   4.739  0.3899 -0.6009 -0.6074
 2385TIP3    H1 7119   0.410   3.007   4.809 -0.5441  0.4397  0.4531
 2385TIP3    H2 7120   0.338   3.114   4.729 -0.6213 -0.7143 -1.0498
 2386TIP3   OH2 7121   0.517   6.137   5.188 -0.0655 -0.6205 -1.2583
 2386TIP3    H1 7122   0.527   6.215   5.134 -0.0224 -0.6002 -1.2214
 2386TIP3    H2 7123   0.604   6.096   5.188  0.2559  0.0107 -0.2542
 2387TIP3   OH2 7124   0.056   1.444   5.313  0.3233 -0.1734  0.0575
 2387TIP3    H1 7125   0.017   1.489   5.238 -0.0170 -0.3351  0.1334
 2387TIP3    H2 7126   0.091   1.363   5.277  1.0652  0.2169 -0.1052
 2388TIP3   OH2 7127   2.197   1.587   4.376 -0.4987  0.2214 -0.4343
 2388TIP3    H1 7128   2.180   1.502   4.335 -0.9746  0.7312 -1.3230
 2388TIP3    H2 7129   2.224   1.644   4.303  1.3940  0.4291  0.3798
 2389TIP3   OH2 7130   0.745   2.335   0.061 -0.3532 -0.0488 -0.5674
 2389TIP3    H1 7131   0.661   2.367   0.093 -0.4580  0.4205 -1.2877
 2389TIP3    H2 7132   0.808   2.362   0.128 -1.0138 -2.2355  1.0454
 2390TIP3   OH2 7133   5.447   3.588   2.869  0.3830  0.1031  0.4672
 2390TIP3    H1 7134   5.537   3.620   2.873  0.2329  0.5744  0.1248
 2390TIP3    H2 7135   5.419   3.608   2.780 -0.0483 -0.0839  0.5608
 2391TIP3   OH2 7136   2.034   6.193  -0.026  0.3533  0.6136 -0.6957
 2391TIP3    H1 7137   1.939   6.183  -0.016  0.2713  0.5488 -1.5338
 2391TIP3    H2 7138   2.070   6.147   0.050 -0.2993  1.2742  0.0333
 2392TIP3   OH2 7139   5.757   2.409   2.627 -0.1949  0.4469  0.1956
 2392TIP3    H1 7140   5.703   2.342   2.585 -0.6144 -0.0084  1.4219
 2392TIP3    H2 7141   5.797   2.365   2.702 -1.1301  1.7502  1.5238
 2393TIP3   OH2 7142   7.194   5.744   3.667 -0.1515 -0.1051 -0.1131
 2393TIP3    H1 7143   7.123   5.782   3.616 -0.9416 -0.9309  0.3432
 2393TIP3    H2 7144   7.224   5.669   3.616  1.7128  1.3117 -1.2324
 2394TIP3   OH2 7145   1.948   1.151   2.575  0.4349  0.3848 -0.4268
 2394TIP3    H1 7146   2.002   1.159   2.654  0.8324 -1.5590 -0.4427
 2394TIP3    H2 7147   1.903   1.235   2.569 -1.3179 -0.0807  3.1393
 2395TIP3   OH2 7148   3.527   2.696   2.776 -0.5150  0.3856  0.5427
 2395TIP3    H1 7149   3.507   2.771   2.720 -0.4276 -0.7916 -1.1523
 2395TIP3    H2 7150   3.442   2.662   2.801 -0.7287 -1.3971 -2.1979
 2396TIP3   OH2 7151   0.406   1.390   2.453  0.4024  0.3787 -0.2026
 2396TIP3    H1 7152   0.310   1.400   2.453  0.4021  0.3998  0.5100
 2396TIP3    H2 7153   0.421   1.304   2.491  0.7259  1.1962  1.6507
 2397TIP3   OH2 7154   5.232   5.091   4.369 -0.4525  0.7416  0.3252
 2397TIP3    H1 7155   5.279   5.013   4.396  1.3880  0.9857 -1.9052
 2397TIP3    H2 7156   5.151   5.089   4.420  0.2114 -1.7788  1.4223
 2398TIP3   OH2 7157   5.951   0.910   4.891  0.1110  0.0547  0.0458
 2398TIP3    H1 7158   5.861   0.877   4.892  1.0548 -2.8359 -0.3738
 2398TIP3    H2 7159   5.963   0.952   4.976 -0.4445 -3.2597  1.9340
 2399TIP3   OH2 7160   4.597   3.531   2.149 -0.0469 -0.4802 -0.0724
 2399TIP3    H1 7161   4.648   3.451   2.143  1.1426  0.2152  0.4930
 2399TIP3    H2 7162   4.654   3.599   2.115 -0.9295  0.1805 -0.2622
 2400TIP3   OH2 7163   1.289   6.258   0.616  0.6888 -0.1989  0.5622
 2400TIP3    H1 7164   1.240   6.180   0.590  1.4327 -0.6149  0.3897
 2400TIP3    H2 7165   1.379   6.227   0.628  0.5435  0.0965  2.9540
 2401TIP3   OH2 7166   6.388   1.440   2.855  0.1468 -0.0406 -0.3131
 2401TIP3    H1 7167   6.472   1.402   2.831 -1.0560 -1.1032 -3.3356
 2401TIP3    H2 7168   6.409   1.526   2.892  2.5344 -0.5220 -0.4495
 2402TIP3   OH2 7169   2.975   4.985   2.235 -0.5707 -0.4488  0.1827
 2402TIP3    H1 7170   2.904   5.025   2.184 -1.5230 -1.7258  0.4544
 2402TIP3    H2 7171   2.936   4.905   2.271  1.2116 -1.5004 -0.1588
 2403TIP3   OH2 7172   6.149   1.938   4.094 -0.4794  0.5502  0.1874
 2403TIP3    H1 7173   6.233   1.903   4.124 -0.8718  0.4436  1.1909
 2403TIP3    H2 7174   6.134   2.015   4.148 -1.8094 -0.3738  1.1860
 2404TIP3   OH2 7175   6.378   5.174   1.828  0.4081 -0.2043 -0.6117
 2404TIP3    H1 7176   6.357   5.254   1.877 -2.0318 -1.2368  0.2276
 2404TIP3    H2 7177   6.443   5.201   1.764  1.9913  1.7501  1.6405
 2405TIP3   OH2 7178   1.903   3.040   2.654 -0.3226  0.5319 -0.3377
 2405TIP3    H1 7179   1.872   2.951   2.674  1.4489 -0.1353 -0.4401
 2405TIP3    H2 7180   1.830   3.080   2.607 -0.9280 -1.0745 -0.8259
 2406TIP3   OH2 7181   3.728   0.752   5.583 -0.2669  0.1107 -0.0323
 2406TIP3    H1 7182   3.649   0.761   5.530  0.1403  0.9707 -0.5245
 2406TIP3    H2 7183   3.723   0.664   5.620 -2.1773  0.6361  1.1189
 2407TIP3   OH2 7184   6.385   6.422   5.486  0.0859 -0.4855  0.1243
 2407TIP3    H1 7185   6.461   6.415   5.544 -0.1478 -2.2386  0.2817
 2407TIP3    H2 7186   6.422   6.435   5.399  0.4884  0.5273  0.4343
 2408TIP3   OH2 7187   1.387   6.303   2.774  0.2991 -0.2586 -0.0553
 2408TIP3    H1 7188   1.360   6.385   2.733  1.0744  0.6265  1.1300
 2408TIP3    H2 7189   1.469   6.324   2.818  0.8235 -1.8335 -0.2126
 2409TIP3   OH2 7190   1.324   5.095   5.754 -0.2294 -0.2881  0.1465
 2409TIP3    H1 7191   1.393   5.044   5.711 -0.5749 -0.1322 -0.6067
 2409TIP3    H2 7192   1.269   5.029   5.798  0.1600 -0.4433  0.4047
 2410TIP3   OH2 7193   0.029   3.451   0.890 -0.2603 -0.3675 -0.0439
 2410TIP3    H1 7194   0.032   3.421   0.981 -0.5075 -1.1540 -0.2813
 2410TIP3    H2 7195   0.005   3.543   0.896 -1.5997 -0.7189  0.6525
 2411TIP3   OH2 7196   2.574   4.689   0.995  0.0555 -0.1356 -0.6710
 2411TIP3    H1 7197   2.504   4.696   1.060 -1.2996 -5.5934 -1.0257
 2411TIP3    H2 7198   2.531   4.705   0.911 -0.1071 -0.7125 -0.7009
 2412TIP3   OH2 7199   1.460   2.425   5.322  0.5134 -0.3203 -0.0886
 2412TIP3    H1 7200   1.479   2.353   5.382 -0.4670 -1.0697 -0.6535
 2412TIP3    H2 7201   1.539   2.479   5.324  0.3557 -0.0817  2.1763
 2413TIP3   OH2 7202   7.153   1.489   2.631  0.1605 -0.5502  0.0740
 2413TIP3    H1 7203   7.144   1.396   2.654  0.1193 -1.0582 -1.7760
 2413TIP3    H2 7204   7.178   1.532   2.712 -2.1953 -1.7723  1.5640
 2414TIP3   OH2 7205   6.041   3.719   4.145 -0.5278 -0.3097 -0.1973
 2414TIP3    H1 7206   5.970   3.660   4.120 -0.5657 -1.1227  1.6593
 2414TIP3    H2 7207   6.118   3.663   4.151  0.0440  0.3604 -1.0697
 2415TIP3   OH2 7208   1.929   3.752   0.502  0.3617 -0.0509  0.3655
 2415TIP3    H1 7209   1.876   3.675   0.521 -0.7647  0.4080 -0.7623
 2415TIP3    H2 7210   1.998   3.750   0.568 -0.4924 -1.2096  1.2818
 2416TIP3   OH2 7211   0.913   6.645   4.805 -0.4551 -0.6763  0.1868
 2416TIP3    H1 7212   0.893   6.639   4.898 -0.9209 -1.3407  0.0484
 2416TIP3    H2 7213   0.937   6.737   4.792  0.4665 -0.7701  1.1190
 2417TIP3   OH2 7214   2.270   4.610   2.035  0.5816 -0.5950  0.6837
 2417TIP3    H1 7215   2.219   4.638   2.112  0.2395 -0.4362  0.4057
 2417TIP3    H2 7216   2.316   4.689   2.007  1.4115 -0.8631  1.2509
 2418TIP3   OH2 7217   4.401   6.328   3.043 -0.0344  0.1296  0.5146
 2418TIP3    H1 7218   4.484   6.374   3.043  0.9850 -1.5382 -1.4366
 2418TIP3    H2 7219   4.351   6.368   2.971 -0.4735  0.3597  0.9388
 2419TIP3   OH2 7220   0.564   2.976   4.490 -0.5459 -0.9482 -0.6653
 2419TIP3    H1 7221   0.601   3.055   4.528 -0.5425 -1.5178  0.5562
 2419TIP3    H2 7222   0.625   2.907   4.514 -1.0789 -1.4852 -0.8331
 2420TIP3   OH2 7223   5.384   4.223   5.058  0.0890 -0.0798 -0.1871
 2420TIP3    H1 7224   5.329   4.282   5.110 -1.0719  0.1233 -1.5752
 2420TIP3    H2 7225   5.325   4.153   5.031  0.7308 -0.3442 -0.9558
 2421TIP3   OH2 7226   1.371   1.277   4.264 -0.3324  0.3885  0.1255
 2421TIP3    H1 7227   1.435   1.210   4.288 -0.7081  0.9317  2.9753
 2421TIP3    H2 7228   1.302   1.269   4.330 -1.6372  1.9291 -0.9737
 2422TIP3   OH2 7229   0.265   4.590   4.072 -0.1047 -0.0324  0.4444
 2422TIP3    H1 7230   0.356   4.617   4.061  0.0686 -0.6279  0.3751
 2422TIP3    H2 7231   0.264   4.499   4.043 -0.8775  0.2004 -0.2650
 2423TIP3   OH2 7232   3.615   3.229   2.780 -0.2958 -0.1723 -0.5369
 2423TIP3    H1 7233   3.682   3.172   2.816 -2.0158 -0.0349  3.5014
 2423TIP3    H2 7234   3.638   3.316   2.812  0.9420  1.1683 -4.5413
 2424TIP3   OH2 7235   4.116   0.295   3.492  0.2130 -0.2157  0.3353
 2424TIP3    H1 7236   4.116   0.368   3.429  0.0288  0.1948  0.8069
 2424TIP3    H2 7237   4.208   0.278   3.509  0.3767 -1.9046 -1.8375
 2425TIP3   OH2 7238   1.479   1.913   3.951  0.2052  0.2317  0.4670
 2425TIP3    H1 7239   1.463   1.989   4.006  0.6772  0.7745 -0.1295
 2425TIP3    H2 7240   1.551   1.939   3.894 -0.3491 -0.2674 -0.4879
 2426TIP3   OH2 7241   1.650   4.224   5.756 -0.4128 -0.0041 -0.4923
 2426TIP3    H1 7242   1.576   4.169   5.782 -0.5359  1.5328  2.9339
 2426TIP3    H2 7243   1.726   4.166   5.762 -0.7946 -0.3876  0.8562
 2427TIP3   OH2 7244   5.392   3.627   1.240 -0.0673  0.4070  0.3351
 2427TIP3    H1 7245   5.341   3.548   1.222  0.1581  0.1713  0.7006
 2427TIP3    H2 7246   5.329   3.699   1.233 -0.1140  0.2830 -0.7850
 2428TIP3   OH2 7247   6.954   5.522   5.129 -0.8622  0.4325 -0.4846
 2428TIP3    H1 7248   6.933   5.430   5.114 -0.2572  0.3695 -0.9512
 2428TIP3    H2 7249   6.933   5.537   5.221  1.8284 -0.9686  0.4590
 2429TIP3   OH2 7250   0.665   3.464   2.357 -0.3668  0.2202 -0.1478
 2429TIP3    H1 7251   0.664   3.540   2.299  1.8682  1.7826  1.6837
 2429TIP3    H2 7252   0.757   3.451   2.379 -1.0610 -0.4897  2.7655
 2430TIP3   OH2 7253   3.394   0.335   2.882 -0.0370  0.2473  0.5941
 2430TIP3    H1 7254   3.402   0.245   2.913 -0.8308 -0.4525 -1.0872
 2430TIP3    H2 7255   3.313   0.367   2.923 -0.5374 -0.3228  0.0776
 2431TIP3   OH2 7256   1.343   6.752   4.599  0.8449  0.0166 -0.1741
 2431TIP3    H1 7257   1.311   6.804   4.526 -0.1630  0.4033  0.5281
 2431TIP3    H2 7258   1.272   6.692   4.620  0.7493  0.5369  1.0762
 2432TIP3   OH2 7259   1.134   1.199   1.747  0.3043 -0.2148  0.0300
 2432TIP3    H1 7260   1.115   1.292   1.746  1.0952 -0.0425 -0.3538
 2432TIP3    H2 7261   1.214   1.191   1.799  0.9123 -0.5183 -0.9152
 2433TIP3   OH2 7262   1.000   1.283   5.052 -0.3217  1.0069 -0.1919
 2433TIP3    H1 7263   1.070   1.347   5.061 -0.3181  1.3334 -2.1968
 2433TIP3    H2 7264   1.038   1.201   5.085  0.3163  1.6084  0.5930
 2434TIP3   OH2 7265   2.273   3.369   3.501 -0.0065 -0.1831 -0.7458
 2434TIP3    H1 7266   2.218   3.446   3.489 -0.8926 -0.7413 -0.4338
 2434TIP3    H2 7267   2.355   3.390   3.457  0.2253  1.4005  0.3434
 2435TIP3   OH2 7268   4.648   6.096   2.838 -0.7695  0.3579 -0.5767
 2435TIP3    H1 7269   4.667   6.034   2.768  0.8717 -1.0999  1.0297
 2435TIP3    H2 7270   4.562   6.070   2.871 -1.0540  0.3554 -1.3067
 2436TIP3   OH2 7271   3.331   5.394   4.835  0.3742  0.6965  0.1347
 2436TIP3    H1 7272   3.298   5.386   4.925  2.0179 -0.0702  0.7105
 2436TIP3    H2 7273   3.255   5.375   4.780 -0.4567  0.2805  1.3786
 2437TIP3   OH2 7274   5.560   1.758   3.080 -0.1120  0.2184  0.2047
 2437TIP3    H1 7275   5.479   1.797   3.046 -0.4684  0.2892  1.1006
 2437TIP3    H2 7276   5.534   1.672   3.111  0.1054  0.3401  0.7281
 2438TIP3   OH2 7277   5.386   6.266   5.736  0.1265 -0.0284 -0.5819
 2438TIP3    H1 7278   5.440   6.307   5.803 -3.7489  2.1097  1.5988
 2438TIP3    H2 7279   5.348   6.340   5.688  1.1203 -1.4752 -3.8827
 2439TIP3   OH2 7280   5.043   0.388   3.321  1.0593  0.2794  0.5558
 2439TIP3    H1 7281   5.036   0.293   3.310 -2.3172  0.3171  1.4808
 2439TIP3    H2 7282   5.080   0.399   3.408  0.2233 -0.2040  0.9776
 2440TIP3   OH2 7283   6.794   3.474   5.485  0.0447  0.1129 -0.3905
 2440TIP3    H1 7284   6.721   3.506   5.433  0.6204  0.3954 -1.0404
 2440TIP3    H2 7285   6.846   3.553   5.505  0.5558 -0.1760 -0.5493
 2441TIP3   OH2 7286   2.177   0.825   0.087 -0.2781 -0.1256 -0.2364
 2441TIP3    H1 7287   2.152   0.814  -0.005 -0.4962  0.7963 -0.3046
 2441TIP3    H2 7288   2.257   0.773   0.097 -0.1827 -0.1328 -0.9869
 2442TIP3   OH2 7289   2.142   6.330   2.017 -0.3024 -0.0212 -0.7279
 2442TIP3    H1 7290   2.191   6.251   1.991  0.1534 -0.1117  0.3422
 2442TIP3    H2 7291   2.208   6.399   2.019 -0.2541 -0.0819  0.4452
 2443TIP3   OH2 7292   4.536   5.590   1.836  0.4432 -0.0186 -0.8680
 2443TIP3    H1 7293   4.625   5.563   1.857  0.9825  1.1174 -1.5956
 2443TIP3    H2 7294   4.528   5.677   1.875  0.4833  0.8933 -2.8159
 2444TIP3   OH2 7295   2.854   1.439   0.507 -0.0088 -0.1661 -0.0129
 2444TIP3    H1 7296   2.910   1.510   0.539  2.1771 -1.6510 -0.3165
 2444TIP3    H2 7297   2.915   1.368   0.487 -1.8618 -1.2546 -2.1570
 2445TIP3   OH2 7298   1.423   0.330   5.036  0.1157  0.0461 -0.0797
 2445TIP3    H1 7299   1.411   0.313   4.942 -0.4695 -0.8321  0.1486
 2445TIP3    H2 7300   1.359   0.274   5.079  0.0642  0.7863  0.8346
 2446TIP3   OH2 7301   3.604   3.122   5.109 -0.3223 -0.1393  0.2954
 2446TIP3    H1 7302   3.592   3.169   5.027 -0.6297 -0.2832  0.2558
 2446TIP3    H2 7303   3.626   3.032   5.083 -0.8266 -0.2868  0.3677
 2447TIP3   OH2 7304   0.978   2.308   0.544 -0.0230 -0.6101  0.2724
 2447TIP3    H1 7305   1.060   2.341   0.580  0.8566  1.7152 -3.2861
 2447TIP3    H2 7306   0.914   2.375   0.566 -0.0848 -0.5407 -0.1101
 2448TIP3   OH2 7307   1.973   2.778   1.746 -0.0690 -0.5336 -0.1787
 2448TIP3    H1 7308   2.005   2.861   1.784 -2.2809 -0.7419  2.4554
 2448TIP3    H2 7309   1.914   2.805   1.676  0.1375  0.0764 -0.1282
 2449TIP3   OH2 7310   2.206   0.827   4.861  0.2520 -0.4571 -0.6073
 2449TIP3    H1 7311   2.124   0.792   4.827  0.4538 -0.1929 -1.3777
 2449TIP3    H2 7312   2.230   0.767   4.932 -1.5076  0.4501  0.8307
 2450TIP3   OH2 7313   5.102   3.980   5.298 -0.3139 -0.1250  0.3971
 2450TIP3    H1 7314   5.050   3.929   5.236 -2.0224  1.4314  0.4350
 2450TIP3    H2 7315   5.038   4.037   5.340  1.2342  0.7906  1.6027
 2451TIP3   OH2 7316   5.496   6.424   2.899  0.4356  0.6388  0.2250
 2451TIP3    H1 7317   5.416   6.474   2.884 -0.2362 -0.7725 -1.2386
 2451TIP3    H2 7318   5.495   6.405   2.993 -1.0564  0.4919  0.2090
 2452TIP3   OH2 7319   1.576   6.697   0.317 -0.3579  0.0504  0.0085
 2452TIP3    H1 7320   1.663   6.702   0.356 -0.1759  1.2759 -0.4974
 2452TIP3    H2 7321   1.525   6.762   0.365 -0.7973 -0.1422 -0.1886
 2453TIP3   OH2 7322   4.801   3.948   0.678 -0.1621 -0.7243  0.0493
 2453TIP3    H1 7323   4.751   3.903   0.610  0.1059  0.1664 -0.7579
 2453TIP3    H2 7324   4.888   3.908   0.674  0.0927 -0.1256 -0.7063
 2454TIP3   OH2 7325   0.201   5.050   0.518  0.4504  0.3314  0.3006
 2454TIP3    H1 7326   0.261   5.075   0.588  0.9942  3.0829 -1.0244
 2454TIP3    H2 7327   0.114   5.072   0.550  0.4724 -0.3590  0.8610
 2455TIP3   OH2 7328   1.197   6.028   3.807  0.0873 -0.1442 -0.1931
 2455TIP3    H1 7329   1.214   5.993   3.894 -0.9212  0.9503  0.4606
 2455TIP3    H2 7330   1.273   6.001   3.755  1.4514  0.5045  1.3924
 2456TIP3   OH2 7331   4.747   2.298   0.975 -0.2772 -0.0836 -0.5703
 2456TIP3    H1 7332   4.686   2.246   0.924  0.1035 -1.8552  0.6886
 2456TIP3    H2 7333   4.701   2.316   1.057 -0.6084  2.0995 -1.1805
 2457TIP3   OH2 7334   0.267   0.602   4.677 -0.8666 -0.4665  0.4767
 2457TIP3    H1 7335   0.311   0.662   4.617 -0.5242  0.3484  1.5055
 2457TIP3    H2 7336   0.308   0.517   4.661 -1.0775 -0.3581 -0.7225
 2458TIP3   OH2 7337   1.261   1.809   3.682  0.4040  0.3075 -0.5691
 2458TIP3    H1 7338   1.273   1.766   3.597 -0.0882  0.6666 -0.8223
 2458TIP3    H2 7339   1.343   1.792   3.729  0.4075 -0.4831 -0.8527
 2459TIP3   OH2 7340   6.532   0.059   4.300 -0.2494 -0.0936 -0.2003
 2459TIP3    H1 7341   6.532   0.082   4.207 -0.6887  1.2585  0.1041
 2459TIP3    H2 7342   6.530   0.144   4.345 -1.9896 -0.7134  1.0173
 2460TIP3   OH2 7343   1.949   2.685   3.046 -0.3387  0.0351  0.5155
 2460TIP3    H1 7344   2.037   2.653   3.024 -1.1066 -0.3673 -2.3503
 2460TIP3    H2 7345   1.944   2.771   3.005 -0.9773  0.5089  1.5360
 2461TIP3   OH2 7346   4.767   3.760   0.274 -0.0149 -0.0980 -0.1686
 2461TIP3    H1 7347   4.754   3.780   0.181  0.0405 -0.1534 -0.1889
 2461TIP3    H2 7348   4.841   3.699   0.274 -1.6593 -2.2092 -0.3311
 2462TIP3   OH2 7349   5.151   0.278   0.726  0.4170 -0.6649  0.5765
 2462TIP3    H1 7350   5.165   0.357   0.673 -2.5623 -0.3019  0.1543
 2462TIP3    H2 7351   5.219   0.218   0.698  1.2433  0.8799 -0.9207
 2463TIP3   OH2 7352   5.619   3.071   1.759  0.1247  0.2229  0.1455
 2463TIP3    H1 7353   5.571   3.101   1.682  0.0755 -1.0439 -0.3455
 2463TIP3    H2 7354   5.553   3.032   1.815  0.4374 -0.7008 -0.1145
 2464TIP3   OH2 7355   4.317   1.940   4.967  0.7075  0.6296  0.5763
 2464TIP3    H1 7356   4.222   1.944   4.958  0.3946 -1.2974  2.2898
 2464TIP3    H2 7357   4.346   1.882   4.897  0.4790  0.2503  0.7974
 2465TIP3   OH2 7358   1.971   4.057   4.115 -0.0083 -0.1778 -0.7238
 2465TIP3    H1 7359   1.959   4.044   4.209 -1.4212  2.8292 -0.3670
 2465TIP3    H2 7360   1.885   4.085   4.083  0.7159 -0.0560 -2.7058
 2466TIP3   OH2 7361   2.547   5.216   2.336 -0.0194 -0.4408  1.0193
 2466TIP3    H1 7362   2.518   5.205   2.427  0.0987 -1.1091  0.9826
 2466TIP3    H2 7363   2.622   5.275   2.341 -1.2562  1.1895  1.1360
 2467TIP3   OH2 7364   5.568   4.887   5.062  0.4854  0.1295 -0.3721
 2467TIP3    H1 7365   5.660   4.859   5.068  1.0406  2.0189  1.1616
 2467TIP3    H2 7366   5.522   4.828   5.122  1.2595  1.0219  1.1742
 2468TIP3   OH2 7367   4.870   2.083   1.943  0.3670 -0.1388  0.1868
 2468TIP3    H1 7368   4.925   2.151   1.903  1.2034 -1.4538 -1.0025
 2468TIP3    H2 7369   4.933   2.019   1.977 -0.4046 -0.3781  1.1858
 2469TIP3   OH2 7370   6.662   5.474   3.471 -0.6423 -0.0854 -0.4850
 2469TIP3    H1 7371   6.577   5.468   3.515 -0.4867  1.1209 -0.0026
 2469TIP3    H2 7372   6.706   5.391   3.494 -1.4477 -0.4605 -0.2520
 2470TIP3   OH2 7373   4.146   2.692   3.423  0.3637 -0.0188 -0.7377
 2470TIP3    H1 7374   4.205   2.635   3.473  2.4520  1.2125 -1.6648
 2470TIP3    H2 7375   4.065   2.694   3.474  1.2542 -1.4131  0.8378
 2471TIP3   OH2 7376   4.359   2.435   5.050 -0.8593 -0.3845  0.5977
 2471TIP3    H1 7377   4.350   2.419   5.144 -0.1437 -0.3993  0.6702
 2471TIP3    H2 7378   4.370   2.349   5.011  0.1823 -0.3008  0.6653
 2472TIP3   OH2 7379   2.958   1.218   1.908 -0.0646  0.2019 -0.2910
 2472TIP3    H1 7380   2.882   1.167   1.935  0.5831 -0.8955 -0.4613
 2472TIP3    H2 7381   2.925   1.306   1.894 -1.4096 -0.3819 -0.9195
 2473TIP3   OH2 7382   2.377   5.563   3.669  0.4157  0.0100  0.0174
 2473TIP3    H1 7383   2.392   5.571   3.575  3.5859  1.2017  0.4948
 2473TIP3    H2 7384   2.392   5.651   3.704 -0.5402 -0.4342  1.6695
 2474TIP3   OH2 7385   4.405   0.057   0.125  0.7930  0.3239 -0.0339
 2474TIP3    H1 7386   4.474  -0.009   0.129  1.1071  0.6523 -0.0473
 2474TIP3    H2 7387   4.451   0.140   0.126  0.3323  0.6129  2.3404
 2475TIP3   OH2 7388   3.990   1.231   0.423  0.3480  0.3980  0.0260
 2475TIP3    H1 7389   4.055   1.233   0.493 -0.3513 -1.0454  0.7445
 2475TIP3    H2 7390   3.907   1.252   0.465 -0.2490 -1.4960 -0.1323
 2476TIP3   OH2 7391   1.169   5.473   5.474 -0.0323  0.1166  0.9552
 2476TIP3    H1 7392   1.248   5.434   5.437 -0.2982 -0.1490  0.6613
 2476TIP3    H2 7393   1.120   5.400   5.509 -0.7776  0.1042 -0.0615
 2477TIP3   OH2 7394   6.298   6.735   4.920  0.1062 -0.2434  0.4159
 2477TIP3    H1 7395   6.286   6.821   4.880 -0.5262  0.8917  2.8990
 2477TIP3    H2 7396   6.210   6.697   4.920  0.3361 -0.8056 -0.4148
 2478TIP3   OH2 7397   0.790   0.629   5.578 -0.0688  0.1610 -0.2510
 2478TIP3    H1 7398   0.772   0.596   5.490 -1.0734  2.0902 -0.8250
 2478TIP3    H2 7399   0.839   0.559   5.620 -0.0503 -1.0435 -2.1542
 2479TIP3   OH2 7400   1.139   1.530   0.308  0.3925 -0.6002  0.2142
 2479TIP3    H1 7401   1.210   1.467   0.322 -0.1499 -1.2222  0.2101
 2479TIP3    H2 7402   1.094   1.535   0.392  1.1353  0.6871  0.5671
 2480TIP3   OH2 7403   1.822   4.534   2.458 -0.1319 -0.0156 -0.2242
 2480TIP3    H1 7404   1.820   4.453   2.407  0.9467  1.3029 -2.5084
 2480TIP3    H2 7405   1.757   4.590   2.416 -2.0695 -0.1844  2.3517
 2481TIP3   OH2 7406   4.448   0.666   4.483 -0.0458 -0.1144 -0.0333
 2481TIP3    H1 7407   4.443   0.683   4.577  0.0467  0.0894 -0.0623
 2481TIP3    H2 7408   4.524   0.717   4.454  0.2324 -0.5866 -0.1321
 2482TIP3   OH2 7409   2.051   2.182   5.844 -0.7692 -0.3636  0.3558
 2482TIP3    H1 7410   2.139   2.148   5.826 -0.7392  0.4878 -1.3161
 2482TIP3    H2 7411   2.064   2.246   5.913  0.4099  1.6003 -1.5434
 2483TIP3   OH2 7412   0.604   4.106   3.243  0.6997  0.0593  0.3940
 2483TIP3    H1 7413   0.593   4.081   3.151  2.6131  0.9857 -0.1397
 2483TIP3    H2 7414   0.637   4.026   3.285 -0.4753 -0.4588  0.3881
 2484TIP3   OH2 7415   4.832   6.825   5.430 -0.3670  0.3705  0.5899
 2484TIP3    H1 7416   4.892   6.770   5.379 -0.4581  0.5245  0.3144
 2484TIP3    H2 7417   4.788   6.764   5.489 -0.3143  0.1807  0.4327
 2485TIP3   OH2 7418   1.041   3.603   3.828 -1.0463 -0.8437  0.0695
 2485TIP3    H1 7419   0.951   3.638   3.828  0.0230  2.1625  0.2434
 2485TIP3    H2 7420   1.070   3.613   3.919 -0.0672 -0.4520 -0.2828
 2486TIP3   OH2 7421   6.913   0.325   2.883  0.4329 -0.0231 -0.0489
 2486TIP3    H1 7422   6.830   0.327   2.931 -0.9950 -0.2456 -2.3862
 2486TIP3    H2 7423   6.980   0.321   2.952 -1.5079 -1.0950  1.9059
 2487TIP3   OH2 7424   4.781   6.675   1.767 -0.2265  0.3288 -0.1971
 2487TIP3    H1 7425   4.735   6.612   1.821 -0.8119  0.6606 -0.2952
 2487TIP3    H2 7426   4.874   6.652   1.775 -0.4780 -0.9744 -0.7882
 2488TIP3   OH2 7427   4.354   0.396   2.674 -0.6277  0.0107  0.2438
 2488TIP3    H1 7428   4.402   0.401   2.592 -1.2511 -3.4517 -0.4911
 2488TIP3    H2 7429   4.422   0.385   2.741 -0.1640  1.9829  0.1554
 2489TIP3   OH2 7430   7.100   2.108   3.547  0.3299  0.5868 -0.2677
 2489TIP3    H1 7431   7.125   2.110   3.639 -0.3458  0.3674 -0.0676
 2489TIP3    H2 7432   7.026   2.047   3.544 -0.4475  1.5251 -0.7523
 2490TIP3   OH2 7433   1.723   1.508   3.070 -0.0223 -0.2244 -0.3382
 2490TIP3    H1 7434   1.652   1.444   3.070 -1.9119  1.7180  0.9868
 2490TIP3    H2 7435   1.724   1.543   3.159  2.1702  0.3122 -0.5257
 2491TIP3   OH2 7436   4.446   2.081   4.095 -0.3415 -0.2883  0.7707
 2491TIP3    H1 7437   4.401   2.164   4.079 -0.6313 -0.6969 -0.6495
 2491TIP3    H2 7438   4.376   2.017   4.106 -0.2272 -1.0620 -2.1661
 2492TIP3   OH2 7439   2.260   3.352   2.929 -0.1053 -0.1013 -0.1230
 2492TIP3    H1 7440   2.215   3.347   3.013  0.6169  2.9984  0.5535
 2492TIP3    H2 7441   2.347   3.316   2.945 -0.9150 -2.3437 -0.4080
 2493TIP3   OH2 7442   6.347   4.333   4.137 -0.1485 -0.1186  0.3973
 2493TIP3    H1 7443   6.354   4.400   4.070 -0.4404  2.1276  2.4957
 2493TIP3    H2 7444   6.255   4.307   4.136 -0.5912  1.3548  1.2156
 2494TIP3   OH2 7445   6.039   1.644   3.384  0.1222 -0.1321 -0.5813
 2494TIP3    H1 7446   5.954   1.685   3.365  0.5401  1.0090 -0.1187
 2494TIP3    H2 7447   6.088   1.713   3.429  0.6253 -1.3945  0.8645
 2495TIP3   OH2 7448   1.115   3.333   3.673 -0.7137 -0.3651  0.2030
 2495TIP3    H1 7449   1.104   3.417   3.718  0.7749  0.3571 -0.6662
 2495TIP3    H2 7450   1.208   3.312   3.685 -1.1006 -1.9585  0.5059
 2496TIP3   OH2 7451   3.068   5.050   5.362  0.3068 -0.1524  0.5896
 2496TIP3    H1 7452   3.021   5.113   5.417  1.8569 -0.1306  1.9697
 2496TIP3    H2 7453   3.120   5.103   5.303 -1.8866 -0.1665 -1.5029
 2497TIP3   OH2 7454   2.157   1.562   0.250  0.0171 -0.3036  0.4147
 2497TIP3    H1 7455   2.145   1.479   0.297  3.0897 -1.0615  0.0826
 2497TIP3    H2 7456   2.172   1.626   0.319  1.9236 -0.9134  0.6159
 2498TIP3   OH2 7457   3.702   4.028   0.653  0.5730  0.1135  0.1064
 2498TIP3    H1 7458   3.721   3.979   0.573  0.0366  0.2843 -0.1252
 2498TIP3    H2 7459   3.706   4.120   0.627 -4.4285  0.2597 -0.9593
 2499TIP3   OH2 7460   5.044   0.709   4.796  0.3049  0.0597  0.0575
 2499TIP3    H1 7461   5.041   0.614   4.796  2.1202 -0.0396 -1.0839
 2499TIP3    H2 7462   5.122   0.731   4.847  0.0689  0.9233  0.0685
 2500TIP3   OH2 7463   3.618   0.045   0.299  0.2051 -0.5297 -0.8282
 2500TIP3    H1 7464   3.583  -0.019   0.236  0.3687 -0.3114 -1.1452
 2500TIP3    H2 7465   3.705   0.066   0.265 -0.0324  0.2197 -0.9993
 2501TIP3   OH2 7466   1.784   1.292   4.482 -0.1484 -0.0441  0.1043
 2501TIP3    H1 7467   1.796   1.370   4.427 -0.1442 -0.3001 -0.2625
 2501TIP3    H2 7468   1.872   1.257   4.494 -0.2405 -0.4762 -0.4505
 2502TIP3   OH2 7469   3.748   5.941   4.797  0.0975  0.0103 -0.2730
 2502TIP3    H1 7470   3.769   5.868   4.855  0.2836 -0.2746 -0.6916
 2502TIP3    H2 7471   3.789   6.017   4.839 -0.4577 -0.0448  0.3824
 2503TIP3   OH2 7472   4.608   1.558   3.627  0.3058 -0.2651  0.5149
 2503TIP3    H1 7473   4.659   1.477   3.630 -0.0916 -0.5148  0.7822
 2503TIP3    H2 7474   4.670   1.626   3.652  1.0681 -0.2530 -1.2869
 2504TIP3   OH2 7475   4.296   2.445   3.317  0.4658 -0.3055 -0.0615
 2504TIP3    H1 7476   4.212   2.399   3.315 -0.4501  1.0669  2.6915
 2504TIP3    H2 7477   4.323   2.443   3.409  0.9904  3.4744 -0.0081
 2505TIP3   OH2 7478   0.229   5.721   0.803 -0.0964  0.0142 -0.1933
 2505TIP3    H1 7479   0.249   5.814   0.818 -0.0446  0.0237 -0.3126
 2505TIP3    H2 7480   0.137   5.720   0.778 -0.6980 -0.2007  1.9160
 2506TIP3   OH2 7481   5.703   6.733   0.089  0.0816 -0.0652  0.5492
 2506TIP3    H1 7482   5.618   6.777   0.088 -0.2734 -0.6606 -1.9950
 2506TIP3    H2 7483   5.689   6.653   0.039  1.8553 -0.7940  1.1569
 2507TIP3   OH2 7484   4.389   6.670   3.996  0.2062 -0.3014  0.8254
 2507TIP3    H1 7485   4.335   6.591   3.985  0.7187 -0.6892  1.0168
 2507TIP3    H2 7486   4.346   6.718   4.066 -0.2630 -0.2768  0.5262
 2508TIP3   OH2 7487   6.098   2.229   0.083  0.3156 -0.1189  0.6773
 2508TIP3    H1 7488   6.186   2.250   0.115  0.5513  0.8129 -0.5013
 2508TIP3    H2 7489   6.110   2.150   0.029  0.6401  0.5723 -0.3006
 2509TIP3   OH2 7490   2.337   5.517   1.437 -0.0563  0.0045 -0.8323
 2509TIP3    H1 7491   2.355   5.470   1.518  2.2212  0.0996 -1.2182
 2509TIP3    H2 7492   2.354   5.609   1.458 -1.5108  0.3133 -0.8944
 2510TIP3   OH2 7493   2.868   1.561   1.670  0.0662  0.3335  0.5597
 2510TIP3    H1 7494   2.891   1.468   1.676  0.5923  0.0491 -3.3284
 2510TIP3    H2 7495   2.951   1.607   1.681  0.4517  0.0647 -0.9898
 2511TIP3   OH2 7496   2.946   4.036   2.010 -0.1012  0.0467  0.7931
 2511TIP3    H1 7497   3.017   4.064   1.952 -0.8917  1.6248  0.5288
 2511TIP3    H2 7498   2.981   3.960   2.056  1.6937  0.6846  0.5453
 2512TIP3   OH2 7499   5.252   1.354   5.648  0.1763  0.0784 -0.4139
 2512TIP3    H1 7500   5.299   1.424   5.603  2.2166 -2.5289 -2.7366
 2512TIP3    H2 7501   5.175   1.338   5.594  0.7860 -0.7414 -1.0707
 2513TIP3   OH2 7502   1.453   4.011   4.338 -0.0160  0.2961  0.5685
 2513TIP3    H1 7503   1.546   4.034   4.337 -0.3150  1.5814 -0.1795
 2513TIP3    H2 7504   1.417   4.055   4.261 -1.3065  0.1123  1.0454
 2514TIP3   OH2 7505   4.599   1.802   3.369 -0.4781 -0.2294 -0.3117
 2514TIP3    H1 7506   4.639   1.831   3.287 -1.6986 -0.0081 -0.8545
 2514TIP3    H2 7507   4.664   1.824   3.436  0.5560 -0.4512 -1.2145
 2515TIP3   OH2 7508   1.768   6.215   3.948  0.1609 -0.3781  0.1969
 2515TIP3    H1 7509   1.748   6.309   3.955  0.0947 -0.4406  0.8266
 2515TIP3    H2 7510   1.765   6.183   4.037 -3.0940 -1.6678 -0.2382
 2516TIP3   OH2 7511   5.045   3.829   0.615  0.2548  0.0367 -0.0524
 2516TIP3    H1 7512   5.015   3.786   0.535 -0.1312 -0.1033  0.1635
 2516TIP3    H2 7513   5.052   3.922   0.591 -0.9633  0.1697  0.0602
 2517TIP3   OH2 7514   4.911   6.325   2.605 -0.2691 -0.5020  0.3980
 2517TIP3    H1 7515   4.904   6.393   2.673  0.1322 -0.5215  0.4615
 2517TIP3    H2 7516   5.002   6.330   2.576 -0.4860 -0.3569 -0.2833
 2518TIP3   OH2 7517   6.004   0.130   5.628  0.4142  0.2805  0.7379
 2518TIP3    H1 7518   6.026   0.198   5.565  1.8751  1.3380  2.2727
 2518TIP3    H2 7519   6.086   0.081   5.640  0.0788 -0.1188  1.5227
 2519TIP3   OH2 7520   0.691   6.104   2.678  0.2034 -0.1103  0.6105
 2519TIP3    H1 7521   0.629   6.100   2.604  1.1423 -1.7217 -0.1378
 2519TIP3    H2 7522   0.708   6.197   2.689 -0.2322  0.1996 -0.9896
 2520TIP3   OH2 7523   0.448   6.507   5.329 -0.2648  0.4840 -0.4609
 2520TIP3    H1 7524   0.499   6.467   5.258 -0.2815  0.6328 -0.5577
 2520TIP3    H2 7525   0.357   6.490   5.306 -0.2675 -1.8303  0.8855
 2521TIP3   OH2 7526   2.752   6.166   1.354  0.0450  0.6048  0.3633
 2521TIP3    H1 7527   2.749   6.071   1.358  0.2840  0.5597 -0.3505
 2521TIP3    H2 7528   2.818   6.185   1.288  0.4043  1.2758  0.9067
 2522TIP3   OH2 7529   5.118   5.984   0.629 -0.9285 -0.3125  0.2533
 2522TIP3    H1 7530   5.022   5.987   0.626 -0.9995 -2.1621 -1.5141
 2522TIP3    H2 7531   5.140   5.892   0.613  1.1380 -0.5008  3.2555
 2523TIP3   OH2 7532   2.907   6.132   3.785  0.0204 -0.5516  0.6879
 2523TIP3    H1 7533   2.844   6.203   3.798 -0.8876 -1.2226  0.0917
 2523TIP3    H2 7534   2.951   6.121   3.870 -1.6737 -1.0177  1.5364
 2524TIP3   OH2 7535   5.631   1.929   4.613  0.0846  0.1687 -0.1334
 2524TIP3    H1 7536   5.571   1.882   4.671 -1.9233  0.1881 -2.0589
 2524TIP3    H2 7537   5.668   1.861   4.557  0.3318  0.3980 -0.2511
 2525TIP3   OH2 7538   1.877   3.478   1.442 -0.2953 -0.5844 -0.0640
 2525TIP3    H1 7539   1.831   3.501   1.362 -0.6543  1.2628  0.6318
 2525TIP3    H2 7540   1.807   3.459   1.505 -0.0721  0.0104  0.3716
 2526TIP3   OH2 7541   2.382   2.204   5.063  0.2329 -0.7355  0.0817
 2526TIP3    H1 7542   2.340   2.142   5.004 -0.3644  1.6178 -2.1726
 2526TIP3    H2 7543   2.455   2.240   5.011  1.1158 -0.2026  1.6361
 2527TIP3   OH2 7544   1.397   1.797   4.351  0.2771  0.0793  1.5191
 2527TIP3    H1 7545   1.377   1.743   4.274  0.8654 -0.6449  1.8580
 2527TIP3    H2 7546   1.482   1.765   4.380  1.8158  2.7598  0.3395
 2528TIP3   OH2 7547   3.076   5.113   1.977  0.5020  0.2457  0.2634
 2528TIP3    H1 7548   3.096   5.195   1.931  0.6450  0.2932  0.4114
 2528TIP3    H2 7549   3.126   5.046   1.929 -0.7212  0.0143 -0.7490
 2529TIP3   OH2 7550   2.030   5.251   5.706  0.2797 -0.0009  0.0442
 2529TIP3    H1 7551   2.042   5.200   5.626 -0.7559  0.6622 -0.5569
 2529TIP3    H2 7552   2.025   5.342   5.677 -1.1437  0.1711  0.7307
 2530TIP3   OH2 7553   1.395   0.630   4.046 -0.1137 -0.0743  0.7449
 2530TIP3    H1 7554   1.410   0.540   4.017  1.2031  0.5386 -0.6351
 2530TIP3    H2 7555   1.336   0.622   4.120 -0.7561 -2.0160  0.0867
 2531TIP3   OH2 7556   1.695   6.039   3.290 -0.2502  0.4049 -0.2334
 2531TIP3    H1 7557   1.702   5.951   3.328 -0.5988  0.0879 -0.8915
 2531TIP3    H2 7558   1.609   6.040   3.247 -0.5378  1.2928  0.3324
 2532TIP3   OH2 7559   4.321   6.282   3.596 -0.0553  0.0417  0.1910
 2532TIP3    H1 7560   4.370   6.352   3.639  0.2034 -1.4989  2.5935
 2532TIP3    H2 7561   4.379   6.205   3.602 -0.1456 -0.3756 -2.7244
 2533TIP3   OH2 7562   3.684   0.620   2.588  0.6440 -0.4662 -0.2643
 2533TIP3    H1 7563   3.719   0.707   2.569  0.1912 -0.4303 -0.9365
 2533TIP3    H2 7564   3.624   0.601   2.516 -0.1594 -0.8373  0.4825
 2534TIP3   OH2 7565   1.699   3.066   4.451  0.1482 -0.3494  0.1643
 2534TIP3    H1 7566   1.691   3.116   4.532  1.4998 -0.3477  0.3199
 2534TIP3    H2 7567   1.616   3.018   4.444 -1.4318  2.2598 -0.2652
 2535TIP3   OH2 7568   4.149   5.603   2.511  0.1450  1.1651  0.7477
 2535TIP3    H1 7569   4.097   5.583   2.433  1.7581  3.1384 -0.9811
 2535TIP3    H2 7570   4.137   5.698   2.523 -0.0667  0.9066  2.9595
 2536TIP3   OH2 7571   4.442   1.141   2.482 -0.2172  0.0102 -0.0247
 2536TIP3    H1 7572   4.489   1.061   2.503  0.8808  0.5925 -0.2362
 2536TIP3    H2 7573   4.357   1.131   2.527 -0.2075 -1.3729 -0.2770
 2537TIP3   OH2 7574   1.071   5.753   0.480 -0.3065 -0.0898  0.0176
 2537TIP3    H1 7575   1.040   5.839   0.452 -0.3798 -0.1174  0.0145
 2537TIP3    H2 7576   0.999   5.693   0.460 -0.8543  0.0750  1.3931
 2538TIP3   OH2 7577   0.739   6.314   4.874 -0.1750  0.1471  0.0796
 2538TIP3    H1 7578   0.808   6.313   4.808 -0.0318  0.5930  0.2179
 2538TIP3    H2 7579   0.700   6.401   4.866 -1.0094 -0.2429 -0.2963
 2539TIP3   OH2 7580   5.289   4.869   4.526 -0.1681 -0.3424 -0.3180
 2539TIP3    H1 7581   5.377   4.890   4.557 -0.3934  0.1072  0.0292
 2539TIP3    H2 7582   5.235   4.869   4.605 -0.4599 -0.7380 -0.5120
 2540TIP3   OH2 7583   7.161   3.956   3.112  0.3354 -0.0013  0.3653
 2540TIP3    H1 7584   7.215   4.017   3.162  1.5799 -0.1957 -0.6823
 2540TIP3    H2 7585   7.215   3.932   3.037 -1.0176 -0.6269 -0.4552
 2541TIP3   OH2 7586   4.967   0.344   4.521 -0.1128  0.3422 -0.1727
 2541TIP3    H1 7587   5.044   0.301   4.483 -1.0995 -1.2654 -0.4442
 2541TIP3    H2 7588   4.993   0.367   4.610  0.8867  0.4204 -0.4760
 2542TIP3   OH2 7589   3.366   1.912   2.550 -0.4596 -0.0070  0.0778
 2542TIP3    H1 7590   3.378   1.874   2.637 -1.8585  1.1640  0.8186
 2542TIP3    H2 7591   3.453   1.908   2.510 -0.1438 -2.1128  0.8556
 2543TIP3   OH2 7592   0.086   4.267   1.369  0.1741 -0.1857 -0.5251
 2543TIP3    H1 7593   0.108   4.313   1.288 -0.5515 -0.2735 -0.7810
 2543TIP3    H2 7594   0.081   4.175   1.344  0.5037 -0.2778 -0.2562
 2544TIP3   OH2 7595   5.706   3.720   4.538 -0.9045 -0.4333  0.1467
 2544TIP3    H1 7596   5.748   3.748   4.456 -0.7637  0.4011  0.4898
 2544TIP3    H2 7597   5.779   3.710   4.600 -1.0402 -0.7375  0.2574
 2545TIP3   OH2 7598   0.500   4.680   2.478 -1.0301 -0.1047  0.3443
 2545TIP3    H1 7599   0.460   4.677   2.391 -0.7804  1.8150  0.1156
 2545TIP3    H2 7600   0.476   4.766   2.513  1.1097  0.2607  1.0658
 2546TIP3   OH2 7601   6.813   0.120   5.766  0.3663  0.1454  0.1396
 2546TIP3    H1 7602   6.780   0.046   5.818 -3.3746  1.8384  0.5236
 2546TIP3    H2 7603   6.865   0.171   5.828 -0.0840 -0.3008  0.9035
 2547TIP3   OH2 7604   1.799   1.604   2.831 -0.3745 -0.2504 -0.2172
 2547TIP3    H1 7605   1.770   1.558   2.909  0.2681 -1.4884 -0.6861
 2547TIP3    H2 7606   1.894   1.592   2.829 -0.2111  0.9742 -0.4363
 2548TIP3   OH2 7607   1.465   2.922   2.885  0.0600 -0.1301  0.4624
 2548TIP3    H1 7608   1.468   2.985   2.957 -0.1279  0.2354  0.1540
 2548TIP3    H2 7609   1.403   2.960   2.823  2.5392  1.1799 -1.3920
 2549TIP3   OH2 7610   5.270   2.706   4.364 -0.3819 -0.2086 -0.2332
 2549TIP3    H1 7611   5.332   2.662   4.423  1.2701 -0.1734 -1.8390
 2549TIP3    H2 7612   5.309   2.792   4.349 -1.7311  0.4762  0.0562
 2550TIP3   OH2 7613   6.603   3.514  -0.026 -0.1178 -0.0973 -0.3528
 2550TIP3    H1 7614   6.598   3.582   0.041 -0.2531 -0.5490  0.1069
 2550TIP3    H2 7615   6.677   3.459   0.001  0.1348 -0.0075 -0.8444
 2551TIP3   OH2 7616   1.761   2.030   0.339  0.5535  0.1620  0.3471
 2551TIP3    H1 7617   1.834   2.037   0.401 -0.1946 -1.7027  1.5171
 2551TIP3    H2 7618   1.687   2.072   0.383  0.6241  1.1162 -0.4013
 2552TIP3   OH2 7619   3.511   4.270   0.848  0.2920 -0.3242 -0.0724
 2552TIP3    H1 7620   3.449   4.299   0.915 -1.4777 -3.0527 -0.3778
 2552TIP3    H2 7621   3.597   4.280   0.889 -0.3158  2.6027  0.7372
 2553TIP3   OH2 7622   6.247   2.235   2.298 -0.3148 -0.0375 -0.2267
 2553TIP3    H1 7623   6.166   2.284   2.279 -1.6230 -1.9004  0.2643
 2553TIP3    H2 7624   6.232   2.149   2.259  1.9147 -0.1096 -1.0383
 2554TIP3   OH2 7625   5.415   6.029   0.231 -0.0061 -0.4552 -0.2056
 2554TIP3    H1 7626   5.468   6.103   0.260 -1.8808  1.1141 -0.5358
 2554TIP3    H2 7627   5.329   6.045   0.271 -1.0764 -1.2420 -2.0715
 2555TIP3   OH2 7628   2.812   4.812   3.115  0.0758 -0.1938 -0.0486
 2555TIP3    H1 7629   2.843   4.827   3.026 -2.7509 -0.8871 -1.2729
 2555TIP3    H2 7630   2.818   4.897   3.158 -0.1921  0.5893 -1.5001
 2556TIP3   OH2 7631   1.161   6.719   2.731 -0.6776  0.4634  0.2496
 2556TIP3    H1 7632   1.160   6.761   2.645 -0.8359  0.7800  0.4052
 2556TIP3    H2 7633   1.126   6.785   2.791 -2.3575 -0.3867  0.2717
 2557TIP3   OH2 7634   6.501   4.361   1.490 -0.3179 -0.1261  0.2136
 2557TIP3    H1 7635   6.522   4.280   1.538  0.6333  0.7196  1.2826
 2557TIP3    H2 7636   6.546   4.430   1.539  0.6254  0.8068 -1.8557
 2558TIP3   OH2 7637   4.465   2.476   1.966  0.1761 -0.4110  0.0419
 2558TIP3    H1 7638   4.514   2.447   1.889  0.1478  1.3937 -0.7257
 2558TIP3    H2 7639   4.408   2.403   1.988  0.3400 -1.0544 -1.5283
 2559TIP3   OH2 7640   4.320   0.217   1.056 -0.3183  0.2525 -0.1989
 2559TIP3    H1 7641   4.247   0.266   1.095  0.4024  1.3270 -0.1716
 2559TIP3    H2 7642   4.277   0.156   0.995 -1.1672  2.0145 -1.4406
 2560TIP3   OH2 7643   4.230   6.418   4.965 -0.3831 -0.0409 -0.0729
 2560TIP3    H1 7644   4.179   6.490   5.001 -0.2687 -0.1128  0.2329
 2560TIP3    H2 7645   4.208   6.417   4.872 -0.7062  0.1203  0.0019
 2561TIP3   OH2 7646   0.885   4.828   4.303  0.5252 -0.2681  0.1672
 2561TIP3    H1 7647   0.837   4.890   4.357 -1.8108 -0.5438 -1.4295
 2561TIP3    H2 7648   0.905   4.877   4.223  1.0518 -0.8005 -0.0328
 2562TIP3   OH2 7649   6.495   1.988   2.034 -0.4671 -0.1553  0.2185
 2562TIP3    H1 7650   6.564   1.995   1.967 -1.3474 -3.3869 -1.2489
 2562TIP3    H2 7651   6.530   2.036   2.109  1.0836  2.6856 -2.1004
 2563TIP3   OH2 7652   0.617   2.503   5.773 -0.1118  0.0093 -0.3273
 2563TIP3    H1 7653   0.564   2.448   5.716  0.4541  0.1381 -0.9914
 2563TIP3    H2 7654   0.644   2.576   5.716  0.4285  0.1556  0.1178
 2564TIP3   OH2 7655   3.768   5.156   3.552 -0.0355  0.5910 -0.4602
 2564TIP3    H1 7656   3.808   5.202   3.478  2.1452  0.3632  0.5016
 2564TIP3    H2 7657   3.831   5.088   3.575 -1.1953 -0.0794  0.9030
 2565TIP3   OH2 7658   3.093   1.145   3.911 -0.0265  0.4615 -0.3785
 2565TIP3    H1 7659   3.016   1.089   3.917  0.2987  0.1494  1.8983
 2565TIP3    H2 7660   3.167   1.084   3.914  0.3169  0.8601 -0.6944
 2566TIP3   OH2 7661   3.240   4.037   5.605 -0.0446 -0.2576 -0.0536
 2566TIP3    H1 7662   3.243   3.998   5.518 -1.7088 -0.5115 -0.0354
 2566TIP3    H2 7663   3.270   4.127   5.591  1.7904 -0.8877 -0.4679
 2567TIP3   OH2 7664   2.396   5.656   0.047  0.0693  0.2113 -0.1741
 2567TIP3    H1 7665   2.301   5.654   0.061  0.1103  0.0230  0.0981
 2567TIP3    H2 7666   2.423   5.564   0.052  0.2095  0.2229 -0.6631
 2568TIP3   OH2 7667   4.099   5.436   3.278  0.0801  0.3420 -0.7726
 2568TIP3    H1 7668   4.136   5.474   3.198  3.2910 -1.8630 -0.5085
 2568TIP3    H2 7669   4.099   5.508   3.341  0.0031  1.4365 -1.9758
 2569TIP3   OH2 7670   4.766   4.730   3.039 -0.3943  0.2784  0.4648
 2569TIP3    H1 7671   4.798   4.652   3.084  2.2608  1.6736  1.2388
 2569TIP3    H2 7672   4.808   4.727   2.953 -1.2213  0.3009  0.0484
 2570TIP3   OH2 7673   4.860   3.115   2.842  0.2781  0.6143  0.1770
 2570TIP3    H1 7674   4.828   3.027   2.824 -1.2719  1.0980  0.3648
 2570TIP3    H2 7675   4.932   3.103   2.904  1.8970 -0.6657 -1.8638
 2571TIP3   OH2 7676   6.321   3.712   5.793 -0.2785  0.0393 -0.3394
 2571TIP3    H1 7677   6.392   3.679   5.738 -0.3552 -1.1669  0.2555
 2571TIP3    H2 7678   6.350   3.798   5.821  0.4304  0.0400 -1.0525
 2572TIP3   OH2 7679   5.308   2.042   2.969 -0.0652  0.6157  0.1807
 2572TIP3    H1 7680   5.368   2.045   2.894 -1.5417  1.6911 -1.0210
 2572TIP3    H2 7681   5.362   2.065   3.044  1.7379 -1.7041 -0.3127
 2573TIP3   OH2 7682   4.580   2.779   4.132 -0.2041 -0.0453  0.2833
 2573TIP3    H1 7683   4.505   2.751   4.079  0.5123  0.5189 -1.0692
 2573TIP3    H2 7684   4.581   2.717   4.205 -2.3779  0.3477  0.7211
 2574TIP3   OH2 7685   1.145   1.211   4.393 -0.2942 -0.3166  0.1475
 2574TIP3    H1 7686   1.108   1.123   4.405  0.4304 -0.3928  2.3074
 2574TIP3    H2 7687   1.106   1.263   4.463 -0.2418  0.9316 -0.7362
 2575TIP3   OH2 7688   5.565   2.782   3.349  0.0819 -0.1593 -0.0983
 2575TIP3    H1 7689   5.561   2.784   3.445 -2.3412 -0.1704 -0.1569
 2575TIP3    H2 7690   5.630   2.714   3.330  0.5304 -0.2309  1.5238
 2576TIP3   OH2 7691   2.589   5.486   4.683 -0.3172  0.5142 -0.3432
 2576TIP3    H1 7692   2.581   5.533   4.600  1.7251  0.0409 -0.8756
 2576TIP3    H2 7693   2.644   5.542   4.737  1.1489 -0.6461 -0.5552
 2577TIP3   OH2 7694   3.973   1.025   0.272 -0.3810  0.0361 -0.8745
 2577TIP3    H1 7695   3.998   1.109   0.311  0.6369 -0.2380 -0.8963
 2577TIP3    H2 7696   3.954   0.968   0.347  2.2863 -0.7119 -0.6396
 2578TIP3   OH2 7697   6.947   4.635   2.076 -0.6369  0.4112 -0.1807
 2578TIP3    H1 7698   6.871   4.678   2.115 -2.3153 -0.4381 -2.2952
 2578TIP3    H2 7699   6.994   4.705   2.031  0.1065  1.0091  1.4539
 2579TIP3   OH2 7700   4.206   6.462   3.951  0.1868 -0.1776  0.1198
 2579TIP3    H1 7701   4.131   6.423   3.996  0.6746 -2.4505 -0.8953
 2579TIP3    H2 7702   4.174   6.483   3.864 -0.4904  3.3524  1.0531
 2580TIP3   OH2 7703   6.504   5.121   5.155 -0.4783 -0.1000  0.0848
 2580TIP3    H1 7704   6.579   5.067   5.179  0.0138 -0.0233 -1.1957
 2580TIP3    H2 7705   6.542   5.205   5.128 -0.9293 -0.3401 -1.3844
 2581TIP3   OH2 7706   6.100   4.294   0.645 -0.0371 -0.3671 -0.1326
 2581TIP3    H1 7707   6.043   4.348   0.700  0.1869 -3.5240  3.5971
 2581TIP3    H2 7708   6.040   4.245   0.588 -0.5381  0.4800 -0.3552
 2582TIP3   OH2 7709   5.850   0.204   0.605  0.4723 -0.2227 -0.5410
 2582TIP3    H1 7710   5.845   0.293   0.571 -1.2639  1.6580  3.7836
 2582TIP3    H2 7711   5.942   0.181   0.600  0.8485  1.4672 -2.4470
 2583TIP3   OH2 7712   3.604   5.303   1.362 -0.1834 -0.1447 -0.0378
 2583TIP3    H1 7713   3.696   5.287   1.342 -0.1456  0.8627 -0.7089
 2583TIP3    H2 7714   3.601   5.393   1.393 -0.8788 -0.3230  0.4248
 2584TIP3   OH2 7715   4.134   2.219   4.468 -0.3977  0.3368 -0.2292
 2584TIP3    H1 7716   4.092   2.182   4.391 -0.8105  0.5039 -0.0874
 2584TIP3    H2 7717   4.096   2.306   4.477  0.2856  0.6555 -0.3408
 2585TIP3   OH2 7718   4.705   3.693   3.591  0.1223  0.5885 -0.0163
 2585TIP3    H1 7719   4.751   3.611   3.611  0.7521  1.0689  0.5879
 2585TIP3    H2 7720   4.752   3.729   3.516  0.2393  0.6974  0.1087
 2586TIP3   OH2 7721   1.378   5.973   5.003  0.3011  0.0371  0.0826
 2586TIP3    H1 7722   1.297   6.020   4.984 -1.1230 -1.6675  1.5731
 2586TIP3    H2 7723   1.363   5.885   4.969  1.7889 -0.1592 -0.1515
 2587TIP3   OH2 7724   4.728   4.356   0.099  0.6551  0.3734 -0.2165
 2587TIP3    H1 7725   4.691   4.361   0.187  1.0192  0.0292 -0.0442
 2587TIP3    H2 7726   4.738   4.448   0.073 -1.3200  0.4972 -0.7028
 2588TIP3   OH2 7727   2.945   5.992   3.247  0.2917  0.0150  0.2335
 2588TIP3    H1 7728   2.935   5.937   3.325  1.0888  0.5169  0.6924
 2588TIP3    H2 7729   2.981   5.932   3.181 -2.9322 -1.1557 -0.6545
 2589TIP3   OH2 7730   6.701   3.488   0.374 -0.1831  0.2422 -0.4962
 2589TIP3    H1 7731   6.608   3.488   0.352 -0.2472  0.0721 -0.2259
 2589TIP3    H2 7732   6.726   3.396   0.372 -0.6647 -0.0184  2.1404
 2590TIP3   OH2 7733   4.077   0.241   2.600  0.4468 -0.1503 -0.0064
 2590TIP3    H1 7734   4.149   0.291   2.637  1.8962  1.2319 -4.1303
 2590TIP3    H2 7735   4.115   0.155   2.581 -0.1187 -0.6609  1.0854
 2591TIP3   OH2 7736   6.347   4.621   4.467  0.8298  0.5700 -0.5345
 2591TIP3    H1 7737   6.390   4.536   4.477 -1.7686 -0.9109 -1.0306
 2591TIP3    H2 7738   6.278   4.621   4.534  0.0172  1.7533 -1.3267
 2592TIP3   OH2 7739   2.088   6.569   1.002 -0.0946  0.5019 -0.4537
 2592TIP3    H1 7740   2.125   6.541   0.918 -0.7100 -1.6029 -0.0809
 2592TIP3    H2 7741   2.165   6.585   1.057  0.3046  0.6927 -1.0587
 2593TIP3   OH2 7742   7.140   5.397   3.792 -0.4338  0.4632  0.2347
 2593TIP3    H1 7743   7.049   5.418   3.770 -0.4452 -0.1203 -0.3041
 2593TIP3    H2 7744   7.173   5.476   3.836 -0.2162  1.9946 -2.4164
 2594TIP3   OH2 7745   4.292   5.764   4.823 -0.5040  0.3958 -0.2063
 2594TIP3    H1 7746   4.350   5.709   4.771  1.7570 -0.8574  3.2509
 2594TIP3    H2 7747   4.305   5.852   4.787  0.3863 -0.4614 -2.1256
 2595TIP3   OH2 7748   3.372   0.739   3.989  0.3883 -0.0471  0.0497
 2595TIP3    H1 7749   3.380   0.713   3.897 -1.4679 -1.0945  0.1260
 2595TIP3    H2 7750   3.329   0.664   4.031 -0.3495  1.0833  1.4076
 2596TIP3   OH2 7751   1.220   2.589   4.183  0.3591 -0.1519 -0.0496
 2596TIP3    H1 7752   1.238   2.572   4.090 -0.5935  0.0196 -0.2752
 2596TIP3    H2 7753   1.162   2.517   4.209  2.7035 -1.7572  1.1547
 2597TIP3   OH2 7754   1.713   3.584   4.522 -0.3039  0.1098 -0.0574
 2597TIP3    H1 7755   1.705   3.679   4.520 -0.3402  0.1503  1.2567
 2597TIP3    H2 7756   1.632   3.553   4.564 -0.0173 -0.4468  0.1040
 2598TIP3   OH2 7757   0.403   4.373   0.202 -0.9321 -0.0924  0.0911
 2598TIP3    H1 7758   0.342   4.436   0.240 -0.7093  0.2081 -0.0502
 2598TIP3    H2 7759   0.391   4.381   0.108 -0.1279  0.5182  0.0329
 2599TIP3   OH2 7760   5.103   3.523   1.379 -0.2710 -0.7194 -0.2874
 2599TIP3    H1 7761   5.173   3.471   1.419  0.1566 -0.2409 -0.4157
 2599TIP3    H2 7762   5.025   3.469   1.392  0.0117 -0.9927  0.3796
 2600TIP3   OH2 7763   6.669   2.152   1.269  0.0143 -0.0005  0.2125
 2600TIP3    H1 7764   6.580   2.168   1.300 -0.1069 -1.9915  1.0854
 2600TIP3    H2 7765   6.722   2.219   1.313 -0.8683  0.3348  0.7891
 2601TIP3   OH2 7766   1.507   2.940   0.353 -0.1063  0.3389  0.4887
 2601TIP3    H1 7767   1.594   2.973   0.374  0.6526 -1.6109  0.6321
 2601TIP3    H2 7768   1.522   2.875   0.284 -1.1421 -1.4915  1.8899
 2602TIP3   OH2 7769   0.927   1.815   2.463  0.8200 -0.7931  0.5366
 2602TIP3    H1 7770   0.893   1.839   2.549 -0.4303 -1.5211  0.2661
 2602TIP3    H2 7771   0.858   1.842   2.401  1.1702 -1.3730 -0.1196
 2603TIP3   OH2 7772   0.876   0.334   5.571 -0.1465  0.0804  0.0985
 2603TIP3    H1 7773   0.788   0.295   5.575 -0.1152 -0.0815 -0.5954
 2603TIP3    H2 7774   0.875   0.386   5.491  0.8066 -0.9834 -0.6303
 2604TIP3   OH2 7775   6.019   4.694   2.562  0.0106  0.1635  0.2616
 2604TIP3    H1 7776   5.982   4.607   2.570  0.0997  0.1184  0.1960
 2604TIP3    H2 7777   6.108   4.686   2.597 -0.1565  0.3508  0.7363
 2605TIP3   OH2 7778   3.605   3.813   2.169 -0.1124 -0.3753  0.0234
 2605TIP3    H1 7779   3.668   3.883   2.150 -0.3287  0.0825  0.9732
 2605TIP3    H2 7780   3.558   3.842   2.247 -1.4673 -0.7454 -0.6252
 2606TIP3   OH2 7781   3.046   5.849   5.506  0.0080  0.2178  0.2738
 2606TIP3    H1 7782   2.954   5.874   5.495  0.6941  2.4120 -1.0237
 2606TIP3    H2 7783   3.080   5.909   5.572  1.3685  2.0308 -1.9318
 2607TIP3   OH2 7784   5.736   2.259   2.979 -0.0235 -0.2242  0.2496
 2607TIP3    H1 7785   5.668   2.325   2.969 -0.9179 -0.4623  3.4729
 2607TIP3    H2 7786   5.704   2.183   2.930 -2.1812 -0.3459  1.7160
 2608TIP3   OH2 7787   3.006   3.137   4.147 -0.5289  0.0807 -0.5465
 2608TIP3    H1 7788   2.960   3.142   4.063 -1.7867  2.0500  0.2012
 2608TIP3    H2 7789   2.950   3.081   4.202 -1.0398  0.8511 -0.2621
 2609TIP3   OH2 7790   0.743   2.557   0.358 -0.1799  0.5830 -0.2452
 2609TIP3    H1 7791   0.765   2.617   0.430  0.0977 -0.4313  0.5373
 2609TIP3    H2 7792   0.826   2.513   0.338 -0.3391  0.6030 -0.9451
 2610TIP3   OH2 7793   4.234   5.236   0.242  0.4571 -0.2915 -0.6846
 2610TIP3    H1 7794   4.213   5.143   0.247  0.8897 -0.3306  1.2214
 2610TIP3    H2 7795   4.280   5.247   0.159  0.7810 -1.8577 -0.7297
 2611TIP3   OH2 7796   0.676   6.662   0.554  0.1963  0.1894 -0.0104
 2611TIP3    H1 7797   0.721   6.744   0.534 -0.4467  0.3676 -0.7595
 2611TIP3    H2 7798   0.615   6.650   0.482 -1.2782  0.1854  1.1808
 2612TIP3   OH2 7799   6.322   2.171   1.559 -0.0988 -0.4207  0.0468
 2612TIP3    H1 7800   6.355   2.093   1.513 -0.6300  0.5469 -2.1068
 2612TIP3    H2 7801   6.392   2.235   1.549 -0.5508  0.0509 -0.0991
 2613TIP3   OH2 7802   0.655   4.551   2.119 -0.2349  0.0630 -0.0501
 2613TIP3    H1 7803   0.598   4.593   2.184 -0.7181  0.0371 -0.4487
 2613TIP3    H2 7804   0.603   4.477   2.086 -0.7552  1.1455 -1.7877
 2614TIP3   OH2 7805   4.570   5.837   1.895 -0.1925  0.0708 -0.1139
 2614TIP3    H1 7806   4.633   5.890   1.847  0.6173 -0.0644  0.7615
 2614TIP3    H2 7807   4.530   5.899   1.957  0.9148 -0.3443  1.0646
 2615TIP3   OH2 7808   7.204   4.499   2.209 -0.0734  0.2051 -0.1319
 2615TIP3    H1 7809   7.140   4.495   2.138 -1.1015  3.8610  0.4125
 2615TIP3    H2 7810   7.152   4.489   2.289  0.4731  0.2065  0.2328
 2616TIP3   OH2 7811   2.548   0.794   0.364 -0.0145 -0.0010 -0.0215
 2616TIP3    H1 7812   2.529   0.728   0.297 -0.2926  0.0003  0.0545
 2616TIP3    H2 7813   2.579   0.744   0.439  0.0316 -0.0238 -0.0555
 2617TIP3   OH2 7814   1.583   4.673   1.000 -0.4792  0.1687  0.1322
 2617TIP3    H1 7815   1.505   4.676   0.944  0.4910 -1.0814 -1.3959
 2617TIP3    H2 7816   1.582   4.584   1.036  2.3315 -1.5492 -3.3133
 2618TIP3   OH2 7817   4.610   5.212   4.731  0.9333  0.4602 -0.3332
 2618TIP3    H1 7818   4.560   5.130   4.728  2.2539 -0.3463 -2.0622
 2618TIP3    H2 7819   4.584   5.252   4.813 -1.2959 -0.7035 -0.3693
 2619TIP3   OH2 7820   5.516   5.997   5.036 -0.0631  0.5022 -0.0339
 2619TIP3    H1 7821   5.549   6.084   5.059  0.8397 -0.2060  1.4887
 2619TIP3    H2 7822   5.442   5.983   5.095 -0.3220  0.3047 -0.4000
 2620TIP3   OH2 7823   1.143   2.298   2.988 -0.8207 -0.1298  0.5876
 2620TIP3    H1 7824   1.112   2.375   3.035 -0.4867  0.4020 -0.0486
 2620TIP3    H2 7825   1.215   2.330   2.934  1.0322 -1.3577  2.1851
 2621TIP3   OH2 7826   0.296   2.045   0.341 -0.2702  0.7263  0.4937
 2621TIP3    H1 7827   0.280   1.955   0.313 -0.9297 -0.2427  3.6533
 2621TIP3    H2 7828   0.392   2.052   0.345 -0.2211  0.0097  0.7017
 2622TIP3   OH2 7829   5.765   1.663   0.915 -0.7458  0.1429 -0.0622
 2622TIP3    H1 7830   5.837   1.673   0.977  0.8118 -1.0977 -1.5613
 2622TIP3    H2 7831   5.772   1.738   0.857 -1.8547  0.9996  0.8503
 2623TIP3   OH2 7832   1.145   6.562   5.060  0.6118 -0.2314 -0.6703
 2623TIP3    H1 7833   1.123   6.631   4.998  1.2972  0.7589  0.1586
 2623TIP3    H2 7834   1.202   6.502   5.010  0.1399 -0.1284 -1.3460
 2624TIP3   OH2 7835   4.910   2.758   4.699  0.8288  0.4846 -0.3458
 2624TIP3    H1 7836   4.962   2.810   4.761  2.1559 -0.3503 -0.7021
 2624TIP3    H2 7837   4.946   2.781   4.614  2.5307 -2.0813 -0.4203
 2625TIP3   OH2 7838   4.950   4.850   1.568  0.5242 -0.1635  0.3053
 2625TIP3    H1 7839   5.000   4.772   1.545 -1.3921 -1.0143 -1.3373
 2625TIP3    H2 7840   5.006   4.924   1.545  1.0536 -1.0679 -1.4077
 2626TIP3   OH2 7841   4.840   3.831   1.505 -0.2409  0.6258 -0.1191
 2626TIP3    H1 7842   4.756   3.852   1.463 -1.2076  1.2723  2.0236
 2626TIP3    H2 7843   4.850   3.737   1.492  0.1407  0.9563 -2.8094
 2627TIP3   OH2 7844   3.508   5.751   4.350 -0.0535  0.1454 -0.0391
 2627TIP3    H1 7845   3.442   5.769   4.417 -1.0292 -1.0039 -0.6449
 2627TIP3    H2 7846   3.541   5.664   4.371  2.4310  1.2932  1.1410
 2628TIP3   OH2 7847   3.539   2.631   0.960 -0.7170  0.4013  0.3371
 2628TIP3    H1 7848   3.527   2.604   0.870  1.8097  1.9793 -0.5858
 2628TIP3    H2 7849   3.453   2.663   0.988 -1.8477 -1.2609 -1.0119
 2629TIP3   OH2 7850   0.671   0.374   1.102  0.0732  1.1941  0.8254
 2629TIP3    H1 7851   0.648   0.354   1.193  2.1921 -0.9910  0.9729
 2629TIP3    H2 7852   0.687   0.468   1.102  0.7062  1.1466  2.9079
 2630TIP3   OH2 7853   5.239   1.387   4.103 -0.2325  0.1106  0.1178
 2630TIP3    H1 7854   5.219   1.310   4.156 -1.1666  1.2624  1.5289
 2630TIP3    H2 7855   5.301   1.356   4.037  0.6499 -1.4882  1.6240
 2631TIP3   OH2 7856   3.746   6.326   3.980 -0.2467  0.1038  0.9307
 2631TIP3    H1 7857   3.834   6.307   4.012 -0.2596 -0.0088  0.8995
 2631TIP3    H2 7858   3.760   6.370   3.897 -0.2180  0.1678  0.9689
 2632TIP3   OH2 7859   1.501   5.705   0.734 -0.4402  0.2665 -0.1460
 2632TIP3    H1 7860   1.518   5.641   0.803 -1.1716  2.3718  2.1319
 2632TIP3    H2 7861   1.405   5.709   0.728 -0.4089  1.2036 -0.1633
 2633TIP3   OH2 7862   6.482   2.499   1.872 -0.0994  0.3593 -0.6065
 2633TIP3    H1 7863   6.566   2.467   1.906  0.4634  0.8340 -1.5308
 2633TIP3    H2 7864   6.431   2.419   1.856 -1.1089  0.0831  2.9541
 2634TIP3   OH2 7865   2.612   6.290   5.837 -0.3759 -0.4236  0.2295
 2634TIP3    H1 7866   2.567   6.366   5.875 -1.7475 -1.7817  1.4700
 2634TIP3    H2 7867   2.701   6.295   5.871 -1.0169 -0.4659  2.0530
 2635TIP3   OH2 7868   4.381   0.178   4.329  0.3847  0.5529  0.0830
 2635TIP3    H1 7869   4.386   0.191   4.234 -1.1556  0.7163 -0.0082
 2635TIP3    H2 7870   4.358   0.264   4.364  0.6637  0.4308  0.5838
 2636TIP3   OH2 7871   1.826   2.945   3.548 -0.7926  0.1649  0.5817
 2636TIP3    H1 7872   1.917   2.973   3.558 -0.0633 -1.5615 -0.6104
 2636TIP3    H2 7873   1.797   2.925   3.637 -0.0107  0.7634  0.9856
 2637TIP3   OH2 7874   1.590   5.234   5.703  0.2538  0.3632  0.4420
 2637TIP3    H1 7875   1.565   5.234   5.795 -0.7075 -2.0041  0.2686
 2637TIP3    H2 7876   1.591   5.141   5.679  1.0940  0.8842 -1.7830
 2638TIP3   OH2 7877   2.126   5.270   2.697  0.5658 -0.2557 -0.2921
 2638TIP3    H1 7878   2.155   5.273   2.606  2.2146  0.0858  0.2021
 2638TIP3    H2 7879   2.050   5.328   2.701 -0.0631 -0.9491 -1.6049
 2639TIP3   OH2 7880   3.155   6.321   2.236 -0.0119  0.2647  0.7016
 2639TIP3    H1 7881   3.110   6.331   2.152  1.3112  0.9275  0.0432
 2639TIP3    H2 7882   3.107   6.379   2.296 -0.7562  0.0485  0.3348
 2640TIP3   OH2 7883   3.562   1.960   0.573 -0.3890  0.0079  0.2405
 2640TIP3    H1 7884   3.511   1.880   0.586  1.2145 -1.4466 -1.6073
 2640TIP3    H2 7885   3.503   2.019   0.527 -0.5766 -1.5288 -1.6301
 2641TIP3   OH2 7886   3.796   4.625   1.942 -0.0130  0.2566  0.7103
 2641TIP3    H1 7887   3.870   4.648   1.999  0.1325 -0.9940  1.0504
 2641TIP3    H2 7888   3.800   4.690   1.871 -0.1017  1.7577  2.0139
 2642TIP3   OH2 7889   2.853   2.899   0.161 -0.5946  0.3423  0.0012
 2642TIP3    H1 7890   2.828   2.925   0.250 -0.2217  0.7537 -0.0156
 2642TIP3    H2 7891   2.836   2.804   0.159  0.4453  0.1245  0.8646
 2643TIP3   OH2 7892   3.573   0.050   4.146  0.1172 -0.4464  0.0305
 2643TIP3    H1 7893   3.479   0.050   4.167 -0.1220 -0.0493 -0.9730
 2643TIP3    H2 7894   3.594  -0.042   4.133 -0.5566 -0.4242 -1.4307
 2644TIP3   OH2 7895   1.131   0.936   3.563  0.2077 -0.0094  0.0057
 2644TIP3    H1 7896   1.183   0.987   3.626 -0.1765 -1.5192  1.6186
 2644TIP3    H2 7897   1.190   0.866   3.535  0.4006  0.6937 -1.4397
 2645TIP3   OH2 7898   6.503   0.255   0.870 -0.2804  0.3480  0.2444
 2645TIP3    H1 7899   6.550   0.307   0.804 -0.6443 -0.4919 -0.7084
 2645TIP3    H2 7900   6.503   0.166   0.834 -0.3188 -0.1774  1.4859
 2646TIP3   OH2 7901   3.034   1.585   2.967  0.6957 -0.2243 -0.0763
 2646TIP3    H1 7902   3.075   1.608   3.051 -1.2805 -0.6611  1.0714
 2646TIP3    H2 7903   3.059   1.494   2.952  0.9459 -0.1882  0.1087
 2647TIP3   OH2 7904   2.740   4.846   0.132 -0.0540  0.4807 -0.1900
 2647TIP3    H1 7905   2.767   4.882   0.048 -0.2549  1.2671  0.0715
 2647TIP3    H2 7906   2.724   4.754   0.115  1.1137  0.3708 -0.7282
 2648TIP3   OH2 7907   0.232   6.785   0.270 -0.4696 -0.1310  0.1980
 2648TIP3    H1 7908   0.137   6.769   0.272 -0.7569  1.1085 -1.3303
 2648TIP3    H2 7909   0.247   6.829   0.187  1.3635  0.3367  0.7298
 2649TIP3   OH2 7910   7.102   5.223   4.889  0.4318  0.0859 -0.0185
 2649TIP3    H1 7911   7.191   5.257   4.875  0.7312  0.1509  1.7951
 2649TIP3    H2 7912   7.108   5.175   4.972 -1.2577  0.1978  0.1912
 2650TIP3   OH2 7913   0.479   2.070   5.096  0.2991 -0.0994 -0.0001
 2650TIP3    H1 7914   0.505   2.142   5.153  0.4746  0.4234 -0.7254
 2650TIP3    H2 7915   0.481   2.107   5.008  0.2915 -0.9639 -0.3755
 2651TIP3   OH2 7916   0.519   3.584   4.669  0.5149 -0.6901  0.1175
 2651TIP3    H1 7917   0.583   3.647   4.634 -0.6654 -1.0308 -3.0468
 2651TIP3    H2 7918   0.458   3.638   4.719  1.3565  0.1465  0.2800
 2652TIP3   OH2 7919   5.334   2.939   1.477 -0.2840  0.0290 -0.2164
 2652TIP3    H1 7920   5.369   2.878   1.411 -0.0451  0.0139 -0.0768
 2652TIP3    H2 7921   5.346   2.893   1.560 -1.2877 -0.2734 -0.2366
 2653TIP3   OH2 7922   3.903   1.549   1.394 -0.0440 -0.4496  0.3243
 2653TIP3    H1 7923   3.980   1.493   1.385  0.4474  0.4480 -1.4811
 2653TIP3    H2 7924   3.833   1.500   1.351  0.3686  0.2268 -1.1866
 2654TIP3   OH2 7925   0.662   4.533   3.725 -0.0935  0.1850 -0.1939
 2654TIP3    H1 7926   0.587   4.510   3.670 -0.6625 -1.1678  1.0701
 2654TIP3    H2 7927   0.632   4.607   3.778 -1.0035 -1.0403  1.1004
 2655TIP3   OH2 7928   4.988   1.488   4.840 -0.6402 -0.5039  0.0906
 2655TIP3    H1 7929   4.964   1.535   4.760  0.8251 -0.1425 -0.1521
 2655TIP3    H2 7930   4.954   1.543   4.911 -0.6693 -0.0863 -0.2434
 2656TIP3   OH2 7931   2.802   6.373   3.881  0.3571 -0.3995 -0.2968
 2656TIP3    H1 7932   2.752   6.449   3.910  1.7315  0.2362  0.5422
 2656TIP3    H2 7933   2.871   6.364   3.947  0.1907 -2.4286 -0.3436
 2657TIP3   OH2 7934   6.742   0.891   5.795 -0.0851 -1.0016  0.3664
 2657TIP3    H1 7935   6.738   0.862   5.886  2.9221 -1.4539  0.4627
 2657TIP3    H2 7936   6.760   0.812   5.745  1.2779 -0.3573 -0.2241
 2658TIP3   OH2 7937   1.469   2.175   3.774 -0.4240 -0.3866 -0.3841
 2658TIP3    H1 7938   1.551   2.153   3.819  0.9733  4.1000 -0.2864
 2658TIP3    H2 7939   1.488   2.162   3.681  0.1633 -0.0610 -0.3141
 2659TIP3   OH2 7940   4.554   5.342   2.145  0.0897  0.3412  0.0368
 2659TIP3    H1 7941   4.461   5.331   2.167  0.1453  0.7521  0.4705
 2659TIP3    H2 7942   4.555   5.340   2.049 -0.1367 -1.5270  0.0251
 2660TIP3   OH2 7943   1.650   2.448   5.699 -0.2557  1.0068  0.8363
 2660TIP3    H1 7944   1.685   2.432   5.611 -0.8670 -1.3131  0.9477
 2660TIP3    H2 7945   1.726   2.475   5.751  0.9085 -1.2840  0.4427
 2661TIP3   OH2 7946   7.087   3.975   5.755  0.0986  0.2477 -0.2067
 2661TIP3    H1 7947   7.030   3.901   5.776 -1.8117  1.2916 -1.4702
 2661TIP3    H2 7948   7.112   4.011   5.840 -0.3778 -0.7800  0.3862
 2662TIP3   OH2 7949   5.227   3.579   0.086  0.4843 -0.6864 -0.2392
 2662TIP3    H1 7950   5.158   3.581   0.019 -0.1304  1.7985  0.3521
 2662TIP3    H2 7951   5.237   3.487   0.107 -1.4007 -1.2871 -1.6344
 2663TIP3   OH2 7952   0.496   6.749   1.151 -0.0457  0.6774  0.3848
 2663TIP3    H1 7953   0.429   6.734   1.085  2.9526 -0.1824 -2.7932
 2663TIP3    H2 7954   0.486   6.841   1.176 -0.4534  1.4683 -2.4060
 2664TIP3   OH2 7955   5.840   2.693   3.829 -0.0001 -0.2825 -0.2278
 2664TIP3    H1 7956   5.792   2.771   3.799 -0.2807 -0.1200  0.5971
 2664TIP3    H2 7957   5.806   2.622   3.775 -2.0063 -0.3770  1.0246
 2665TIP3   OH2 7958   6.756   1.533   2.284  0.4384 -0.2601 -0.0048
 2665TIP3    H1 7959   6.716   1.588   2.351  0.8782 -1.7412  1.5599
 2665TIP3    H2 7960   6.688   1.470   2.262  0.7766 -0.6967  0.1748
 2666TIP3   OH2 7961   7.161   4.249   4.847  0.1725 -0.0690 -0.0775
 2666TIP3    H1 7962   7.239   4.205   4.880 -0.6031 -0.8963  0.7254
 2666TIP3    H2 7963   7.188   4.289   4.765  1.2565 -0.9283 -0.1529
 2667TIP3   OH2 7964   4.811   6.707   3.113  0.3550 -0.0594 -0.2989
 2667TIP3    H1 7965   4.799   6.646   3.040 -0.6355  1.0931 -1.1353
 2667TIP3    H2 7966   4.903   6.697   3.138  0.2846 -1.6866 -0.5777
 2668TIP3   OH2 7967   0.556   0.301   2.331 -0.2545  0.2223  0.1525
 2668TIP3    H1 7968   0.646   0.275   2.312 -0.1217  0.7737  0.0276
 2668TIP3    H2 7969   0.504   0.224   2.307  0.1819 -0.1085  0.2481
 2669TIP3   OH2 7970   1.875   5.934   2.421 -0.1516  0.3435  0.3365
 2669TIP3    H1 7971   1.841   5.902   2.504 -0.5108 -0.6091 -0.1659
 2669TIP3    H2 7972   1.913   6.019   2.442  0.3431 -0.1685  1.5985
 2670TIP3   OH2 7973   5.943   5.340   2.382  0.0318 -0.1485  0.2583
 2670TIP3    H1 7974   6.004   5.398   2.427 -0.8719  0.7353  0.3814
 2670TIP3    H2 7975   5.998   5.269   2.349  1.0331  0.3124  0.8644
 2671TIP3   OH2 7976   1.205   2.222   0.279  0.7825 -0.1336 -0.2340
 2671TIP3    H1 7977   1.223   2.295   0.219 -0.4726  0.2297 -0.1993
 2671TIP3    H2 7978   1.241   2.250   0.363 -0.5368  0.8870  0.0155
 2672TIP3   OH2 7979   0.683   2.922   4.028 -0.0860 -0.0308  0.1216
 2672TIP3    H1 7980   0.719   2.959   3.947 -0.8191  2.7336  0.9431
 2672TIP3    H2 7981   0.747   2.856   4.054  1.4102  0.7025 -1.4401
 2673TIP3   OH2 7982   4.862   4.254   3.434  0.1908 -0.5757  0.0557
 2673TIP3    H1 7983   4.933   4.318   3.434  1.5078 -1.9817  0.6294
 2673TIP3    H2 7984   4.783   4.306   3.417  0.6072  1.8509  4.2044
 2674TIP3   OH2 7985   0.712   6.308   3.408 -0.4267  0.0650 -0.1361
 2674TIP3    H1 7986   0.728   6.224   3.451  0.2893  0.0262 -0.4591
 2674TIP3    H2 7987   0.703   6.287   3.316  2.3520  0.5712 -0.6156
 2675TIP3   OH2 7988   2.649   5.785   1.889 -0.0131  0.8144 -0.0262
 2675TIP3    H1 7989   2.640   5.858   1.950 -0.0645  2.6950 -2.1301
 2675TIP3    H2 7990   2.571   5.791   1.833  0.9534  0.3827 -1.4709
 2676TIP3   OH2 7991  -0.000   0.695   3.143 -0.0974  0.6100  0.3122
 2676TIP3    H1 7992  -0.029   0.686   3.052  1.0652  2.5090 -0.2946
 2676TIP3    H2 7993   0.086   0.653   3.146  0.1366  1.0961  0.3893
 2677TIP3   OH2 7994   2.784   5.260   3.641 -0.0854  0.0383  0.0341
 2677TIP3    H1 7995   2.759   5.234   3.552  0.7698 -0.8556  0.0366
 2677TIP3    H2 7996   2.707   5.305   3.676  0.2103  2.1256 -1.8142
 2678TIP3   OH2 7997   4.523   3.704   2.386 -0.4309 -0.4383  0.5202
 2678TIP3    H1 7998   4.431   3.686   2.368 -0.1396 -0.7034 -0.8049
 2678TIP3    H2 7999   4.570   3.632   2.345  0.4523  0.5440 -0.2304
 2679TIP3   OH2 8000   1.257   3.312   5.855 -0.3937  0.1315 -0.2922
 2679TIP3    H1 8001   1.316   3.368   5.805  1.4072 -1.0274  0.4351
 2679TIP3    H2 8002   1.177   3.364   5.863 -0.1927  1.0048 -2.9069
 2680TIP3   OH2 8003   2.072   4.141   5.761  0.0332 -0.7124 -0.0646
 2680TIP3    H1 8004   2.113   4.208   5.705  0.5976 -0.7819  0.2583
 2680TIP3    H2 8005   2.131   4.066   5.755 -1.3382 -1.7469 -1.6121
 2681TIP3   OH2 8006   1.792   3.303   5.449 -0.4462  0.0965 -0.1012
 2681TIP3    H1 8007   1.736   3.380   5.435  0.6858  0.5660 -2.7362
 2681TIP3    H2 8008   1.858   3.332   5.511 -0.6626  0.9264 -0.2453
 2682TIP3   OH2 8009   4.655   3.976   5.080  0.0774 -0.3409 -0.0899
 2682TIP3    H1 8010   4.627   3.946   5.167  0.5829 -0.2890  0.0967
 2682TIP3    H2 8011   4.589   3.942   5.020  1.4549 -3.3491 -0.1286
 2683TIP3   OH2 8012   5.157   5.149   4.664 -0.2653  0.6712 -0.2113
 2683TIP3    H1 8013   5.069   5.175   4.691  1.0916  3.1494  2.3181
 2683TIP3    H2 8014   5.159   5.054   4.676 -2.2761  0.6849  0.6107
 2684TIP3   OH2 8015   5.660   3.604   1.339  0.3696  0.0112 -0.1317
 2684TIP3    H1 8016   5.573   3.568   1.330  1.1940 -1.5447 -3.4244
 2684TIP3    H2 8017   5.646   3.695   1.367 -2.2260 -0.3635 -0.0246
 2685TIP3   OH2 8018   0.922   2.980   2.912  0.6241  0.0106  0.3930
 2685TIP3    H1 8019   0.901   3.073   2.926  0.0196  0.0782 -0.8096
 2685TIP3    H2 8020   0.999   2.981   2.855 -0.1437 -0.1860 -0.6928
 2686TIP3   OH2 8021   6.933   6.072   0.504 -0.5322 -0.4027 -0.1728
 2686TIP3    H1 8022   6.941   6.164   0.529 -0.2004  0.0554 -1.8812
 2686TIP3    H2 8023   6.991   6.062   0.429  0.3834 -2.3274  0.7141
 2687TIP3   OH2 8024   1.875   1.416   1.628 -0.1645 -0.3472 -0.0111
 2687TIP3    H1 8025   1.893   1.424   1.534 -1.4105  2.9071 -0.1051
 2687TIP3    H2 8026   1.788   1.454   1.639  0.3913  0.3809  2.5756
 2688TIP3   OH2 8027   2.477   5.868   3.443 -0.3324  0.0964 -0.4334
 2688TIP3    H1 8028   2.548   5.925   3.474  0.0490  0.1744 -1.4097
 2688TIP3    H2 8029   2.413   5.928   3.406  0.4756 -0.1063 -2.2866
 2689TIP3   OH2 8030   2.770   1.981   3.924  0.0262  0.3188  0.1212
 2689TIP3    H1 8031   2.834   2.032   3.974  1.2907 -0.0588 -1.0269
 2689TIP3    H2 8032   2.711   2.046   3.887  2.0328  1.1361 -1.9199
 2690TIP3   OH2 8033   0.853   2.945   4.804 -0.1424 -0.5671  0.1750
 2690TIP3    H1 8034   0.934   2.918   4.762 -0.7979  1.1444 -2.4519
 2690TIP3    H2 8035   0.875   2.952   4.897  2.8816  0.2941 -0.4807
 2691TIP3   OH2 8036   6.434   2.418   4.431  0.0388  0.1216 -0.3808
 2691TIP3    H1 8037   6.514   2.456   4.468  0.6056  0.8188 -2.2193
 2691TIP3    H2 8038   6.460   2.387   4.344 -0.9307 -2.6543  0.2259
 2692TIP3   OH2 8039   0.665   2.967   1.030  0.4228 -0.5662  0.4683
 2692TIP3    H1 8040   0.693   3.010   1.111  0.1990  0.6358 -0.0805
 2692TIP3    H2 8041   0.612   2.893   1.060  1.3402 -0.8606  1.4381
 2693TIP3   OH2 8042   3.099   4.328   5.756 -0.0852 -0.3281 -0.5790
 2693TIP3    H1 8043   3.141   4.247   5.785 -0.6151  0.1398  1.6706
 2693TIP3    H2 8044   3.154   4.398   5.792  0.4021  0.3573 -2.5372
 2694TIP3   OH2 8045   5.196   6.022   4.912 -0.2506  0.3832 -0.4297
 2694TIP3    H1 8046   5.117   6.054   4.867 -0.2908  0.2507 -0.4556
 2694TIP3    H2 8047   5.240   5.968   4.847 -1.1148 -1.0941  0.1561
 2695TIP3   OH2 8048   7.054   1.827   0.042 -0.8103 -0.1858  0.2148
 2695TIP3    H1 8049   7.026   1.900  -0.014 -1.0066 -1.4960 -1.5068
 2695TIP3    H2 8050   6.973   1.797   0.084 -0.8440  0.1390  0.3877
 2696TIP3   OH2 8051   3.525   5.728   0.756  0.5375 -0.1769 -0.4616
 2696TIP3    H1 8052   3.489   5.639   0.748  0.8636 -0.1509 -2.7337
 2696TIP3    H2 8053   3.615   5.720   0.725  1.3861  0.5272  1.5928
 2697TIP3   OH2 8054   0.567   3.100   0.800 -0.2930 -0.5880  0.0425
 2697TIP3    H1 8055   0.575   3.055   0.883  0.2628 -3.2119 -1.3299
 2697TIP3    H2 8056   0.490   3.061   0.759  0.4464 -0.6002 -1.3959
 2698TIP3   OH2 8057   6.177   6.035   1.983  0.2753 -1.0413 -0.3458
 2698TIP3    H1 8058   6.111   5.969   1.961  1.1501 -1.6566 -1.1963
 2698TIP3    H2 8059   6.165   6.050   2.077 -0.1513 -2.1834 -0.2005
 2699TIP3   OH2 8060   3.960   0.618   5.296 -0.7691  0.0288 -0.4236
 2699TIP3    H1 8061   3.943   0.710   5.274 -1.4361  0.3091  1.1013
 2699TIP3    H2 8062   3.895   0.569   5.245  0.4219  0.2551 -2.2479
 2700TIP3   OH2 8063   6.368   2.766   2.307 -0.0279  0.6342 -0.3655
 2700TIP3    H1 8064   6.431   2.697   2.285 -0.1312  0.1772  0.7195
 2700TIP3    H2 8065   6.399   2.801   2.391 -2.2358 -0.9179  1.2199
 2701TIP3   OH2 8066   5.200   4.638   0.875  0.3113  0.1175 -0.5414
 2701TIP3    H1 8067   5.217   4.640   0.781  0.6380  1.0267 -0.4793
 2701TIP3    H2 8068   5.212   4.547   0.901  0.8824 -0.0170 -1.2683
 2702TIP3   OH2 8069   5.555   4.928   4.509 -0.3848 -0.1224  0.2163
 2702TIP3    H1 8070   5.545   4.981   4.430  1.9981  0.1517  0.0099
 2702TIP3    H2 8071   5.564   4.838   4.476 -0.8584 -0.2009  0.2963
 2703TIP3   OH2 8072   6.991   0.493   1.078  0.3656  0.1310 -0.1274
 2703TIP3    H1 8073   6.998   0.397   1.079  0.0701  0.1076  0.8106
 2703TIP3    H2 8074   7.082   0.523   1.081  0.5333 -0.0891 -1.7600
 2704TIP3   OH2 8075   5.418   3.280   4.189  0.0540  0.4170  0.0154
 2704TIP3    H1 8076   5.499   3.233   4.206 -1.5152 -1.9444  1.4207
 2704TIP3    H2 8077   5.409   3.278   4.093  0.4480 -1.4799 -0.0215
 2705TIP3   OH2 8078   4.471   1.380   2.959 -0.1099  0.1659 -0.1432
 2705TIP3    H1 8079   4.421   1.338   2.889  0.5412  0.0899 -0.5731
 2705TIP3    H2 8080   4.536   1.315   2.985 -1.8088 -0.7339  2.2069
 2706TIP3   OH2 8081   3.487   3.323   0.690 -0.3967 -0.1496  0.0925
 2706TIP3    H1 8082   3.581   3.306   0.698 -0.2990 -0.5296 -1.5209
 2706TIP3    H2 8083   3.446   3.253   0.741  0.1860  0.2972  1.2070
 2707TIP3   OH2 8084   5.757   0.808   0.989  0.6434  0.2222  0.3160
 2707TIP3    H1 8085   5.852   0.808   0.992  0.8257  0.8403 -2.5609
 2707TIP3    H2 8086   5.730   0.848   1.072  2.8885  0.4732  0.9778
 2708TIP3   OH2 8087   6.925   0.512   2.358 -0.5679 -0.0465 -0.6689
 2708TIP3    H1 8088   6.899   0.424   2.331  0.3754 -0.2376 -0.9858
 2708TIP3    H2 8089   6.867   0.533   2.431  0.7715 -1.9109  1.0154
 2709TIP3   OH2 8090   5.533   6.296   4.581 -0.4989  0.2111  0.3928
 2709TIP3    H1 8091   5.594   6.327   4.648  0.8776  1.0546 -1.1849
 2709TIP3    H2 8092   5.450   6.285   4.628  0.2767  1.2437  2.1174
 2710TIP3   OH2 8093   5.600   2.718   5.395  0.6955  0.2943  0.1928
 2710TIP3    H1 8094   5.613   2.729   5.489 -2.8625  1.2949  0.7441
 2710TIP3    H2 8095   5.602   2.623   5.381 -0.0887  0.0519  1.5700
 2711TIP3   OH2 8096   6.906   3.186   1.162 -0.4194 -0.2713 -0.5074
 2711TIP3    H1 8097   6.852   3.111   1.188 -1.1834  0.5055  0.2162
 2711TIP3    H2 8098   6.916   3.177   1.067 -1.5091 -0.6364 -0.6008
 2712TIP3   OH2 8099   6.229   2.104   2.589  0.2956 -0.1287 -0.0533
 2712TIP3    H1 8100   6.246   2.072   2.501  0.9637 -0.1790  0.0923
 2712TIP3    H2 8101   6.168   2.177   2.577  0.9092  0.3008 -0.6133
 2713TIP3   OH2 8102   2.781   3.834   4.269  0.3955  0.3090 -0.1495
 2713TIP3    H1 8103   2.785   3.758   4.327  2.1260  2.2082  2.4767
 2713TIP3    H2 8104   2.717   3.811   4.203 -1.4428 -2.2238  2.2945
 2714TIP3   OH2 8105   5.373   2.035   3.905  0.1232 -0.0380 -0.3489
 2714TIP3    H1 8106   5.416   2.025   3.820 -0.1702 -1.5069 -0.3398
 2714TIP3    H2 8107   5.281   2.018   3.887 -0.1176  0.7517  0.0764
 2715TIP3   OH2 8108   1.390   5.176   0.232  0.2648  0.4037  0.4791
 2715TIP3    H1 8109   1.369   5.203   0.142  0.0067  3.5284  1.3366
 2715TIP3    H2 8110   1.472   5.128   0.224  0.2758  0.6413 -1.4404
 2716TIP3   OH2 8111   6.089   1.705   3.852  0.2713 -0.4735  0.0098
 2716TIP3    H1 8112   6.067   1.772   3.916 -0.8344 -0.0780 -0.7423
 2716TIP3    H2 8113   6.156   1.746   3.797  1.1139 -0.7615  0.8148
 2717TIP3   OH2 8114   2.422   6.101   4.593  0.0033  0.1198 -0.5219
 2717TIP3    H1 8115   2.360   6.169   4.566  0.0638  0.7541  0.8207
 2717TIP3    H2 8116   2.490   6.102   4.526 -1.2076 -0.3121 -1.8092
 2718TIP3   OH2 8117   4.064   6.401   3.469 -0.1912 -0.0017  0.6133
 2718TIP3    H1 8118   4.102   6.318   3.497 -0.5598 -0.7198 -0.8755
 2718TIP3    H2 8119   4.116   6.425   3.391  0.3978  1.5645  1.4527
 2719TIP3   OH2 8120   6.491   2.219   0.737  0.7605 -0.4398  0.0417
 2719TIP3    H1 8121   6.534   2.174   0.665  0.1652 -1.0096  0.0321
 2719TIP3    H2 8122   6.506   2.163   0.813  0.7519 -0.2132  0.2136
 2720TIP3   OH2 8123   2.178   4.823   0.583 -0.2013 -0.0347  0.4678
 2720TIP3    H1 8124   2.120   4.771   0.639 -0.7756 -1.1110 -1.0566
 2720TIP3    H2 8125   2.120   4.856   0.513  0.4835  1.2944  0.4946
 2721TIP3   OH2 8126   6.237   6.097   2.836  0.3304 -0.1749  0.5782
 2721TIP3    H1 8127   6.267   6.188   2.837  2.1592 -0.7361  1.1832
 2721TIP3    H2 8128   6.172   6.092   2.906  0.2847  0.6238  0.6014
 2722TIP3   OH2 8129   0.237   1.459   5.559 -0.1779 -0.0384 -0.2760
 2722TIP3    H1 8130   0.176   1.465   5.485 -0.4466 -0.5130 -0.1025
 2722TIP3    H2 8131   0.202   1.387   5.612  0.5754 -0.3611 -0.2041
 2723TIP3   OH2 8132   2.482   0.270   4.684 -0.2977  0.1659  0.1809
 2723TIP3    H1 8133   2.388   0.254   4.688 -0.5580  1.7058  0.9483
 2723TIP3    H2 8134   2.521   0.182   4.679 -1.7500 -0.5018 -0.0013
 2724TIP3   OH2 8135   6.741   0.851   3.276 -0.5122  0.4654  0.3899
 2724TIP3    H1 8136   6.718   0.931   3.229  1.1620 -0.5060 -2.3641
 2724TIP3    H2 8137   6.834   0.862   3.297  0.2609 -1.4087 -1.7066
 2725TIP3   OH2 8138   2.525   4.231   1.191 -0.0500  0.4309  0.0605
 2725TIP3    H1 8139   2.542   4.256   1.100 -1.0542  1.2416  0.0697
 2725TIP3    H2 8140   2.474   4.150   1.184  1.5582 -0.6160 -0.0226
 2726TIP3   OH2 8141   1.283   5.935   3.384 -0.1414  0.0892 -0.3571
 2726TIP3    H1 8142   1.231   5.860   3.411  0.4610 -0.2635 -0.1593
 2726TIP3    H2 8143   1.225   6.010   3.395 -0.3536 -0.2107  0.6044
 2727TIP3   OH2 8144   3.547   1.296   4.426  0.6374  0.6874 -0.2702
 2727TIP3    H1 8145   3.555   1.208   4.462  0.0186 -0.2231 -2.1758
 2727TIP3    H2 8146   3.458   1.299   4.392  0.8995  1.7688 -0.8917
 2728TIP3   OH2 8147   5.092   4.246   3.870  0.1491  0.5817  0.4075
 2728TIP3    H1 8148   5.095   4.272   3.778 -0.5178  2.5729  0.8912
 2728TIP3    H2 8149   5.018   4.186   3.876 -0.0197  0.7113 -0.2876
 2729TIP3   OH2 8150   6.946   6.734   5.591 -0.2548 -0.2778 -0.1580
 2729TIP3    H1 8151   7.018   6.672   5.579 -0.1031 -0.1565  0.1216
 2729TIP3    H2 8152   6.887   6.691   5.652 -0.8363 -0.7295 -1.0158
 2730TIP3   OH2 8153   4.426   2.197   5.301 -0.3602  0.2681  0.1206
 2730TIP3    H1 8154   4.403   2.104   5.294 -0.2918  0.3600 -1.8197
 2730TIP3    H2 8155   4.342   2.242   5.313 -0.5998  0.1030 -0.8780
 2731TIP3   OH2 8156   6.310   0.559   4.428 -0.2054  0.1449 -0.2087
 2731TIP3    H1 8157   6.331   0.581   4.519  0.5756 -0.6311 -0.1932
 2731TIP3    H2 8158   6.247   0.487   4.435  0.1859 -0.2058 -0.2828
 2732TIP3   OH2 8159   4.242   0.325   2.033 -0.0050  1.1341  0.4326
 2732TIP3    H1 8160   4.331   0.356   2.018 -0.0411  1.1286  0.2060
 2732TIP3    H2 8161   4.196   0.343   1.951  0.9294 -3.1381 -1.2687
 2733TIP3   OH2 8162   1.626   3.716   2.751 -0.1862 -0.1593 -0.3729
 2733TIP3    H1 8163   1.644   3.645   2.689 -1.2632 -0.8311  0.0650
 2733TIP3    H2 8164   1.540   3.696   2.787 -0.0409  0.7980  0.5655
 2734TIP3   OH2 8165   2.134   3.380   3.190  0.2481  0.1578 -0.2144
 2734TIP3    H1 8166   2.088   3.464   3.191 -0.9564 -0.4710 -0.6008
 2734TIP3    H2 8167   2.066   3.316   3.209  1.2169 -0.7094  0.4384
 2735TIP3   OH2 8168   5.284   1.763   3.086  0.7178 -0.2803  0.0666
 2735TIP3    H1 8169   5.244   1.792   3.004  0.7598 -0.7350 -0.1187
 2735TIP3    H2 8170   5.240   1.680   3.106 -0.6591  0.7358  1.5073
 2736TIP3   OH2 8171   4.784   5.088   1.829  0.5189  1.2110 -0.4538
 2736TIP3    H1 8172   4.717   5.154   1.848  0.1176  1.1638 -1.6671
 2736TIP3    H2 8173   4.769   5.063   1.738  1.2942  0.1576 -0.3111
 2737TIP3   OH2 8174   6.314   1.451   4.376 -0.2852  0.6880 -0.2226
 2737TIP3    H1 8175   6.393   1.436   4.427 -0.6699 -2.0113 -0.2782
 2737TIP3    H2 8176   6.243   1.451   4.440 -0.4981  0.1795 -0.4516
 2738TIP3   OH2 8177   5.490   0.058   2.009  0.1384  0.7522 -0.0712
 2738TIP3    H1 8178   5.468   0.151   2.022  1.5422  0.8476  2.2088
 2738TIP3    H2 8179   5.584   0.054   2.024  0.1994 -0.9672 -0.7552
 2739TIP3   OH2 8180   5.601   1.760   0.261  0.2918 -0.0145  0.3446
 2739TIP3    H1 8181   5.643   1.822   0.201 -1.7991  0.9191 -0.2512
 2739TIP3    H2 8182   5.546   1.814   0.318  0.4938 -1.1027  1.6266
 2740TIP3   OH2 8183   4.467   2.851   1.699  0.1838 -0.2351  0.0250
 2740TIP3    H1 8184   4.392   2.793   1.694  0.5969 -1.0238  2.1151
 2740TIP3    H2 8185   4.430   2.938   1.713 -0.3475 -0.4361 -0.1349
 2741TIP3   OH2 8186   6.062   3.902   1.891  0.5729 -0.0326  0.0718
 2741TIP3    H1 8187   6.094   3.865   1.808 -0.1842  1.1679 -0.7880
 2741TIP3    H2 8188   5.967   3.896   1.884  0.4638  1.3034  0.2673
 2742TIP3   OH2 8189   1.671   4.057   4.655  0.3140 -0.2834  0.2233
 2742TIP3    H1 8190   1.636   4.146   4.658  0.2462 -0.2173 -1.6161
 2742TIP3    H2 8191   1.747   4.059   4.714  1.5999  1.5867 -1.3822
 2743TIP3   OH2 8192   5.905   4.554   4.025 -0.3804  0.2165  0.0575
 2743TIP3    H1 8193   5.823   4.602   4.021 -0.4175  0.1567  0.1100
 2743TIP3    H2 8194   5.935   4.564   4.116 -1.1099 -1.0655  0.4631
 2744TIP3   OH2 8195   1.464   1.847   4.861 -0.0478 -0.6851 -0.3766
 2744TIP3    H1 8196   1.374   1.878   4.874  1.1478  2.6914  0.8922
 2744TIP3    H2 8197   1.490   1.885   4.777  0.6311 -0.4140 -0.0533
 2745TIP3   OH2 8198   6.937   6.763   4.773 -0.2188  0.3827  0.6498
 2745TIP3    H1 8199   6.993   6.766   4.851 -1.3032  2.4531  1.4306
 2745TIP3    H2 8200   6.969   6.833   4.717 -0.8211  0.3410  0.2356
 2746TIP3   OH2 8201   1.989   3.592   0.953  0.1902 -0.3293 -0.0371
 2746TIP3    H1 8202   2.024   3.557   1.035 -0.0363 -0.1205  0.1498
 2746TIP3    H2 8203   2.031   3.540   0.885  0.3923 -0.4930  0.2113
 2747TIP3   OH2 8204   2.644   3.854   0.132  0.4324  0.2643  0.3280
 2747TIP3    H1 8205   2.553   3.879   0.113 -1.2397 -3.8402  1.6733
 2747TIP3    H2 8206   2.680   3.830   0.047  0.6013  2.5980 -0.3210
 2748TIP3   OH2 8207   6.379   3.477   1.930 -0.2128 -0.0791 -0.2818
 2748TIP3    H1 8208   6.455   3.456   1.875  0.4275  1.2098  0.0783
 2748TIP3    H2 8209   6.338   3.392   1.947  0.4171 -0.6572 -1.5303
 2749TIP3   OH2 8210   0.763   3.606   4.899  0.6086  0.6170 -0.4456
 2749TIP3    H1 8211   0.707   3.667   4.850  0.5825  0.7958 -0.1934
 2749TIP3    H2 8212   0.702   3.543   4.938  0.7684 -1.2364 -2.9037
 2750TIP3   OH2 8213   5.639   6.300   1.086 -0.7175  1.0914 -0.1732
 2750TIP3    H1 8214   5.609   6.343   1.166 -3.3009  0.0971 -0.4866
 2750TIP3    H2 8215   5.564   6.246   1.060  1.1019 -0.8007 -1.7147
 2751TIP3   OH2 8216   3.203   0.419   1.922  0.6067  0.0188 -0.1296
 2751TIP3    H1 8217   3.185   0.348   1.859  1.1475 -0.3873  0.1624
 2751TIP3    H2 8218   3.210   0.375   2.006  1.8917  0.2725 -0.0749
 2752TIP3   OH2 8219   0.738   2.774   0.653 -0.1117 -0.5258  0.2847
 2752TIP3    H1 8220   0.723   2.852   0.599  0.1494 -1.5304 -1.3097
 2752TIP3    H2 8221   0.677   2.783   0.725 -0.5810  0.8150 -0.2478
 2753TIP3   OH2 8222   6.179   0.794   4.784 -0.0279  0.1579 -0.0285
 2753TIP3    H1 8223   6.103   0.828   4.831 -0.4516  0.0088 -0.5920
 2753TIP3    H2 8224   6.174   0.835   4.698  1.1091  0.9384  0.2553
 2754TIP3   OH2 8225   4.578   0.990   4.971  0.1939  0.5548 -0.2525
 2754TIP3    H1 8226   4.671   1.002   4.986  0.8887 -2.8295 -1.0215
 2754TIP3    H2 8227   4.560   0.901   5.002 -2.6211  0.8361 -0.8155
 2755TIP3   OH2 8228   3.230   0.381   5.596  0.1907  0.3515  0.3184
 2755TIP3    H1 8229   3.323   0.358   5.599  0.2526  0.1345 -1.6789
 2755TIP3    H2 8230   3.225   0.450   5.530 -0.6925  2.7157  2.6596
 2756TIP3   OH2 8231   2.955   5.251   0.771  0.0110  0.0109 -0.4626
 2756TIP3    H1 8232   2.888   5.316   0.793  0.5854  0.9595 -1.3867
 2756TIP3    H2 8233   2.989   5.280   0.686  0.4966 -1.3440 -0.7589
 2757TIP3   OH2 8234   5.359   3.941   5.377 -0.1326 -0.4096  0.5166
 2757TIP3    H1 8235   5.362   3.940   5.281  0.6749 -3.1944  0.4905
 2757TIP3    H2 8236   5.270   3.970   5.397  0.1043  1.6389 -0.9621
 2758TIP3   OH2 8237   3.936   4.385   3.153  0.1267 -0.2035  0.6903
 2758TIP3    H1 8238   3.949   4.361   3.244 -0.5441  0.0061  0.8436
 2758TIP3    H2 8239   3.952   4.304   3.104  0.8835 -0.2149  0.9578
 2759TIP3   OH2 8240   5.566   2.333   1.796 -0.2655  0.2376  0.7621
 2759TIP3    H1 8241   5.478   2.298   1.814 -1.5141  0.8642 -3.1589
 2759TIP3    H2 8242   5.553   2.427   1.789  0.5922  0.2865 -0.3264
 2760TIP3   OH2 8243   4.896   3.676   1.281  0.3261 -0.2669  0.3825
 2760TIP3    H1 8244   4.976   3.654   1.329  0.5751 -1.3615 -0.4745
 2760TIP3    H2 8245   4.862   3.591   1.251 -0.5046  0.2799 -0.2698
 2761TIP3   OH2 8246   0.981   0.799   1.974 -0.4002 -0.1656  0.3403
 2761TIP3    H1 8247   0.953   0.791   2.066  0.5247 -0.1298  0.6324
 2761TIP3    H2 8248   1.076   0.799   1.978 -0.3426 -1.2271 -0.7310
 2762TIP3   OH2 8249   6.578   0.917   1.380 -0.4195  0.3239  0.0741
 2762TIP3    H1 8250   6.605   0.868   1.458 -0.0077  0.9315  0.3231
 2762TIP3    H2 8251   6.483   0.906   1.376 -0.4645  0.4295  0.7592
 2763TIP3   OH2 8252   2.077   3.393   0.764 -0.0987 -0.3000  0.1004
 2763TIP3    H1 8253   2.039   3.429   0.685 -0.9435  0.7154  0.9452
 2763TIP3    H2 8254   2.080   3.298   0.748 -0.6255 -0.1520 -0.9690
 2764TIP3   OH2 8255   0.311   0.148   4.331 -0.1206 -0.1753  0.0915
 2764TIP3    H1 8256   0.289   0.083   4.265 -2.6269  0.4905  0.1886
 2764TIP3    H2 8257   0.328   0.097   4.410  0.4824 -0.8149 -0.4313
 2765TIP3   OH2 8258   5.450   3.374   3.572  0.2672  0.5221 -0.0689
 2765TIP3    H1 8259   5.459   3.396   3.479  2.0314 -2.9692 -0.8993
 2765TIP3    H2 8260   5.522   3.419   3.615  0.2150  1.1287 -0.6131
 2766TIP3   OH2 8261   1.174   5.581   3.929  0.0555 -0.5970 -0.1219
 2766TIP3    H1 8262   1.224   5.600   3.850 -1.0401 -0.0980 -0.7264
 2766TIP3    H2 8263   1.180   5.661   3.981  1.1355 -1.0776  0.5162
 2767TIP3   OH2 8264   2.946   2.270   2.186  0.6784  0.7196 -0.1166
 2767TIP3    H1 8265   2.879   2.320   2.233 -1.5715 -0.4292 -1.8522
 2767TIP3    H2 8266   2.973   2.202   2.249 -1.8859 -0.4888 -0.1792
 2768TIP3   OH2 8267   2.844   4.388   0.658 -0.4890 -0.3917  0.3752
 2768TIP3    H1 8268   2.788   4.427   0.590 -0.7868 -3.4526 -1.3152
 2768TIP3    H2 8269   2.793   4.395   0.738 -1.1875  1.1452 -0.1580
 2769TIP3   OH2 8270   2.700   1.676   2.966  0.2301  0.0077 -0.2162
 2769TIP3    H1 8271   2.739   1.591   2.982  1.7819  0.9441  1.2626
 2769TIP3    H2 8272   2.646   1.664   2.888  1.0911 -2.0886 -0.5274
 2770TIP3   OH2 8273   6.541   2.136   4.133  0.4950 -0.1610 -0.1645
 2770TIP3    H1 8274   6.464   2.079   4.138  1.8026 -2.0516 -0.4090
 2770TIP3    H2 8275   6.506   2.224   4.144 -1.6172 -0.9968  0.4199
 2771TIP3   OH2 8276   0.789   1.771   4.915  0.1002 -0.1449  0.1501
 2771TIP3    H1 8277   0.796   1.852   4.865  0.1127  0.2029  0.7128
 2771TIP3    H2 8278   0.707   1.779   4.963  1.4221  0.8014  2.4103
 2772TIP3   OH2 8279   0.320   3.684   3.442 -0.8502  0.1025  0.3708
 2772TIP3    H1 8280   0.247   3.644   3.394 -0.6882  0.4610 -0.1894
 2772TIP3    H2 8281   0.396   3.631   3.418 -0.3107  1.6806 -1.7253
 2773TIP3   OH2 8282   2.299   6.057   3.383 -0.1444 -0.4901  0.5797
 2773TIP3    H1 8283   2.241   6.125   3.349  3.1168  1.1427 -2.2917
 2773TIP3    H2 8284   2.287   6.060   3.478 -0.7733  3.5155  0.5197
 2774TIP3   OH2 8285   6.262   2.253   4.566 -0.3167 -0.2000  0.1852
 2774TIP3    H1 8286   6.332   2.230   4.627 -0.4917 -0.2874  0.3527
 2774TIP3    H2 8287   6.294   2.332   4.521 -0.0280 -0.3528  0.1213
 2775TIP3   OH2 8288   1.298   4.774   5.256 -0.3080 -0.3826 -0.2912
 2775TIP3    H1 8289   1.309   4.680   5.268 -0.5909 -0.6516 -1.8500
 2775TIP3    H2 8290   1.354   4.795   5.181  0.4050  0.8650  0.5459
 2776TIP3   OH2 8291   1.248   3.981   0.771  0.5010  0.1449  0.4152
 2776TIP3    H1 8292   1.277   3.983   0.862 -0.5661  0.3401  0.7674
 2776TIP3    H2 8293   1.153   3.993   0.776  0.3896 -0.1580 -0.7048
 2777TIP3   OH2 8294   5.560   6.243   0.344  0.4204 -0.0822  0.6057
 2777TIP3    H1 8295   5.527   6.304   0.278  2.4592  0.8670  0.3955
 2777TIP3    H2 8296   5.654   6.261   0.348  0.8394 -2.2273  1.5951
 2778TIP3   OH2 8297   2.160   1.242   5.258 -0.2162  0.2747  0.1341
 2778TIP3    H1 8298   2.115   1.324   5.280  0.6155  0.3975  1.4807
 2778TIP3    H2 8299   2.188   1.255   5.167 -0.5708  1.2598  0.1441
 2779TIP3   OH2 8300   5.073   1.664   1.927 -0.2943  0.3192  0.3819
 2779TIP3    H1 8301   5.034   1.729   1.985 -1.0233 -0.6129  0.9715
 2779TIP3    H2 8302   5.157   1.643   1.966 -0.6414 -0.0672  0.9244
 2780TIP3   OH2 8303   7.015   3.662   4.743 -0.1476 -0.3418 -0.6731
 2780TIP3    H1 8304   7.004   3.629   4.654 -1.8599 -0.6432 -0.3867
 2780TIP3    H2 8305   7.037   3.755   4.732  1.1601 -0.7251 -1.4131
 2781TIP3   OH2 8306   1.774   2.282   1.713 -0.2072  0.3135 -0.4584
 2781TIP3    H1 8307   1.845   2.341   1.687 -1.5217  1.0634 -2.6536
 2781TIP3    H2 8308   1.749   2.312   1.800 -0.0140  2.2364 -1.0130
 2782TIP3   OH2 8309   4.052   4.558   2.958 -0.3766  0.2972 -0.3504
 2782TIP3    H1 8310   4.060   4.648   2.991  1.9269 -1.1521  3.7149
 2782TIP3    H2 8311   3.995   4.515   3.021 -0.2731 -1.4573 -1.4097
 2783TIP3   OH2 8312   5.777   1.410   5.282 -0.8304  0.0180 -0.8304
 2783TIP3    H1 8313   5.753   1.386   5.193 -1.1096  0.0180 -0.7558
 2783TIP3    H2 8314   5.717   1.481   5.306 -0.3006  0.5033 -0.8917
 2784TIP3   OH2 8315   0.955   1.111   0.626 -0.0108 -0.5934 -0.0427
 2784TIP3    H1 8316   1.002   1.119   0.709 -0.3116 -0.5746  0.1260
 2784TIP3    H2 8317   0.863   1.109   0.651 -0.1467  0.3712 -0.4478
 2785TIP3   OH2 8318   3.108   0.760   1.384 -0.2390  0.1096  0.1109
 2785TIP3    H1 8319   3.051   0.821   1.338  0.2438  0.8289  0.4479
 2785TIP3    H2 8320   3.195   0.776   1.347 -0.0726 -0.2124  0.3624
 2786TIP3   OH2 8321   5.248   0.367   1.816  0.1850  0.2222  0.4770
 2786TIP3    H1 8322   5.286   0.452   1.792  0.1895 -0.1957 -1.0650
 2786TIP3    H2 8323   5.293   0.343   1.897  1.2240  1.0115  0.1523
 2787TIP3   OH2 8324   6.972   3.438   1.992 -0.4182 -0.1270 -0.0892
 2787TIP3    H1 8325   7.024   3.444   1.912 -0.2263  0.8249  0.1020
 2787TIP3    H2 8326   6.884   3.464   1.965 -0.1405  1.1493  0.2073
 2788TIP3   OH2 8327   1.741   3.733   0.813 -0.2359  0.3504 -0.0544
 2788TIP3    H1 8328   1.767   3.666   0.750 -0.2621  1.2738 -1.0725
 2788TIP3    H2 8329   1.645   3.731   0.813 -0.2335 -0.0128  0.3721
 2789TIP3   OH2 8330   1.468   6.060   3.805  0.1166 -0.1990  0.4136
 2789TIP3    H1 8331   1.428   6.147   3.811  0.8984  0.1564  0.7632
 2789TIP3    H2 8332   1.490   6.038   3.896 -0.9057 -1.1770  0.4383
 2790TIP3   OH2 8333   3.564   1.066   2.270 -0.4663  0.4649 -0.1439
 2790TIP3    H1 8334   3.531   1.014   2.344 -0.5337  0.6836 -0.0182
 2790TIP3    H2 8335   3.510   1.145   2.272  0.2559  0.9558  0.2371
 2791TIP3   OH2 8336   3.261   3.087   5.832  0.4501  0.1403  0.3893
 2791TIP3    H1 8337   3.191   3.058   5.773  1.0955  0.8279 -0.7526
 2791TIP3    H2 8338   3.294   3.006   5.871  1.1685 -0.5595 -1.5473
 2792TIP3   OH2 8339   1.515   0.943   4.564  0.0452  0.1608 -0.0031
 2792TIP3    H1 8340   1.567   0.895   4.629  1.5319 -1.6273 -2.3289
 2792TIP3    H2 8341   1.463   0.876   4.520  1.0428  0.7884 -2.3375
 2793TIP3   OH2 8342   1.922   1.939   1.767 -0.1212  0.2016 -0.1647
 2793TIP3    H1 8343   1.878   2.001   1.824  1.9420  0.0569  1.7081
 2793TIP3    H2 8344   1.852   1.903   1.712 -1.8115  2.0276  0.6909
 2794TIP3   OH2 8345   0.048   2.021   1.838 -0.1784  0.0941  0.3253
 2794TIP3    H1 8346   0.009   2.080   1.902 -0.6778  0.8374 -0.6460
 2794TIP3    H2 8347   0.135   2.058   1.821 -0.3012  0.2649  0.0782
 2795TIP3   OH2 8348   2.419   3.953   5.426  0.3192  0.0197 -0.4963
 2795TIP3    H1 8349   2.447   3.887   5.490 -2.6277 -0.6404  0.3059
 2795TIP3    H2 8350   2.431   3.911   5.341  1.7498 -0.1450 -0.2361
 2796TIP3   OH2 8351   4.014   2.125   3.851  0.2625  0.1691 -0.1572
 2796TIP3    H1 8352   4.093   2.078   3.880  0.4024  0.5243  0.0430
 2796TIP3    H2 8353   3.952   2.115   3.923 -0.2780 -1.0418 -0.7644
 2797TIP3   OH2 8354   5.686   2.622   0.284 -0.0832  0.5593 -0.1399
 2797TIP3    H1 8355   5.592   2.626   0.266 -0.3040 -1.2330  0.4033
 2797TIP3    H2 8356   5.692   2.577   0.369  1.2855 -0.4277 -0.7254
 2798TIP3   OH2 8357   3.791   6.716   2.833  0.1491 -0.0178  0.2454
 2798TIP3    H1 8358   3.810   6.640   2.888 -0.0853  0.4031  0.9216
 2798TIP3    H2 8359   3.704   6.698   2.797  0.8055 -0.8586 -0.9830
 2799TIP3   OH2 8360   6.346   2.454   2.431 -0.0799 -0.7104 -0.1340
 2799TIP3    H1 8361   6.310   2.387   2.372 -0.3583 -0.5362 -0.1639
 2799TIP3    H2 8362   6.434   2.471   2.398 -0.5876  0.1162 -1.1137
 2800TIP3   OH2 8363   6.243   0.674   2.741  0.2599  0.7677  0.3700
 2800TIP3    H1 8364   6.200   0.594   2.711  1.2356  0.0412  0.8504
 2800TIP3    H2 8365   6.299   0.700   2.668 -1.3751  2.0537 -0.4956
 2801TIP3   OH2 8366   0.872   3.091   2.321 -0.0329  0.5706 -0.1838
 2801TIP3    H1 8367   0.921   3.174   2.318 -2.3458  2.0221 -0.0497
 2801TIP3    H2 8368   0.838   3.080   2.232  1.5142 -1.1266 -0.6347
 2802TIP3   OH2 8369   3.182   0.065   3.895 -0.1783  0.3583 -0.1822
 2802TIP3    H1 8370   3.231  -0.006   3.937  0.4513  0.2516 -1.0733
 2802TIP3    H2 8371   3.091   0.048   3.918  0.1111  0.0485  0.7521
 2803TIP3   OH2 8372   4.243   2.663   2.015 -0.3656  0.4429  0.0447
 2803TIP3    H1 8373   4.260   2.708   2.098  0.6742  1.6942 -0.8222
 2803TIP3    H2 8374   4.326   2.620   1.993 -0.9523 -0.8160  0.1663
 2804TIP3   OH2 8375   2.097   3.699   5.183  0.3637 -0.3519 -0.4629
 2804TIP3    H1 8376   2.154   3.672   5.255  0.8364  0.2593 -0.6006
 2804TIP3    H2 8377   2.020   3.644   5.192  2.1770 -3.4097 -2.0767
 2805TIP3   OH2 8378   4.673   4.354   0.379  0.3251 -0.3199  0.4926
 2805TIP3    H1 8379   4.584   4.341   0.411  0.8635 -0.3103  2.0779
 2805TIP3    H2 8380   4.707   4.427   0.431  1.2677 -0.3399 -0.0716
 2806TIP3   OH2 8381   3.723   3.694   5.660  0.1020 -0.0229  0.0857
 2806TIP3    H1 8382   3.802   3.743   5.637 -0.2201  0.5385  0.1357
 2806TIP3    H2 8383   3.677   3.681   5.577 -0.9742  1.8507  0.3308
 2807TIP3   OH2 8384   3.801   4.481   2.303 -0.1646 -0.2398 -0.3844
 2807TIP3    H1 8385   3.864   4.410   2.294 -1.5305 -1.5931  0.3600
 2807TIP3    H2 8386   3.747   4.476   2.223  0.6502  0.9314 -1.0368
 2808TIP3   OH2 8387   5.191   5.882   4.654  0.2217 -1.1883 -0.0118
 2808TIP3    H1 8388   5.177   5.959   4.599  0.9171 -0.1232  1.2405
 2808TIP3    H2 8389   5.105   5.866   4.694  0.5283  0.3529  1.4176
 2809TIP3   OH2 8390   0.803   1.011   5.419  0.3825 -0.0577  0.0531
 2809TIP3    H1 8391   0.779   0.954   5.346  1.1637 -2.0283  1.2530
 2809TIP3    H2 8392   0.727   1.068   5.431 -0.2140 -0.4516 -1.5441
 2810TIP3   OH2 8393   3.127   4.838   1.650  0.6189  0.5751  0.0350
 2810TIP3    H1 8394   3.211   4.819   1.608 -1.2036 -1.4225 -3.1176
 2810TIP3    H2 8395   3.064   4.784   1.602 -2.4342  1.6276  2.5599
 2811TIP3   OH2 8396   0.910   0.731   5.238  0.1507  0.1606  0.0536
 2811TIP3    H1 8397   0.844   0.777   5.289 -0.1042 -0.2851  0.1204
 2811TIP3    H2 8398   0.892   0.756   5.147 -0.1900 -0.0692  0.0598
 2812TIP3   OH2 8399   3.823   0.089   2.900 -0.1170 -0.0763 -0.3400
 2812TIP3    H1 8400   3.912   0.058   2.919 -0.2464 -1.0263 -1.2158
 2812TIP3    H2 8401   3.768   0.039   2.961 -0.2750 -1.2611 -1.4169
 2813TIP3   OH2 8402   1.481   0.649   3.770  0.1453  0.1306 -0.0630
 2813TIP3    H1 8403   1.489   0.743   3.784  0.5786 -0.0645  1.1046
 2813TIP3    H2 8404   1.415   0.621   3.833 -2.2533  0.0866 -2.4408
 2814TIP3   OH2 8405   2.223   5.894   0.155 -0.4326 -0.2349 -0.1123
 2814TIP3    H1 8406   2.210   5.807   0.119  1.1362 -0.7830  0.5788
 2814TIP3    H2 8407   2.151   5.906   0.216 -0.4052 -1.2445  0.1322
 2815TIP3   OH2 8408   1.222   2.544   1.167  0.0912  0.5514  0.0493
 2815TIP3    H1 8409   1.279   2.512   1.238 -1.3342 -1.4875  0.3777
 2815TIP3    H2 8410   1.157   2.599   1.212 -1.0181 -1.0133  0.4721
 2816TIP3   OH2 8411   6.813   0.022   2.787 -0.0994  0.4477  0.2988
 2816TIP3    H1 8412   6.898   0.040   2.746  0.9796 -0.9206  1.8526
 2816TIP3    H2 8413   6.829   0.031   2.881 -0.9361 -2.5158  0.8169
 2817TIP3   OH2 8414   5.188   4.688   2.688  0.1660  0.3913  0.7067
 2817TIP3    H1 8415   5.153   4.776   2.699  1.5957  0.8618  2.0125
 2817TIP3    H2 8416   5.220   4.664   2.776  1.8378 -0.4852 -0.0881
 2818TIP3   OH2 8417   3.691   1.356   3.666 -0.3733  0.1158 -0.3806
 2818TIP3    H1 8418   3.669   1.409   3.743  0.0872  1.5001 -1.1640
 2818TIP3    H2 8419   3.620   1.371   3.604 -0.1403 -0.0315 -0.6902
 2819TIP3   OH2 8420   1.801   1.745   4.070  0.0396 -0.2230 -0.2745
 2819TIP3    H1 8421   1.717   1.727   4.028 -0.0007 -1.2604  0.2148
 2819TIP3    H2 8422   1.838   1.658   4.087  0.5325  0.1915  0.8661
 2820TIP3   OH2 8423   6.099   4.264   4.036 -0.0801  0.2256 -0.7060
 2820TIP3    H1 8424   6.119   4.265   3.943  0.0529 -1.1149 -0.7071
 2820TIP3    H2 8425   6.029   4.199   4.045  0.8327 -0.6428  0.2957
 2821TIP3   OH2 8426   0.949   0.093   2.281  0.2136  0.3442 -0.4351
 2821TIP3    H1 8427   0.876   0.077   2.340  0.7957  2.5068  1.0342
 2821TIP3    H2 8428   1.000   0.012   2.283 -0.7402 -0.2627  0.6239
 2822TIP3   OH2 8429   1.405   3.758   4.650  0.7103  0.3782  0.3214
 2822TIP3    H1 8430   1.411   3.663   4.639 -1.7532  0.1761  0.3178
 2822TIP3    H2 8431   1.488   3.790   4.615  0.6854 -1.6063 -1.8570
 2823TIP3   OH2 8432   6.954   5.561   5.625  0.4899 -0.5990  0.1964
 2823TIP3    H1 8433   6.978   5.597   5.540  0.7898  0.8777  0.8739
 2823TIP3    H2 8434   6.904   5.481   5.605  0.6393 -0.3244 -1.3419
 2824TIP3   OH2 8435   3.359   6.585   5.611  0.4892 -0.0823  0.0497
 2824TIP3    H1 8436   3.371   6.590   5.705  2.6565  0.5414 -0.2055
 2824TIP3    H2 8437   3.367   6.492   5.590  2.6679  0.0077  0.2399
 2825TIP3   OH2 8438   0.219   0.321   2.187 -0.2575  0.0945  0.5405
 2825TIP3    H1 8439   0.286   0.378   2.225  1.2125 -1.0918 -0.1453
 2825TIP3    H2 8440   0.137   0.347   2.229  0.7283  1.2265  1.8168
 2826TIP3   OH2 8441   3.906   3.472   3.309  0.6630 -0.1970  0.1289
 2826TIP3    H1 8442   3.905   3.551   3.255  1.6234 -0.5691 -0.4672
 2826TIP3    H2 8443   3.821   3.472   3.353 -0.1260  0.1523 -1.3304
 2827TIP3   OH2 8444   4.381   6.295   5.148  0.3324 -0.2440  0.0223
 2827TIP3    H1 8445   4.351   6.343   5.071 -0.0829  0.4427  0.5993
 2827TIP3    H2 8446   4.380   6.360   5.218 -0.8855 -1.2367  0.9742
 2828TIP3   OH2 8447   1.044   5.156   0.348  0.1475  0.2941  0.3184
 2828TIP3    H1 8448   1.055   5.125   0.438  2.1790  1.2805  0.4610
 2828TIP3    H2 8449   1.081   5.245   0.349 -0.6905  0.6840 -1.2788
 2829TIP3   OH2 8450   2.569   1.390   3.953 -0.2612 -0.1463  0.6904
 2829TIP3    H1 8451   2.499   1.378   3.889  0.3870  1.9927 -0.5309
 2829TIP3    H2 8452   2.524   1.405   4.035 -1.1855 -0.2039  0.2125
 2830TIP3   OH2 8453   5.365   0.619   1.741  0.7078  0.2392  0.3928
 2830TIP3    H1 8454   5.297   0.652   1.799 -0.7269  0.2755 -1.2379
 2830TIP3    H2 8455   5.395   0.696   1.693  0.1604 -0.1567 -0.6087
 2831TIP3   OH2 8456   1.078   3.209   2.052  0.2732  0.6692  0.0118
 2831TIP3    H1 8457   0.990   3.175   2.035  1.1663 -1.8513 -0.0381
 2831TIP3    H2 8458   1.079   3.229   2.146  0.1729 -1.2069  0.4577
 2832TIP3   OH2 8459   1.218   5.995   1.466  0.0962  0.2015 -0.0531
 2832TIP3    H1 8460   1.185   6.013   1.378  0.9696 -1.4352 -0.7575
 2832TIP3    H2 8461   1.192   6.072   1.517 -3.5178 -0.2932 -0.8584
 2833TIP3   OH2 8462   0.718   3.498   3.618 -0.8625  0.3004  0.4119
 2833TIP3    H1 8463   0.764   3.503   3.534  1.4749 -0.9945  1.5170
 2833TIP3    H2 8464   0.637   3.451   3.598  1.2466 -3.2864 -0.6474
 2834TIP3   OH2 8465   5.926   2.721   3.484 -0.3749  0.4564  0.4355
 2834TIP3    H1 8466   5.909   2.810   3.516  1.1810  0.1848  2.2549
 2834TIP3    H2 8467   5.938   2.731   3.390 -4.0886  1.5058 -0.0758
 2835TIP3   OH2 8468   0.768   5.203   0.193 -0.1469  0.2272 -0.0646
 2835TIP3    H1 8469   0.693   5.240   0.240 -0.5686 -1.6600  0.8186
 2835TIP3    H2 8470   0.833   5.187   0.261  0.6988  0.8945 -0.6887
 2836TIP3   OH2 8471   6.012   2.445   3.958  0.0388 -0.2918  0.5992
 2836TIP3    H1 8472   6.103   2.474   3.957  0.0491 -0.1783  2.1092
 2836TIP3    H2 8473   5.962   2.526   3.959 -0.0629 -0.3511  0.2510
 2837TIP3   OH2 8474   6.138   6.318   5.425 -0.5223  0.0293 -0.2887
 2837TIP3    H1 8475   6.216   6.371   5.445 -0.8048  0.7066 -0.9691
 2837TIP3    H2 8476   6.172   6.245   5.373 -0.4917  0.9587 -1.6082
 2838TIP3   OH2 8477   0.230   5.188   1.993  0.0903  0.2418  0.2888
 2838TIP3    H1 8478   0.156   5.208   1.935 -0.2939  0.0771  0.7164
 2838TIP3    H2 8479   0.288   5.135   1.939 -0.9790 -1.1906  0.4943
 2839TIP3   OH2 8480   1.707   2.100   3.394  0.9588  0.4585  0.3277
 2839TIP3    H1 8481   1.790   2.129   3.431  0.7904  0.3376  0.8044
 2839TIP3    H2 8482   1.685   2.021   3.444 -0.2645  1.4023  1.3296
 2840TIP3   OH2 8483   2.738   4.514   0.876  0.3472 -0.1125 -0.6001
 2840TIP3    H1 8484   2.816   4.562   0.849 -0.2867  0.5725 -1.2869
 2840TIP3    H2 8485   2.689   4.576   0.930  0.6051 -0.7778  0.4253
 2841TIP3   OH2 8486   2.489   1.531   4.920 -0.3485  0.0923  0.6145
 2841TIP3    H1 8487   2.505   1.617   4.881 -0.9773 -0.8941 -1.9827
 2841TIP3    H2 8488   2.556   1.474   4.883 -1.5465 -1.0961  0.2046
 2842TIP3   OH2 8489   0.627   3.113   5.733 -0.0740 -0.0134 -0.3475
 2842TIP3    H1 8490   0.597   3.204   5.735  0.6699  0.2306  0.2438
 2842TIP3    H2 8491   0.677   3.103   5.815  0.9716 -0.5553 -1.0361
 2843TIP3   OH2 8492   2.344   0.932   3.223 -0.0058 -0.3316  0.0545
 2843TIP3    H1 8493   2.370   0.947   3.132 -0.5753 -0.6168 -0.1581
 2843TIP3    H2 8494   2.372   1.011   3.269 -0.0028 -0.0468 -0.4283
 2844TIP3   OH2 8495   1.358   5.102   1.711 -0.3117  0.5062  0.0847
 2844TIP3    H1 8496   1.342   5.019   1.666  0.1912  0.7009 -0.4695
 2844TIP3    H2 8497   1.271   5.136   1.731 -0.6179  1.0169 -1.8805
 2845TIP3   OH2 8498   3.553   2.447   5.128  0.0884 -0.0217 -0.3237
 2845TIP3    H1 8499   3.516   2.376   5.180  2.2831  0.2548  1.8222
 2845TIP3    H2 8500   3.482   2.512   5.123 -1.3432 -1.5379 -0.7801
 2846TIP3   OH2 8501  -0.018   0.832   5.766  0.5284  0.4738  0.8680
 2846TIP3    H1 8502   0.037   0.843   5.688 -0.6596 -0.7947 -0.2024
 2846TIP3    H2 8503   0.038   0.859   5.838  1.9565  0.8959 -0.3350
 2847TIP3   OH2 8504   0.517   6.162   0.350 -0.6682 -0.2169  0.6911
 2847TIP3    H1 8505   0.525   6.077   0.394 -0.5281 -0.9013 -0.6185
 2847TIP3    H2 8506   0.564   6.223   0.408  0.2516 -1.2480  1.0603
 2848TIP3   OH2 8507   6.687   1.872   1.268 -0.2571 -0.5818  0.4633
 2848TIP3    H1 8508   6.663   1.826   1.348  0.8506 -1.8211  0.1182
 2848TIP3    H2 8509   6.670   1.965   1.287 -2.0508 -1.0505  1.3512
 2849TIP3   OH2 8510   1.335   5.695   0.360  0.4835  0.4283  0.7152
 2849TIP3    H1 8511   1.387   5.615   0.362 -0.4693 -0.2129  0.3498
 2849TIP3    H2 8512   1.259   5.676   0.414 -1.2742 -0.0217 -1.7442
 2850TIP3   OH2 8513   3.655   5.996   5.571  0.3235  0.2864  0.2382
 2850TIP3    H1 8514   3.652   5.917   5.515 -2.2721  1.5635 -1.6625
 2850TIP3    H2 8515   3.568   5.999   5.611  0.0777  2.5232 -0.3445
 2851TIP3   OH2 8516   4.387   6.031   2.919 -0.5506  0.2135  0.0078
 2851TIP3    H1 8517   4.329   6.034   2.996 -0.8953  1.0328 -0.2803
 2851TIP3    H2 8518   4.349   5.962   2.864  0.7794 -1.7581  1.3935
 2852TIP3   OH2 8519   5.714   4.027   2.167  0.3923  0.2882 -0.1204
 2852TIP3    H1 8520   5.733   3.933   2.162  0.3485  0.1548  1.6301
 2852TIP3    H2 8521   5.754   4.064   2.088 -0.9127 -1.3948 -1.6396
 2853TIP3   OH2 8522   6.041   3.028   3.083  0.0488  0.1884 -0.4144
 2853TIP3    H1 8523   6.061   3.115   3.119  0.6649  0.4643 -1.3900
 2853TIP3    H2 8524   6.111   3.012   3.019  0.6930 -1.5704  0.6467
 2854TIP3   OH2 8525   3.928   2.328   5.046 -1.1115 -0.1696 -0.3941
 2854TIP3    H1 8526   3.896   2.355   5.132 -0.6230  1.2624 -0.6283
 2854TIP3    H2 8527   4.023   2.323   5.056 -1.1849 -2.2035 -0.2879
 2855TIP3   OH2 8528   3.881   6.030   3.054 -0.1740 -0.5471 -0.9002
 2855TIP3    H1 8529   3.931   6.060   3.129 -3.1036  0.3537  0.8821
 2855TIP3    H2 8530   3.915   6.081   2.980  2.1828 -0.8153 -0.0768
 2856TIP3   OH2 8531   7.036   0.376   2.628 -0.1471  0.2659  0.7089
 2856TIP3    H1 8532   7.120   0.396   2.669 -0.4989  0.3036  1.4381
 2856TIP3    H2 8533   6.974   0.376   2.701 -0.6201 -0.7015  0.3242
 2857TIP3   OH2 8534   5.306   5.193   4.923 -0.1953  0.2395  0.0629
 2857TIP3    H1 8535   5.224   5.166   4.882  0.2131 -0.6928 -0.1662
 2857TIP3    H2 8536   5.370   5.190   4.852  0.1435  0.4537  0.3568
 2858TIP3   OH2 8537   1.731   5.723   4.636 -0.0618  0.3630  0.5140
 2858TIP3    H1 8538   1.760   5.767   4.555 -1.4551  0.3442 -0.0252
 2858TIP3    H2 8539   1.767   5.635   4.629  1.8138  1.0202  1.0719
 2859TIP3   OH2 8540   4.771   2.717   1.078 -0.1896 -0.2564  0.1267
 2859TIP3    H1 8541   4.739   2.802   1.047  1.1175  0.5059  0.7417
 2859TIP3    H2 8542   4.861   2.735   1.105  0.4637 -2.0882 -0.7226
 2860TIP3   OH2 8543   2.081   2.350   4.520 -0.0914  0.0787  0.1245
 2860TIP3    H1 8544   2.148   2.342   4.452 -0.4467  1.3063 -0.3944
 2860TIP3    H2 8545   2.000   2.320   4.478 -0.0892 -0.3261  0.4009
 2861TIP3   OH2 8546   2.329   2.699   5.528 -0.2559  0.0206 -0.3172
 2861TIP3    H1 8547   2.381   2.623   5.553  0.5035  0.9141  0.9475
 2861TIP3    H2 8548   2.300   2.737   5.611  0.1902  1.6299 -0.8505
 2862TIP3   OH2 8549   5.132   6.089   1.676  0.0310 -0.4013 -0.6425
 2862TIP3    H1 8550   5.104   6.121   1.590 -0.3817 -0.5139 -0.5528
 2862TIP3    H2 8551   5.160   6.168   1.723  0.5324 -0.3743 -0.9759
 2863TIP3   OH2 8552   0.284   2.257   4.618  0.0905 -0.5705  0.6641
 2863TIP3    H1 8553   0.355   2.193   4.624 -0.9728 -1.8431  0.2401
 2863TIP3    H2 8554   0.295   2.299   4.533 -0.6672 -2.0513 -0.2053
 2864TIP3   OH2 8555   1.149   0.529   0.539  0.0433 -0.1009 -0.2084
 2864TIP3    H1 8556   1.116   0.551   0.452 -0.7965  0.3454  0.2051
 2864TIP3    H2 8557   1.146   0.612   0.587  2.2154  0.0508 -0.2722
 2865TIP3   OH2 8558   0.540   2.574   2.689 -0.0787 -0.2240  0.3822
 2865TIP3    H1 8559   0.493   2.647   2.731 -2.4317 -0.3576 -1.7411
 2865TIP3    H2 8560   0.606   2.617   2.635 -0.3533  0.2368  0.4014
 2866TIP3   OH2 8561   2.962   4.515   4.768 -0.0383  0.0001 -0.2203
 2866TIP3    H1 8562   2.997   4.602   4.786 -0.6920  0.2964 -0.3707
 2866TIP3    H2 8563   2.995   4.461   4.840 -0.9289  0.7168  0.7547
 2867TIP3   OH2 8564   6.105   3.707   1.041 -0.4184  0.0255 -0.2986
 2867TIP3    H1 8565   6.039   3.693   1.108  2.5131 -3.7419  2.2256
 2867TIP3    H2 8566   6.176   3.754   1.085 -0.2968  1.8377 -2.2341
 2868TIP3   OH2 8567   1.527   4.722   1.410  0.1428 -0.2621  0.0426
 2868TIP3    H1 8568   1.586   4.752   1.340  1.1912 -1.1726  0.4992
 2868TIP3    H2 8569   1.453   4.683   1.364  0.6162 -0.4575 -0.5701
 2869TIP3   OH2 8570   6.874   0.534   4.968 -0.2240 -0.3777  0.5893
 2869TIP3    H1 8571   6.938   0.466   4.992  0.4407  0.5738  1.5888
 2869TIP3    H2 8572   6.829   0.555   5.050  0.7657  1.5946  0.6754
 2870TIP3   OH2 8573   6.264   2.496   3.230 -0.5428 -0.1706 -0.6685
 2870TIP3    H1 8574   6.320   2.458   3.162 -0.6339  0.4628 -1.1097
 2870TIP3    H2 8575   6.271   2.590   3.216  1.5786  0.1789  1.8766
 2871TIP3   OH2 8576   6.760   5.177   2.932  0.0456 -0.3117 -0.2179
 2871TIP3    H1 8577   6.756   5.267   2.900  1.7275  0.1107  0.6151
 2871TIP3    H2 8578   6.767   5.124   2.852  0.1061  0.3884 -0.6902
 2872TIP3   OH2 8579   0.692   6.048   4.577  0.1410 -0.4208 -0.1550
 2872TIP3    H1 8580   0.664   6.138   4.560  0.4539 -0.2069  0.4368
 2872TIP3    H2 8581   0.684   6.038   4.672 -0.6506 -1.2747 -0.2961
 2873TIP3   OH2 8582   6.466   1.472   1.561 -0.5664  0.3035 -0.0035
 2873TIP3    H1 8583   6.488   1.548   1.506  4.1781  0.6761  1.8949
 2873TIP3    H2 8584   6.497   1.397   1.511 -0.4077  0.1810  0.2790
 2874TIP3   OH2 8585   2.708   0.623   2.424  0.0261  0.2365  0.2499
 2874TIP3    H1 8586   2.626   0.671   2.412 -0.8100 -1.5878 -2.1436
 2874TIP3    H2 8587   2.682   0.540   2.464  0.5915 -0.5492 -0.9535
 2875TIP3   OH2 8588   4.142   1.780   3.480 -0.3731  0.6022 -0.4458
 2875TIP3    H1 8589   4.207   1.759   3.413  0.2252  1.2833 -0.0987
 2875TIP3    H2 8590   4.146   1.707   3.541 -0.5036  0.2635 -0.8313
 2876TIP3   OH2 8591   4.573   4.499   1.036  0.6331  0.2052 -0.4494
 2876TIP3    H1 8592   4.667   4.489   1.053  0.6622  2.4104  1.1018
 2876TIP3    H2 8593   4.550   4.421   0.986  3.0855 -0.8879 -0.0537
 2877TIP3   OH2 8594   5.757   0.853   0.232  0.3318 -0.0466 -0.0735
 2877TIP3    H1 8595   5.670   0.833   0.199 -0.4972 -1.1633  2.5377
 2877TIP3    H2 8596   5.810   0.866   0.153 -2.2095  0.9748 -1.7397
 2878TIP3   OH2 8597   6.302   1.717   2.699 -0.1989  0.1945 -0.7401
 2878TIP3    H1 8598   6.261   1.660   2.764 -0.1791 -0.5233 -1.3492
 2878TIP3    H2 8599   6.244   1.713   2.623  0.6822 -0.3691 -1.4005
 2879TIP3   OH2 8600   4.282   4.347   3.822 -0.2265 -0.0098  0.0797
 2879TIP3    H1 8601   4.203   4.299   3.795  0.7183 -1.2776 -0.5457
 2879TIP3    H2 8602   4.269   4.364   3.915 -1.1497 -0.3737  0.0337
 2880TIP3   OH2 8603   4.322   5.160   0.518  0.8643  0.3352 -0.1130
 2880TIP3    H1 8604   4.311   5.177   0.424 -0.9607 -0.0612 -0.0069
 2880TIP3    H2 8605   4.384   5.088   0.522 -0.7058 -1.1642 -1.1752
 2881TIP3   OH2 8606   0.555   4.243   1.042  0.3208  0.4204 -0.5243
 2881TIP3    H1 8607   0.492   4.182   1.081 -1.2963 -0.2464 -3.8956
 2881TIP3    H2 8608   0.640   4.200   1.053 -0.0442  0.1357  1.8063
 2882TIP3   OH2 8609   0.860   4.172   0.899  0.3085  0.3664  0.5557
 2882TIP3    H1 8610   0.849   4.194   0.807 -2.3968 -0.2039  0.6569
 2882TIP3    H2 8611   0.810   4.238   0.946  0.4107 -0.2047  1.5018
 2883TIP3   OH2 8612   0.741   5.114   3.530  0.1437  0.0147 -0.5565
 2883TIP3    H1 8613   0.651   5.133   3.556  0.1535 -0.0436 -0.4824
 2883TIP3    H2 8614   0.749   5.153   3.443 -0.9375 -2.7072 -1.9848
 2884TIP3   OH2 8615   5.862   2.667   2.187  0.4582  0.0588  0.6065
 2884TIP3    H1 8616   5.912   2.692   2.109  0.3852 -0.6961  0.3162
 2884TIP3    H2 8617   5.841   2.751   2.229 -0.9905  0.6052 -1.0941
 2885TIP3   OH2 8618   3.919   2.054   3.419  0.0996  0.1262  0.2535
 2885TIP3    H1 8619   3.869   1.982   3.458 -1.0716  0.3800 -0.7168
 2885TIP3    H2 8620   3.932   2.116   3.490 -2.1787  0.6849  0.2811
 2886TIP3   OH2 8621   6.555   0.801   1.851 -0.2600 -0.0756 -0.2027
 2886TIP3    H1 8622   6.641   0.840   1.871 -0.8868  1.1216  0.2986
 2886TIP3    H2 8623   6.493   0.874   1.863 -1.4207 -1.0922  0.1339
 2887TIP3   OH2 8624   5.238   3.965   2.393  0.6121  0.1712 -0.0295
 2887TIP3    H1 8625   5.165   3.903   2.384  0.2949  0.4532  0.5480
 2887TIP3    H2 8626   5.257   3.993   2.304  0.2881 -0.2253 -0.2251
 2888TIP3   OH2 8627   6.851   3.134   1.775  0.1062  0.3140  0.4657
 2888TIP3    H1 8628   6.763   3.098   1.768  0.0247  0.3237  1.3124
 2888TIP3    H2 8629   6.846   3.220   1.732  0.0432 -0.2327 -0.6425
 2889TIP3   OH2 8630   2.043   6.373   5.250 -0.2614  0.1442 -0.2063
 2889TIP3    H1 8631   1.968   6.315   5.237 -0.7439  0.8949 -0.8192
 2889TIP3    H2 8632   2.006   6.451   5.291  0.0077  0.9224 -1.3966
 2890TIP3   OH2 8633   1.136   0.778   1.244 -0.2543 -0.4703 -0.1468
 2890TIP3    H1 8634   1.057   0.769   1.297 -0.5680 -0.1313 -0.5472
 2890TIP3    H2 8635   1.156   0.872   1.244  0.5743 -0.6376  0.5525
 2891TIP3   OH2 8636   5.103   0.781   5.123  0.2505  0.1526  0.0897
 2891TIP3    H1 8637   5.024   0.735   5.149  0.4027 -0.2838 -0.1943
 2891TIP3    H2 8638   5.073   0.866   5.090 -0.2571 -0.6063 -1.4809
 2892TIP3   OH2 8639   2.926   2.895   1.462 -0.2398 -0.1263 -0.0098
 2892TIP3    H1 8640   2.926   2.977   1.512 -0.1032 -0.4829  0.5714
 2892TIP3    H2 8641   2.836   2.887   1.430 -0.4270 -0.0841  0.4916
 2893TIP3   OH2 8642   1.820   0.127   2.148  0.0576 -0.2111  0.0235
 2893TIP3    H1 8643   1.798   0.211   2.109 -0.1245 -0.2405  0.0610
 2893TIP3    H2 8644   1.905   0.140   2.188  0.0187 -0.0377  0.0487
 2894TIP3   OH2 8645   6.182   4.580   2.099  0.3935 -0.2188 -0.0686
 2894TIP3    H1 8646   6.153   4.670   2.084  0.4744  0.4548  3.1907
 2894TIP3    H2 8647   6.104   4.527   2.082 -0.6369  0.8302  1.1180
 2895TIP3   OH2 8648   0.690   1.196   4.283 -0.6532 -0.1331  0.0027
 2895TIP3    H1 8649   0.765   1.188   4.224 -1.1304  0.3363 -0.6885
 2895TIP3    H2 8650   0.667   1.105   4.305  2.0076 -0.3105  2.7521
 2896TIP3   OH2 8651   5.054   4.160   4.934  0.4448 -0.1223  0.1262
 2896TIP3    H1 8652   5.096   4.180   4.851  0.8282  1.9097  0.7653
 2896TIP3    H2 8653   5.110   4.093   4.974  0.9591 -0.1827 -0.6791
 2897TIP3   OH2 8654   6.738   6.413   4.459  0.2543  0.0388  1.0107
 2897TIP3    H1 8655   6.726   6.393   4.552  1.0171 -0.1223  1.0766
 2897TIP3    H2 8656   6.723   6.507   4.452  0.8050  0.1583  1.4037
 2898TIP3   OH2 8657   6.510   2.639   4.112 -0.0096 -0.5551 -0.2430
 2898TIP3    H1 8658   6.567   2.682   4.048  1.0146 -0.4233  0.7322
 2898TIP3    H2 8659   6.512   2.697   4.189 -0.7366 -1.0130  0.1321
 2899TIP3   OH2 8660   5.537   0.654   5.220  0.5718 -0.8695 -0.2542
 2899TIP3    H1 8661   5.479   0.599   5.273  0.3965  0.2944  0.7867
 2899TIP3    H2 8662   5.481   0.726   5.191  1.6864  0.8676  1.6661
 2900TIP3   OH2 8663   1.202   2.383   0.697 -0.3178 -0.3752 -0.0798
 2900TIP3    H1 8664   1.232   2.445   0.630 -1.7315 -0.8579 -1.2124
 2900TIP3    H2 8665   1.187   2.437   0.775 -1.1774  0.6590 -0.9333
 2901TIP3   OH2 8666   4.275   0.727   3.310  0.3358  0.0452 -0.0318
 2901TIP3    H1 8667   4.214   0.767   3.373 -1.3551  0.5581 -1.8800
 2901TIP3    H2 8668   4.355   0.779   3.319 -0.9373  2.2632 -0.5134
 2902TIP3   OH2 8669   1.976   4.986   5.274  0.4789  0.2934  0.2545
 2902TIP3    H1 8670   2.023   4.909   5.307 -0.1249  0.0642  0.5853
 2902TIP3    H2 8671   1.997   5.055   5.337  0.9071  0.3707  0.0342
 2903TIP3   OH2 8672   6.346   5.672   3.733 -0.0096  0.3921  0.0775
 2903TIP3    H1 8673   6.298   5.656   3.814  0.3423  0.3311  0.2763
 2903TIP3    H2 8674   6.280   5.706   3.672 -0.3092  0.2734  0.3347
 2904TIP3   OH2 8675   3.438   0.794   1.903 -0.1309  0.3967 -0.4140
 2904TIP3    H1 8676   3.345   0.794   1.923  0.1147  1.6022  0.8121
 2904TIP3    H2 8677   3.475   0.864   1.957  1.4463  0.1043 -1.0600
 2905TIP3   OH2 8678   3.510   1.153   3.191 -0.4425  0.3376 -0.2859
 2905TIP3    H1 8679   3.421   1.121   3.205 -1.5174  2.4196 -1.7514
 2905TIP3    H2 8680   3.543   1.102   3.118 -0.7298  0.0652 -0.2262
 2906TIP3   OH2 8681   3.588   0.606   3.139 -0.6945  0.6027  0.7555
 2906TIP3    H1 8682   3.583   0.514   3.111  1.4359  1.2189 -2.0700
 2906TIP3    H2 8683   3.645   0.605   3.215  1.7339 -0.2142 -0.9706
 2907TIP3   OH2 8684   0.437   1.679   3.468  0.2327 -0.4058  0.1085
 2907TIP3    H1 8685   0.419   1.695   3.561  0.2363 -1.6042  0.3235
 2907TIP3    H2 8686   0.353   1.650   3.432 -0.0678  1.1691 -0.5407
 2908TIP3   OH2 8687   3.289   5.589   5.301  0.3993  0.1146  0.1629
 2908TIP3    H1 8688   3.234   5.563   5.375  0.8179  1.2058  0.8932
 2908TIP3    H2 8689   3.236   5.653   5.253 -0.1106 -1.0317 -0.8639
 2909TIP3   OH2 8690   4.449   4.589   2.777  0.0468 -0.7143  0.1246
 2909TIP3    H1 8691   4.433   4.652   2.847  2.4474  0.9220 -0.6907
 2909TIP3    H2 8692   4.418   4.633   2.698  3.0209  0.1921 -0.6582
 2910TIP3   OH2 8693   4.769   3.791   4.608  0.6282  0.0546  0.0629
 2910TIP3    H1 8694   4.849   3.799   4.556  1.9773 -0.9822  1.8788
 2910TIP3    H2 8695   4.797   3.750   4.690 -1.9277 -1.2285  0.4029
 2911TIP3   OH2 8696   4.106   5.062   0.813  0.0315  0.2435  0.5601
 2911TIP3    H1 8697   4.048   5.079   0.887  0.5167  1.0372  0.7717
 2911TIP3    H2 8698   4.193   5.085   0.846  0.1556  1.3106 -0.4914
 2912TIP3   OH2 8699   2.237   5.008   1.010  0.1414  0.5312 -0.1288
 2912TIP3    H1 8700   2.329   5.032   0.998  0.6300 -1.1277  0.0336
 2912TIP3    H2 8701   2.224   5.008   1.105 -0.1840  1.2622 -0.1660
 2913TIP3   OH2 8702   6.903   4.098   4.891 -0.1668  0.4222 -0.1098
 2913TIP3    H1 8703   6.987   4.142   4.877  0.4908 -0.5784  0.5610
 2913TIP3    H2 8704   6.873   4.075   4.803 -1.6233  4.0636 -0.7237
 2914TIP3   OH2 8705   2.579   3.235   5.457  0.6689  0.0756 -0.0853
 2914TIP3    H1 8706   2.491   3.199   5.445  0.1344  1.2801  0.1198
 2914TIP3    H2 8707   2.587   3.303   5.391  0.9360  0.8731  0.7393
 2915TIP3   OH2 8708   4.564   1.033   4.511  0.0166 -0.0974 -0.3731
 2915TIP3    H1 8709   4.597   0.961   4.566 -0.6379  0.4739  0.8134
 2915TIP3    H2 8710   4.642   1.075   4.476  0.4595 -0.3592  0.2954
 2916TIP3   OH2 8711   3.809   3.401   3.741 -0.2139  0.8232 -0.4970
 2916TIP3    H1 8712   3.825   3.352   3.821  0.2362  1.1143 -0.4088
 2916TIP3    H2 8713   3.895   3.415   3.703 -0.3472  1.4215 -0.5940
 2917TIP3   OH2 8714   5.569   5.759   1.157 -0.5496  0.5877  0.7441
 2917TIP3    H1 8715   5.661   5.749   1.132 -0.8700 -1.7926  0.2158
 2917TIP3    H2 8716   5.531   5.812   1.087 -0.4020 -1.9849 -1.4786
 2918TIP3   OH2 8717   7.075   3.178   5.095  0.2548  0.1121 -0.0951
 2918TIP3    H1 8718   7.035   3.239   5.033 -0.6606  0.4205  0.7790
 2918TIP3    H2 8719   7.106   3.234   5.166 -0.4327 -0.4205  0.6334
 2919TIP3   OH2 8720   0.182   4.538   0.134 -0.2799  0.0440 -0.0419
 2919TIP3    H1 8721   0.186   4.633   0.117 -2.5174  0.3501  0.7845
 2919TIP3    H2 8722   0.185   4.499   0.047  1.3136  0.7930 -0.3727
 2920TIP3   OH2 8723   2.521   1.354   4.262 -0.2211 -0.3979  0.1706
 2920TIP3    H1 8724   2.551   1.285   4.322  0.0474  1.0448  1.7599
 2920TIP3    H2 8725   2.594   1.415   4.257 -0.0292 -0.7106 -2.1027
 2921TIP3   OH2 8726   4.420   3.523   5.299 -0.6195  0.2895  0.0819
 2921TIP3    H1 8727   4.360   3.595   5.282  1.5693  1.8346 -1.7986
 2921TIP3    H2 8728   4.427   3.476   5.216  1.8218  1.0976 -0.2645
 2922TIP3   OH2 8729   5.319   3.272   3.931  0.0870 -0.0727 -0.0348
 2922TIP3    H1 8730   5.282   3.358   3.910 -0.7101  0.2524  2.3845
 2922TIP3    H2 8731   5.408   3.275   3.895 -0.3701  1.2509 -1.1429
 2923TIP3   OH2 8732   2.308   3.988   2.210 -0.1899 -0.1288 -0.2765
 2923TIP3    H1 8733   2.281   4.074   2.242 -0.3734  0.5935 -2.2500
 2923TIP3    H2 8734   2.312   3.998   2.115  0.9040 -1.9936 -0.4717
 2924TIP3   OH2 8735   5.767   3.921   1.050  0.0739  0.6099 -0.0141
 2924TIP3    H1 8736   5.827   3.914   0.976  1.7677  0.3614  1.2990
 2924TIP3    H2 8737   5.737   3.831   1.065  0.4506  0.5137  0.1654
 2925TIP3   OH2 8738   2.307   5.171   1.598  0.3241 -0.6177  0.0570
 2925TIP3    H1 8739   2.319   5.154   1.505  0.3329  1.1273 -0.2869
 2925TIP3    H2 8740   2.330   5.089   1.640 -2.5371 -2.4636 -1.6292
 2926TIP3   OH2 8741   6.062   5.508   0.285 -0.4673  0.7757  0.0737
 2926TIP3    H1 8742   6.100   5.577   0.230  1.2298  0.3159  0.6119
 2926TIP3    H2 8743   6.123   5.499   0.357 -1.7345  0.1043  1.1042
 2927TIP3   OH2 8744   0.074   4.350   0.378 -0.3733  0.4730  0.2326
 2927TIP3    H1 8745   0.092   4.402   0.299  0.2264 -0.6131 -0.3854
 2927TIP3    H2 8746   0.003   4.291   0.352  1.4081 -1.5775 -0.3729
 2928TIP3   OH2 8747   0.800   4.769   2.300 -0.5529  0.4505  0.1973
 2928TIP3    H1 8748   0.719   4.774   2.248 -1.2884 -2.4462  0.8602
 2928TIP3    H2 8749   0.870   4.778   2.235 -1.4374  0.2500 -0.8239
 2929TIP3   OH2 8750   2.639   1.986   4.334 -0.3588  0.3581 -0.0133
 2929TIP3    H1 8751   2.595   1.965   4.252  0.2084  0.2454 -0.2945
 2929TIP3    H2 8752   2.723   1.940   4.328  0.2643  1.4627  0.0186
 2930TIP3   OH2 8753   0.878   1.420   1.991 -0.5620 -0.9208  0.1128
 2930TIP3    H1 8754   0.907   1.455   2.075  1.8035  0.2139 -1.0609
 2930TIP3    H2 8755   0.907   1.329   1.991 -1.6262 -1.2717  0.9618
 2931TIP3   OH2 8756   7.076   5.792   2.576 -0.5141 -0.5570 -0.2749
 2931TIP3    H1 8757   7.153   5.752   2.616 -0.4830 -0.3459 -0.1209
 2931TIP3    H2 8758   7.111   5.850   2.509 -0.4967  0.0946  0.2848
 2932TIP3   OH2 8759   1.101   2.783   1.295  0.8022  0.5970 -0.1158
 2932TIP3    H1 8760   1.134   2.851   1.236  0.0700  0.3767 -0.7849
 2932TIP3    H2 8761   1.033   2.826   1.347 -0.1537  0.2159 -1.0225
 2933TIP3   OH2 8762   0.493   2.975   0.097 -0.1303 -0.4046 -0.0689
 2933TIP3    H1 8763   0.536   3.046   0.144 -0.2450  0.2232 -0.8888
 2933TIP3    H2 8764   0.533   2.896   0.131 -1.0869 -0.0763  2.0290
 2934TIP3   OH2 8765   0.760   6.698   1.241 -0.2114  0.0833  0.6633
 2934TIP3    H1 8766   0.763   6.626   1.304 -0.3185  0.1049  0.6935
 2934TIP3    H2 8767   0.667   6.711   1.224 -0.2175  0.5072  0.9931
 2935TIP3   OH2 8768   5.385   2.788   5.752  0.1764  0.4667 -0.4712
 2935TIP3    H1 8769   5.335   2.716   5.712  0.9857 -0.3347 -0.0765
 2935TIP3    H2 8770   5.329   2.819   5.824  0.5110 -0.8886  0.4129
 2936TIP3   OH2 8771   1.758   0.508   4.241 -0.0010  0.3494 -0.2090
 2936TIP3    H1 8772   1.668   0.497   4.271  0.5649  0.1900  1.5156
 2936TIP3    H2 8773   1.756   0.586   4.186 -1.4821 -0.5752 -1.5541
 2937TIP3   OH2 8774   3.049   5.204   3.199 -0.3680  0.3659 -0.1206
 2937TIP3    H1 8775   3.096   5.239   3.124  2.2247  2.5532  2.3031
 2937TIP3    H2 8776   3.000   5.279   3.233  1.2033  0.4097  2.2307
 2938TIP3   OH2 8777   5.480   5.719   2.415 -0.9672 -0.0404 -0.6309
 2938TIP3    H1 8778   5.542   5.666   2.364 -1.5779  0.0951 -1.5372
 2938TIP3    H2 8779   5.479   5.678   2.502  1.2683  0.6586 -0.2110
 2939TIP3   OH2 8780   5.890   3.744   0.490  0.3863  0.1089  0.1356
 2939TIP3    H1 8781   5.801   3.779   0.503  0.7885  0.6771  1.6221
 2939TIP3    H2 8782   5.943   3.822   0.475  1.1101  0.1205  2.3472
 2940TIP3   OH2 8783   1.212   6.264   0.928  0.3354  0.0793 -0.2422
 2940TIP3    H1 8784   1.216   6.185   0.983 -0.0448  0.6256  0.5945
 2940TIP3    H2 8785   1.295   6.309   0.945 -0.5772  1.2340  1.4433
 2941TIP3   OH2 8786   0.568   5.471   4.181  0.1626 -0.5626  0.4563
 2941TIP3    H1 8787   0.571   5.495   4.274  0.2091 -0.8937  0.5418
 2941TIP3    H2 8788   0.609   5.385   4.178  0.2700 -0.4985  0.1087
 2942TIP3   OH2 8789   4.601   0.129   0.708 -0.3929 -0.0590  0.1162
 2942TIP3    H1 8790   4.682   0.081   0.726  1.2614  1.5518 -2.4278
 2942TIP3    H2 8791   4.619   0.218   0.736 -0.6353  0.6786 -1.8945
 2943TIP3   OH2 8792   0.999   1.591   0.551 -0.0126 -0.1044  0.0548
 2943TIP3    H1 8793   0.964   1.608   0.639 -0.3306  0.1234 -0.1127
 2943TIP3    H2 8794   0.922   1.588   0.495  0.1422 -0.8076 -0.1357
 2944TIP3   OH2 8795   4.428   0.648   3.024  0.0730  0.2267 -0.1097
 2944TIP3    H1 8796   4.348   0.702   3.020 -0.2428 -0.3060 -2.4615
 2944TIP3    H2 8797   4.402   0.571   3.075 -0.3808  0.8508  0.6296
 2945TIP3   OH2 8798   4.562   1.101   3.808  0.2606 -0.7890  0.4044
 2945TIP3    H1 8799   4.488   1.162   3.804  1.1884  0.3452 -0.2125
 2945TIP3    H2 8800   4.563   1.070   3.899 -1.6818 -1.7627  0.1262
 2946TIP3   OH2 8801   6.571   0.605   3.214 -0.4316  0.2420 -0.1158
 2946TIP3    H1 8802   6.553   0.661   3.139 -0.1308  0.1042 -0.2896
 2946TIP3    H2 8803   6.605   0.665   3.281  0.0028  0.2494 -0.3428
 2947TIP3   OH2 8804   2.702   1.479   2.171  0.8765  0.2197  0.0573
 2947TIP3    H1 8805   2.761   1.520   2.235  2.7766  0.3095 -1.6437
 2947TIP3    H2 8806   2.706   1.386   2.193 -0.3581  0.4693  1.4911
 2948TIP3   OH2 8807   1.808   6.176   5.222 -0.3273  0.3667  0.2482
 2948TIP3    H1 8808   1.722   6.176   5.180 -0.7594 -1.1635  1.0411
 2948TIP3    H2 8809   1.862   6.120   5.166 -0.6446 -0.9160  1.1768
 2949TIP3   OH2 8810   1.280   1.917   5.237  0.2471 -0.0812 -0.5350
 2949TIP3    H1 8811   1.218   1.977   5.197  0.3130 -0.7484 -1.6891
 2949TIP3    H2 8812   1.226   1.858   5.290  0.0782  0.3488 -0.2231
 2950TIP3   OH2 8813   3.942   1.080   2.430 -0.5436 -0.2393  0.6090
 2950TIP3    H1 8814   3.914   1.163   2.391  0.3875  0.4782  1.3930
 2950TIP3    H2 8815   3.872   1.056   2.491 -1.1683 -0.4396 -0.1723
 2951TIP3   OH2 8816   6.887   4.823   4.680 -0.5147 -0.1618  0.0808
 2951TIP3    H1 8817   6.890   4.799   4.587 -0.8249  0.6622 -0.1499
 2951TIP3    H2 8818   6.797   4.802   4.707 -0.3342 -0.6959  0.2852
 2952TIP3   OH2 8819   4.139   0.837   1.127  0.3241  0.4298 -0.2949
 2952TIP3    H1 8820   4.192   0.885   1.064  0.0753  0.2152 -0.6721
 2952TIP3    H2 8821   4.182   0.851   1.211 -0.1136  1.8690 -0.2900
 2953TIP3   OH2 8822   2.408   5.618   2.048 -0.2989 -0.3620  0.3437
 2953TIP3    H1 8823   2.470   5.687   2.069  0.7718 -0.7357 -1.3631
 2953TIP3    H2 8824   2.451   5.568   1.978 -2.3669 -0.8430 -0.6739
 2954TIP3   OH2 8825   2.733   6.458   1.783  0.5349  0.1477  0.1425
 2954TIP3    H1 8826   2.778   6.401   1.721 -0.1990  1.4177 -1.6190
 2954TIP3    H2 8827   2.644   6.424   1.786  0.7222 -0.3143  1.0634
 2955TIP3   OH2 8828   0.558   4.546   4.496  0.2115 -0.2102  0.5714
 2955TIP3    H1 8829   0.555   4.632   4.455 -1.4189  0.2959  1.6352
 2955TIP3    H2 8830   0.561   4.564   4.590 -0.2655 -1.2842  0.8134
 2956TIP3   OH2 8831   5.044   3.450   5.873 -0.2214  0.3423 -0.4324
 2956TIP3    H1 8832   5.042   3.546   5.874 -1.7076  0.3409  1.0286
 2956TIP3    H2 8833   4.952   3.424   5.871  0.1735 -1.1025 -2.3073
 2957TIP3   OH2 8834   4.129   2.380   1.208  0.1594 -0.1857 -0.0671
 2957TIP3    H1 8835   4.183   2.358   1.284  1.0576  0.3445 -0.5337
 2957TIP3    H2 8836   4.119   2.475   1.212  0.1639 -0.1597 -0.5751
 2958TIP3   OH2 8837   6.505   2.831   2.784  0.2190 -0.3143 -0.6532
 2958TIP3    H1 8838   6.539   2.748   2.816  0.6119  0.0365 -0.1410
 2958TIP3    H2 8839   6.418   2.811   2.751 -0.9510 -0.3672  2.2606
 2959TIP3   OH2 8840   4.181   5.328   2.286  0.2192 -0.4446 -0.3958
 2959TIP3    H1 8841   4.150   5.292   2.203 -2.7801  0.7722  0.0480
 2959TIP3    H2 8842   4.163   5.422   2.280  1.7884 -0.0131  0.9090
 2960TIP3   OH2 8843   1.855   4.147   0.935  0.6875 -0.0227  0.2352
 2960TIP3    H1 8844   1.816   4.210   0.874  0.4023  0.0014  0.4415
 2960TIP3    H2 8845   1.880   4.198   1.011  0.4691 -0.1540  0.3973
 2961TIP3   OH2 8846   4.872   3.949   4.890  0.0447  0.1266  0.4053
 2961TIP3    H1 8847   4.935   4.021   4.892 -0.1414  0.3337 -0.4682
 2961TIP3    H2 8848   4.792   3.985   4.929  0.3329 -0.0035  1.1208
 2962TIP3   OH2 8849   6.854   3.886   5.376  0.4981  0.9353  0.1413
 2962TIP3    H1 8850   6.784   3.881   5.312  0.2167  0.8822  0.4508
 2962TIP3    H2 8851   6.862   3.979   5.396 -1.1456  0.7589  1.9080
 2963TIP3   OH2 8852   5.163   0.136   5.103  0.2409 -0.1913 -0.3015
 2963TIP3    H1 8853   5.129   0.118   5.191  1.0183 -0.0300  0.0435
 2963TIP3    H2 8854   5.094   0.106   5.044 -0.0311 -0.8773  0.3434
 2964TIP3   OH2 8855   3.067   1.448   2.250  0.0289  0.4087  0.8197
 2964TIP3    H1 8856   3.135   1.388   2.222  1.5844  3.0446 -1.6025
 2964TIP3    H2 8857   3.053   1.428   2.342  1.2806 -2.7652  0.4154
 2965TIP3   OH2 8858   0.466   5.533   2.159  0.4140 -0.5731  0.3526
 2965TIP3    H1 8859   0.534   5.574   2.211  1.2046  1.4269 -2.0400
 2965TIP3    H2 8860   0.384   5.559   2.201  0.9815  1.9222  0.0718
 2966TIP3   OH2 8861   3.677   2.204   3.384  0.4860 -0.3166 -0.5518
 2966TIP3    H1 8862   3.719   2.289   3.395  1.6061 -0.9467  0.2153
 2966TIP3    H2 8863   3.750   2.143   3.370 -0.0282 -1.6152  1.8746
 2967TIP3   OH2 8864   1.699   1.435   0.479 -0.1399  0.2191  0.1611
 2967TIP3    H1 8865   1.703   1.489   0.400  0.4711  0.4394  0.3367
 2967TIP3    H2 8866   1.722   1.347   0.450 -1.0861  0.0609 -0.1174
 2968TIP3   OH2 8867   4.820   0.687   5.171  0.7231  0.9018 -0.2017
 2968TIP3    H1 8868   4.732   0.718   5.149  0.1120 -0.2075  0.5747
 2968TIP3    H2 8869   4.826   0.697   5.266  1.1973  0.3926 -0.1732
 2969TIP3   OH2 8870   1.798   0.779   2.269 -0.5717 -0.2170 -0.1087
 2969TIP3    H1 8871   1.858   0.852   2.284  0.3602 -0.9177 -0.2900
 2969TIP3    H2 8872   1.778   0.745   2.356 -1.0781  0.2942 -0.0179
 2970TIP3   OH2 8873   1.712   6.498   3.373  0.1119 -0.0051 -0.5234
 2970TIP3    H1 8874   1.788   6.442   3.387 -0.1553  0.0003  1.2440
 2970TIP3    H2 8875   1.637   6.443   3.398 -0.4237  0.1877 -1.6508
 2971TIP3   OH2 8876   5.417   6.392   0.157 -0.2492 -0.7322 -0.6555
 2971TIP3    H1 8877   5.410   6.484   0.185  3.2102 -0.9294  1.6283
 2971TIP3    H2 8878   5.452   6.396   0.068  1.3956  0.3032 -0.0178
 2972TIP3   OH2 8879   4.353   4.247   2.473  0.1971 -0.1358  0.4754
 2972TIP3    H1 8880   4.330   4.336   2.447 -0.5444 -0.1652  0.9958
 2972TIP3    H2 8881   4.331   4.193   2.397  1.0522  0.1647 -0.0040
 2973TIP3   OH2 8882   0.078   2.546   1.043 -0.1687 -0.3851  0.0644
 2973TIP3    H1 8883  -0.017   2.535   1.049 -0.4390  1.8464  0.7346
 2973TIP3    H2 8884   0.101   2.594   1.123  1.2678  0.5942 -0.9042
 2974TIP3   OH2 8885   5.926   2.396   0.250  0.6101 -0.0980  0.0428
 2974TIP3    H1 8886   5.980   2.352   0.185  0.1450  0.4549 -0.7267
 2974TIP3    H2 8887   5.884   2.468   0.203  0.9706  0.8771  1.1613
 2975TIP3   OH2 8888   1.104   6.025   2.597 -0.6037 -0.5527  0.0008
 2975TIP3    H1 8889   1.074   6.111   2.570 -0.0578 -0.4822 -0.4019
 2975TIP3    H2 8890   1.190   6.015   2.556 -0.7095 -1.3344 -0.0594
 2976TIP3   OH2 8891   1.679   1.432   2.322 -0.5659  0.3724 -0.6306
 2976TIP3    H1 8892   1.693   1.396   2.410 -2.5209  0.2735 -0.3093
 2976TIP3    H2 8893   1.766   1.435   2.283  0.3947  0.6634  1.4027
 2977TIP3   OH2 8894   1.301   2.893   0.827  0.3290 -0.1463 -0.1603
 2977TIP3    H1 8895   1.292   2.798   0.842  1.0935 -0.1533  0.2930
 2977TIP3    H2 8896   1.302   2.902   0.732  0.5554 -0.6296 -0.2076
 2978TIP3   OH2 8897   6.650   3.376   1.034  0.4339  0.0062 -0.0040
 2978TIP3    H1 8898   6.597   3.367   1.114  0.9973 -1.8192  0.2040
 2978TIP3    H2 8899   6.634   3.296   0.985  2.8671 -0.5511 -0.0089
 2979TIP3   OH2 8900   3.561   2.103   0.168  0.1322  0.0923  0.4550
 2979TIP3    H1 8901   3.580   2.191   0.201  0.9714 -0.7102  2.2922
 2979TIP3    H2 8902   3.489   2.115   0.107  0.3025  2.0687  0.5725
 2980TIP3   OH2 8903   5.051   6.639   5.582  0.2460 -0.4128 -0.0047
 2980TIP3    H1 8904   5.077   6.560   5.535  0.7506 -0.8024  0.9044
 2980TIP3    H2 8905   4.961   6.620   5.610  0.2764 -0.5638 -0.0044
 2981TIP3   OH2 8906   2.477   3.239   1.009 -0.3201  0.1058  0.1727
 2981TIP3    H1 8907   2.539   3.189   0.956 -0.4787  1.2791 -1.1959
 2981TIP3    H2 8908   2.432   3.296   0.946 -2.5737 -0.4584  1.1659
 2982TIP3   OH2 8909   4.484   3.096   4.654  0.6606 -0.1936  0.3961
 2982TIP3    H1 8910   4.472   3.003   4.671 -2.5362 -0.6818 -3.0179
 2982TIP3    H2 8911   4.549   3.099   4.584  0.6664  0.1050  0.4137
 2983TIP3   OH2 8912   3.379   5.655   2.693 -0.1805  0.4692  0.1094
 2983TIP3    H1 8913   3.318   5.647   2.767 -1.3722  0.5945 -0.8397
 2983TIP3    H2 8914   3.330   5.623   2.618  1.1037  0.1296 -0.5966
 2984TIP3   OH2 8915   2.146   2.032   1.891 -0.1740  0.1803 -0.2582
 2984TIP3    H1 8916   2.141   2.126   1.872  0.5198  0.0466 -1.1534
 2984TIP3    H2 8917   2.067   1.995   1.851 -0.0120  0.2642 -0.6572
 2985TIP3   OH2 8918   0.871   0.184   1.310  0.4108  0.3786  0.5109
 2985TIP3    H1 8919   0.780   0.160   1.291  0.6044  0.9481 -1.2902
 2985TIP3    H2 8920   0.865   0.239   1.388 -0.6198 -0.8147  1.3013
 2986TIP3   OH2 8921   6.698   1.272   1.996 -0.2952  0.0942 -0.4207
 2986TIP3    H1 8922   6.757   1.347   1.991 -0.2977  0.0400 -1.5768
 2986TIP3    H2 8923   6.619   1.301   1.950  0.1012 -0.9550 -1.8269
 2987TIP3   OH2 8924   5.862   2.581   5.193  0.4175  0.5896 -0.3077
 2987TIP3    H1 8925   5.898   2.542   5.114  0.6304 -0.4835  0.3080
 2987TIP3    H2 8926   5.808   2.654   5.161  0.3319  0.0438 -1.4506
 2988TIP3   OH2 8927   3.369   5.813   0.314 -0.2887 -0.1893  0.1190
 2988TIP3    H1 8928   3.281   5.817   0.350 -0.4593 -1.2725 -0.1343
 2988TIP3    H2 8929   3.357   5.777   0.226  0.1615  1.9803 -0.8932
 2989TIP3   OH2 8930   2.226   4.546   1.134 -0.2900  0.4419 -0.3490
 2989TIP3    H1 8931   2.285   4.618   1.156 -1.5903  0.9727  1.7199
 2989TIP3    H2 8932   2.263   4.508   1.054  3.4070  0.1120  1.2921
 2990TIP3   OH2 8933   1.939   3.396   5.652 -0.3200  0.0166 -0.3006
 2990TIP3    H1 8934   2.020   3.437   5.622 -0.1458  0.2207  0.4168
 2990TIP3    H2 8935   1.879   3.470   5.664 -0.0992  0.0430  0.7100
 2991TIP3   OH2 8936   6.178   2.092   4.778  0.1760 -0.4136 -0.3515
 2991TIP3    H1 8937   6.127   2.139   4.712  0.3057 -0.7654 -0.7053
 2991TIP3    H2 8938   6.125   2.098   4.858 -0.6640 -1.1950 -0.8346
 2992TIP3   OH2 8939   1.967   3.315   1.118 -0.0299 -0.0204  0.7959
 2992TIP3    H1 8940   2.014   3.261   1.055  0.3783 -0.9596  1.8498
 2992TIP3    H2 8941   1.996   3.282   1.203  0.3382  1.9865  1.5041
 2993TIP3   OH2 8942   4.265   2.786   4.263  0.1428 -0.0778  0.1494
 2993TIP3    H1 8943   4.192   2.846   4.254  0.5356  0.5856  1.1534
 2993TIP3    H2 8944   4.326   2.831   4.322  0.3047 -1.5913  1.1904
 2994TIP3   OH2 8945   0.873   5.473   1.765  0.1468 -0.3730 -0.1959
 2994TIP3    H1 8946   0.936   5.413   1.724  0.7796  0.6858 -0.8042
 2994TIP3    H2 8947   0.859   5.541   1.700  1.7082  1.7607  1.5247
 2995TIP3   OH2 8948   0.405   3.689   3.851  0.1852  0.4617  0.3386
 2995TIP3    H1 8949   0.470   3.689   3.921  1.6968  0.1107 -1.0227
 2995TIP3    H2 8950   0.364   3.602   3.857  0.9748  0.0677  0.2055
 2996TIP3   OH2 8951   6.865   2.128   0.146 -0.2609  0.1361  0.5334
 2996TIP3    H1 8952   6.851   2.034   0.139 -0.3898  0.2424 -0.8165
 2996TIP3    H2 8953   6.948   2.143   0.101 -0.4413  0.7288  0.3973
 2997TIP3   OH2 8954   3.686   4.623   4.333 -0.2768  0.8149 -0.6783
 2997TIP3    H1 8955   3.694   4.679   4.410  0.4321  0.7824 -0.7210
 2997TIP3    H2 8956   3.670   4.536   4.369 -0.6043  0.9103 -0.5892
 2998TIP3   OH2 8957   7.177   1.565   1.382 -0.3709  0.2694  0.0464
 2998TIP3    H1 8958   7.105   1.610   1.427 -1.5219 -1.5625  0.1545
 2998TIP3    H2 8959   7.251   1.573   1.441  0.0336  3.4576 -0.6944
 2999TIP3   OH2 8960   4.469   4.934   0.491  0.4855 -0.0130  0.6304
 2999TIP3    H1 8961   4.457   4.893   0.405 -0.4541  0.6459  0.4383
 2999TIP3    H2 8962   4.563   4.952   0.495  0.2675  1.8908 -1.1728
 3000TIP3   OH2 8963   5.291   3.969   0.327 -0.3570  0.3185 -0.5181
 3000TIP3    H1 8964   5.287   4.035   0.257 -1.6548  0.1396 -0.6315
 3000TIP3    H2 8965   5.235   4.004   0.396  1.9661  1.1508  1.0670
 3001TIP3   OH2 8966   6.543   0.528   0.121 -0.4973  0.0872  0.2094
 3001TIP3    H1 8967   6.564   0.573   0.039  0.1893 -1.0221 -0.2502
 3001TIP3    H2 8968   6.590   0.444   0.115 -2.2031 -0.9658  0.7580
 3002TIP3   OH2 8969   5.447   4.321   4.227  0.0637 -0.2031  0.4556
 3002TIP3    H1 8970   5.471   4.387   4.161 -1.2798 -0.9418 -0.8273
 3002TIP3    H2 8971   5.514   4.254   4.219  0.1737 -0.0633  0.1695
 3003TIP3   OH2 8972   1.239   5.800   2.179  0.0332 -0.4872  0.0459
 3003TIP3    H1 8973   1.294   5.782   2.103 -0.0980  0.4178 -0.2819
 3003TIP3    H2 8974   1.160   5.840   2.142  0.5132  1.1699  0.7294
 3004TIP3   OH2 8975   5.354   2.529   2.134 -0.6404 -0.3843  0.4293
 3004TIP3    H1 8976   5.447   2.506   2.127 -0.8724 -0.9174 -1.3807
 3004TIP3    H2 8977   5.344   2.560   2.224  1.5895  1.0421  0.2664
 3005TIP3   OH2 8978   6.392   3.816   0.622 -0.0148  0.3032  0.1747
 3005TIP3    H1 8979   6.446   3.758   0.675  1.1147  1.5522  0.4408
 3005TIP3    H2 8980   6.336   3.862   0.685 -1.2166 -0.7400 -0.0708
 3006TIP3   OH2 8981   1.749   6.316   4.938 -0.2151  0.4002 -0.3262
 3006TIP3    H1 8982   1.687   6.265   4.991  1.0159  1.1697  1.9930
 3006TIP3    H2 8983   1.812   6.251   4.908  0.4600  0.2603  1.2907
 3007TIP3   OH2 8984   1.487   5.643   4.241  0.6389 -0.0750  0.2249
 3007TIP3    H1 8985   1.454   5.657   4.329  0.2428  1.1900 -0.0924
 3007TIP3    H2 8986   1.560   5.582   4.251  2.6112  2.3537  1.8610
 3008TIP3   OH2 8987   4.973   2.741   1.454 -0.2355 -0.2384  0.6337
 3008TIP3    H1 8988   5.039   2.811   1.449  1.1260 -1.3287  2.2017
 3008TIP3    H2 8989   4.963   2.710   1.364  1.8852 -0.4485  0.4292
 3009TIP3   OH2 8990   6.500   2.415   4.800 -0.2016  0.3020  0.0829
 3009TIP3    H1 8991   6.578   2.470   4.812  1.1079 -1.2201 -1.1782
 3009TIP3    H2 8992   6.438   2.472   4.754  1.1541  0.7428 -1.2700
 3010TIP3   OH2 8993   5.581   3.933   2.953 -0.6340 -0.6175 -0.4410
 3010TIP3    H1 8994   5.661   3.901   2.993 -0.4374  1.9005  1.4042
 3010TIP3    H2 8995   5.610   4.001   2.892 -1.3050  0.2519  0.1775
 3011TIP3   OH2 8996   0.234   6.628   1.398 -0.0997  0.2380 -0.4800
 3011TIP3    H1 8997   0.170   6.687   1.359 -0.3640 -0.3686 -0.9798
 3011TIP3    H2 8998   0.255   6.668   1.483  0.6196  1.6759 -1.2934
 3012TIP3   OH2 8999   1.340   1.573   5.454 -0.5156 -0.5248 -0.0932
 3012TIP3    H1 9000   1.329   1.535   5.541  0.4627  1.1940  0.8449
 3012TIP3    H2 9001   1.299   1.660   5.460  0.6682  0.1298 -0.9274
 3013TIP3   OH2 9002   5.019   2.751   2.352  0.5871  0.3781 -0.2505
 3013TIP3    H1 9003   4.940   2.748   2.298  0.8124  1.3411 -0.6651
 3013TIP3    H2 9004   5.091   2.744   2.290  0.8330 -0.0218  0.0788
 3014TIP3   OH2 9005   2.477   3.856   2.025  0.1068  0.3365 -0.8367
 3014TIP3    H1 9006   2.478   3.861   2.121  0.6889 -1.3745 -0.7236
 3014TIP3    H2 9007   2.567   3.877   1.999  0.2877 -0.5269 -0.9158
 3015TIP3   OH2 9008   0.734   4.451   2.745  0.1484  0.1650 -0.1270
 3015TIP3    H1 9009   0.649   4.494   2.757 -0.1668 -0.1887 -0.9761
 3015TIP3    H2 9010   0.782   4.510   2.687  0.3865  0.2317  0.1359
 3016TIP3   OH2 9011   6.632   1.893   4.978  0.1203 -0.4373 -0.3923
 3016TIP3    H1 9012   6.668   1.811   4.946  0.3141 -0.4806 -0.0672
 3016TIP3    H2 9013   6.537   1.884   4.966  0.2165 -0.2855 -1.3325
 3017TIP3   OH2 9014   5.038   5.066   0.825 -0.5409 -0.3121 -0.0458
 3017TIP3    H1 9015   5.067   5.139   0.771 -0.7545 -0.7049 -0.7082
 3017TIP3    H2 9016   5.000   5.004   0.763  0.5247 -1.4251  0.3695
 3018TIP3   OH2 9017   0.642   2.243   3.417 -0.4851 -0.5320  0.8636
 3018TIP3    H1 9018   0.640   2.179   3.346 -0.6476  0.2838  0.1161
 3018TIP3    H2 9019   0.553   2.280   3.418  0.0403  0.7918  0.2452
 3019TIP3   OH2 9020   6.292   1.706   2.379 -0.0976 -0.0380  0.3047
 3019TIP3    H1 9021   6.323   1.695   2.289  0.3459  0.0740  0.4386
 3019TIP3    H2 9022   6.244   1.626   2.398 -2.6574  1.0726 -0.9893
 3020TIP3   OH2 9023   6.853   2.598   2.337 -0.2953  0.3103 -0.3311
 3020TIP3    H1 9024   6.896   2.552   2.409  0.4248  0.0958 -0.8800
 3020TIP3    H2 9025   6.897   2.565   2.258 -1.2445  0.3347 -0.8898
 3021TIP3   OH2 9026   3.908   4.873   0.718 -0.3164 -0.1588  0.3642
 3021TIP3    H1 9027   3.937   4.959   0.749  0.4513  0.3533 -1.6221
 3021TIP3    H2 9028   3.813   4.883   0.706 -0.4439 -0.0234  1.3696
 3022TIP3   OH2 9029   6.461   2.147   4.752  0.1006  0.1569  0.4993
 3022TIP3    H1 9030   6.379   2.123   4.795 -1.3818  1.1796 -1.5302
 3022TIP3    H2 9031   6.477   2.237   4.780 -0.1952  0.3980 -0.0846
 3023TIP3   OH2 9032   0.648   0.570   3.739 -0.7186 -0.6944 -0.4155
 3023TIP3    H1 9033   0.741   0.567   3.762 -0.2628  1.3872 -1.7136
 3023TIP3    H2 9034   0.606   0.611   3.814 -0.3669 -0.3794 -0.3854
 3024TIP3   OH2 9035   4.303   4.641   1.763 -0.2996  0.4239 -0.3017
 3024TIP3    H1 9036   4.377   4.601   1.808 -0.2540  0.0421 -0.7158
 3024TIP3    H2 9037   4.226   4.600   1.803 -0.3579  1.7897  1.0802
 3025TIP3   OH2 9038   0.994   3.140   4.070  0.7174 -0.4291  0.5024
 3025TIP3    H1 9039   0.961   3.092   3.995 -0.6953 -0.2213  0.9653
 3025TIP3    H2 9040   0.980   3.081   4.144 -0.9207  0.6072  1.0567
 3026TIP3   OH2 9041   1.027   5.293   2.076 -0.1002  0.4524 -0.1814
 3026TIP3    H1 9042   1.069   5.373   2.044 -0.9390  0.3748 -1.5643
 3026TIP3    H2 9043   1.035   5.298   2.171  2.4932  0.7182 -0.3521
 3027TIP3   OH2 9044   5.993   1.084   1.973  0.1530  0.1520 -0.1924
 3027TIP3    H1 9045   5.938   1.160   1.993  1.1000  0.9684 -0.6445
 3027TIP3    H2 9046   6.082   1.114   1.987  0.5369 -0.8818 -0.3708
 3028TIP3   OH2 9047   1.526   4.416   1.074 -0.0610  0.0210  0.0670
 3028TIP3    H1 9048   1.518   4.424   1.169  2.2257 -3.3161  0.6847
 3028TIP3    H2 9049   1.562   4.329   1.059  0.5771  0.7500 -3.8488
 3029TIP3   OH2 9050   3.138   0.374   0.914  0.9903  0.5781 -0.5186
 3029TIP3    H1 9051   3.170   0.396   1.002 -0.1038  0.6039 -0.1099
 3029TIP3    H2 9052   3.117   0.281   0.919  1.6066  0.4033 -0.9870
 3030TIP3   OH2 9053   4.299   0.191   0.555 -0.3305  0.0144 -0.4404
 3030TIP3    H1 9054   4.248   0.214   0.633  0.9207  1.1698  0.0705
 3030TIP3    H2 9055   4.355   0.118   0.584  0.8874  1.1213  0.0927
 3031TIP3   OH2 9056   4.485   2.908   4.400 -0.3948  0.8263  0.8556
 3031TIP3    H1 9057   4.580   2.915   4.401  0.0646 -3.1489  0.8697
 3031TIP3    H2 9058   4.463   2.867   4.483 -1.6186 -1.6586 -0.5648
 3032TIP3   OH2 9059   2.404   1.931   2.538 -0.0065  0.5237 -0.0065
 3032TIP3    H1 9060   2.399   2.021   2.570 -0.5046  0.8164 -0.8688
 3032TIP3    H2 9061   2.312   1.905   2.525  0.0174 -0.7543  1.9286
 3033TIP3   OH2 9062   2.973   5.733   1.025 -0.4252 -0.9538  0.0468
 3033TIP3    H1 9063   2.913   5.806   1.011  1.2905  0.4090 -0.6869
 3033TIP3    H2 9064   2.923   5.670   1.076 -2.1676  0.4804  0.2202
 3034TIP3   OH2 9065   5.298   4.224   2.707 -0.4162 -0.3624  0.3872
 3034TIP3    H1 9066   5.228   4.207   2.644  1.3140 -3.5189 -0.9221
 3034TIP3    H2 9067   5.254   4.266   2.781 -3.6491 -1.8932 -0.4861
 3035TIP3   OH2 9068   2.905   1.847   3.586  0.5485  0.3041  0.5593
 3035TIP3    H1 9069   2.935   1.929   3.626  2.0772 -0.6459  1.4648
 3035TIP3    H2 9070   2.877   1.872   3.498  2.3216  1.5950  0.3076
 3036TIP3   OH2 9071   0.436   3.332   0.910  0.6300 -0.0061 -0.0471
 3036TIP3    H1 9072   0.497   3.381   0.966  0.1010  1.1315 -0.4205
 3036TIP3    H2 9073   0.462   3.241   0.919  0.9477  0.2250  1.5518
 3037TIP3   OH2 9074   2.105   1.183   1.673 -0.0158 -0.2833 -0.1991
 3037TIP3    H1 9075   2.169   1.220   1.612  1.9065  1.4074  2.6292
 3037TIP3    H2 9076   2.120   1.088   1.668  3.1673  0.0627  0.6791
 3038TIP3   OH2 9077   6.922   2.169   1.923  0.1287  0.1638 -0.8944
 3038TIP3    H1 9078   6.910   2.214   2.007  1.1371 -0.5844 -0.3371
 3038TIP3    H2 9079   6.965   2.233   1.867 -0.9153  0.8082 -0.9941
 3039TIP3   OH2 9080   1.799   1.761   0.701  0.2993  0.1547 -0.0445
 3039TIP3    H1 9081   1.738   1.689   0.717  1.5160 -1.0984 -0.8083
 3039TIP3    H2 9082   1.882   1.732   0.740  0.4643  1.7999  0.9462
 3040TIP3   OH2 9083   0.326   0.401   5.423 -0.2491 -0.8197  0.0957
 3040TIP3    H1 9084   0.329   0.310   5.453  0.5559 -0.7803  0.1764
 3040TIP3    H2 9085   0.251   0.405   5.363 -0.4907 -1.4514  0.3492
 3041TIP3   OH2 9086   4.101   1.481   4.260  0.3227 -0.0240 -0.0988
 3041TIP3    H1 9087   4.159   1.415   4.223 -2.1317 -1.6322 -1.4124
 3041TIP3    H2 9088   4.016   1.463   4.219 -1.1282  2.1323  1.7145
 3042TIP3   OH2 9089   6.465   6.038   1.932  0.3215  1.0581  0.1908
 3042TIP3    H1 9090   6.374   6.040   1.903  0.1687 -1.5841  0.2878
 3042TIP3    H2 9091   6.459   6.026   2.027  0.7347 -0.1350  0.0808
 3043TIP3   OH2 9092   3.624   6.264   0.033 -0.2031  0.2180 -0.1073
 3043TIP3    H1 9093   3.535   6.287   0.060 -0.2365 -0.5787  0.5013
 3043TIP3    H2 9094   3.662   6.220   0.109  0.6108  0.2733 -0.4641
 3044TIP3   OH2 9095   4.806   2.964   1.379  0.4981  0.1689 -0.3751
 3044TIP3    H1 9096   4.893   3.001   1.360  0.5072  0.1525 -0.3647
 3044TIP3    H2 9097   4.822   2.899   1.447  0.4456  0.3201 -0.2181
 3045TIP3   OH2 9098   4.440   3.982   0.368  0.0228 -0.3752 -0.0078
 3045TIP3    H1 9099   4.431   3.981   0.463  0.0790 -1.3878 -0.0059
 3045TIP3    H2 9100   4.377   3.918   0.337  1.0496 -1.1456 -0.5488
 3046TIP3   OH2 9101   0.562   2.741   0.878 -0.2516  0.4847 -0.3167
 3046TIP3    H1 9102   0.476   2.783   0.884 -0.6622 -0.3336 -0.3289
 3046TIP3    H2 9103   0.584   2.719   0.969 -1.0798 -1.2816 -0.4979
 3047TIP3   OH2 9104   3.869   2.414   1.717  0.4004  0.0732  0.5218
 3047TIP3    H1 9105   3.789   2.467   1.711  1.2772  1.3177 -0.8169
 3047TIP3    H2 9106   3.847   2.333   1.670  0.0554  0.6045 -0.2653
 3048TIP3   OH2 9107   6.650   3.737   5.540 -0.1949 -0.4893  0.1218
 3048TIP3    H1 9108   6.690   3.822   5.558 -0.1963 -0.3576 -0.4823
 3048TIP3    H2 9109   6.616   3.708   5.625 -3.1597  1.6100 -0.1982
 3049TIP3   OH2 9110   4.696   5.658   2.819 -0.1915  0.7296  0.5451
 3049TIP3    H1 9111   4.788   5.643   2.841 -0.3841  0.2737  1.0492
 3049TIP3    H2 9112   4.661   5.571   2.801 -0.9276  0.7091  1.9616
 3050TIP3   OH2 9113   1.487   5.451   5.123 -0.1157 -0.0003  0.0508
 3050TIP3    H1 9114   1.397   5.419   5.116 -0.3798  0.2386  1.9017
 3050TIP3    H2 9115   1.481   5.544   5.102 -0.0322 -0.2692 -1.2552
 3051TIP3   OH2 9116   1.180   0.305   2.870 -0.7709  0.0575 -0.0545
 3051TIP3    H1 9117   1.175   0.248   2.794 -2.7981  1.2927 -0.9181
 3051TIP3    H2 9118   1.138   0.387   2.843  0.6604  1.4469  1.6166
 3052TIP3   OH2 9119   1.789   0.708   3.143  0.0213  0.2535 -0.3081
 3052TIP3    H1 9120   1.711   0.655   3.124 -0.1901  0.2706  0.4978
 3052TIP3    H2 9121   1.815   0.681   3.231 -0.0267  1.4186  0.0750
 3053TIP3   OH2 9122   4.228   4.035   3.400  0.6158  0.2289  0.1277
 3053TIP3    H1 9123   4.289   3.987   3.344  0.4246 -1.4193  1.2681
 3053TIP3    H2 9124   4.143   3.994   3.384  0.2185  0.9852  0.2459
 3054TIP3   OH2 9125   5.130   5.961   3.681  0.1135 -0.2773 -0.3638
 3054TIP3    H1 9126   5.104   5.870   3.692  1.5198 -0.8355 -1.3086
 3054TIP3    H2 9127   5.137   5.995   3.771 -0.3159 -1.1245  0.0025
 3055TIP3   OH2 9128   6.711   3.169   5.805 -0.3508  0.3959 -0.0614
 3055TIP3    H1 9129   6.746   3.205   5.723 -1.1862 -0.7459 -0.9471
 3055TIP3    H2 9130   6.639   3.228   5.827 -1.0816 -0.1139 -0.9794
 3056TIP3   OH2 9131   2.463   2.758   2.609  0.1639 -0.2653 -0.4090
 3056TIP3    H1 9132   2.470   2.741   2.703  0.7431  0.0890 -0.3835
 3056TIP3    H2 9133   2.517   2.836   2.595 -0.1577 -0.1446 -0.9878
 3057TIP3   OH2 9134   2.085   6.759   2.372 -0.0328  0.1640 -0.1100
 3057TIP3    H1 9135   2.108   6.791   2.459  2.5171  2.5437 -1.4951
 3057TIP3    H2 9136   2.043   6.675   2.387 -1.0125  1.1502  3.4635
 3058TIP3   OH2 9137   3.891   6.686   4.173  0.3650 -0.6757 -0.2997
 3058TIP3    H1 9138   3.896   6.603   4.219  2.2523 -0.5958 -0.2935
 3058TIP3    H2 9139   3.899   6.752   4.242  1.6098 -0.5390 -0.5574
 3059TIP3   OH2 9140   6.906   4.092   0.853  0.2107 -0.0630  0.3616
 3059TIP3    H1 9141   6.826   4.039   0.845 -0.0471  0.2333  0.9328
 3059TIP3    H2 9142   6.910   4.142   0.772 -0.0835 -0.2151  0.2503
 3060TIP3   OH2 9143   6.304   4.771   2.881  0.6847  0.4947  0.1694
 3060TIP3    H1 9144   6.265   4.826   2.813 -2.2684  3.0547  3.4899
 3060TIP3    H2 9145   6.368   4.828   2.924  0.3362  0.0333  1.3412
 3061TIP3   OH2 9146   0.791   4.626   2.553  0.1626  0.0342 -0.3292
 3061TIP3    H1 9147   0.706   4.663   2.528  0.0349  0.7536  1.0524
 3061TIP3    H2 9148   0.852   4.658   2.486 -0.6898 -0.7683 -1.5246
 3062TIP3   OH2 9149   5.838   3.869   5.534  0.3578 -0.3437  0.9481
 3062TIP3    H1 9150   5.849   3.964   5.532 -3.2687  0.2333  1.8807
 3062TIP3    H2 9151   5.907   3.838   5.594  1.4718  1.6861  0.7941
 3063TIP3   OH2 9152   1.227   1.306   1.507 -0.0316  0.1514  0.0140
 3063TIP3    H1 9153   1.226   1.239   1.575  1.4552  0.4195  0.3371
 3063TIP3    H2 9154   1.291   1.275   1.443 -2.0111 -0.5255 -1.7816
 3064TIP3   OH2 9155   3.627   5.376   5.741  0.1157 -0.0106  0.1315
 3064TIP3    H1 9156   3.616   5.289   5.703  1.5758 -0.3164  0.3347
 3064TIP3    H2 9157   3.698   5.365   5.805 -0.7173  0.9936  1.2689
 3065TIP3   OH2 9158   5.848   0.768   5.824 -0.3074 -0.1456  0.0197
 3065TIP3    H1 9159   5.923   0.753   5.767  0.2080 -0.8453  0.8526
 3065TIP3    H2 9160   5.773   0.738   5.773  0.2762 -1.9248  0.1490
 3066TIP3   OH2 9161   4.973   6.781   4.116 -0.3259 -0.2570 -0.7960
 3066TIP3    H1 9162   4.895   6.778   4.172 -0.2817  0.7119 -0.6600
 3066TIP3    H2 9163   4.941   6.751   4.031 -0.3369 -1.9728 -0.2160
 3067TIP3   OH2 9164   6.069   6.650   3.545  0.0731  0.2975  0.5264
 3067TIP3    H1 9165   6.042   6.742   3.542  1.1303  0.6016 -0.0582
 3067TIP3    H2 9166   6.162   6.652   3.568 -0.1311 -0.6800  1.5091
 3068TIP3   OH2 9167   6.732   1.136   3.076 -0.2887 -0.0848  0.4494
 3068TIP3    H1 9168   6.806   1.181   3.115  1.0238 -2.2719  0.6512
 3068TIP3    H2 9169   6.770   1.083   3.006 -1.9602  0.2393 -0.7756
 3069TIP3   OH2 9170   6.569   2.351   1.063  0.2423 -0.1341  0.0257
 3069TIP3    H1 9171   6.661   2.335   1.043  0.3584  0.0243  0.4342
 3069TIP3    H2 9172   6.567   2.370   1.157 -0.0594  0.9813 -0.1923
 3070TIP3   OH2 9173   6.351   0.097   2.737 -0.3751  0.5556 -0.2625
 3070TIP3    H1 9174   6.308   0.032   2.793 -0.1530 -0.3555 -1.1073
 3070TIP3    H2 9175   6.306   0.088   2.652  0.3736  0.7495 -0.6906
 3071TIP3   OH2 9176   1.100   1.295   0.069 -0.0294 -0.0396  0.3161
 3071TIP3    H1 9177   1.026   1.323   0.122  0.7497  2.4131  0.1921
 3071TIP3    H2 9178   1.125   1.210   0.106 -1.4720  0.1319  1.7878
 3072TIP3   OH2 9179   0.359   6.321   3.571  0.0630 -0.1530 -0.2584
 3072TIP3    H1 9180   0.319   6.251   3.520  0.9401  0.1625 -1.4199
 3072TIP3    H2 9181   0.308   6.399   3.547  0.0560 -0.1204 -0.1383
 3073TIP3   OH2 9182   2.763   0.152   0.642 -0.2527 -0.2576 -0.1358
 3073TIP3    H1 9183   2.703   0.150   0.567 -1.8846  0.1074  1.0985
 3073TIP3    H2 9184   2.837   0.205   0.612 -1.2859  0.6518 -1.1763
 3074TIP3   OH2 9185   6.017   5.924   0.586 -0.1410  0.1386  0.7274
 3074TIP3    H1 9186   6.091   5.937   0.527  0.7962 -0.5023  1.6995
 3074TIP3    H2 9187   6.027   5.991   0.653 -2.3242  2.1622 -0.8142
 3075TIP3   OH2 9188   1.403   3.674   0.311  0.0048  0.3868  0.1164
 3075TIP3    H1 9189   1.392   3.675   0.216 -1.1624 -0.3476  0.2234
 3075TIP3    H2 9190   1.320   3.708   0.345  0.0141 -0.3250  0.8798
 3076TIP3   OH2 9191   6.750   4.038   3.545  0.7290  0.0145 -0.3695
 3076TIP3    H1 9192   6.704   4.039   3.628  2.3461  0.4495  0.5774
 3076TIP3    H2 9193   6.710   4.108   3.493 -1.8819 -1.7821 -0.9342
 3077TIP3   OH2 9194   0.948   0.109   5.009  0.2681 -0.2964  0.4936
 3077TIP3    H1 9195   0.881   0.176   5.018  1.3196  0.8839 -0.1119
 3077TIP3    H2 9196   0.935   0.051   5.084 -1.8521 -0.5169  0.0030
 3078TIP3   OH2 9197   3.172   3.155   0.670  0.2057  0.2860 -0.0253
 3078TIP3    H1 9198   3.205   3.176   0.758 -0.0084  1.7148 -0.2562
 3078TIP3    H2 9199   3.106   3.087   0.685 -0.7301  1.3907  1.0869
 3079TIP3   OH2 9200   5.543   4.981   1.297 -0.0533  0.5661 -0.3050
 3079TIP3    H1 9201   5.507   5.070   1.291  0.5491  0.8320 -0.0234
 3079TIP3    H2 9202   5.621   4.983   1.243  0.4245  0.4479  0.3656
 3080TIP3   OH2 9203   6.716   0.029   1.652 -0.4074  1.0333 -0.1407
 3080TIP3    H1 9204   6.634   0.015   1.604 -0.2984 -0.5665  0.0991
 3080TIP3    H2 9205   6.758   0.103   1.607 -1.3460  0.9895 -1.1132
 3081TIP3   OH2 9206   7.203   3.376   2.168  0.4885  0.6425 -0.4775
 3081TIP3    H1 9207   7.126   3.419   2.129 -2.2975 -2.4992  1.1068
 3081TIP3    H2 9208   7.251   3.340   2.094 -2.4291 -1.6360 -1.4435
 3082TIP3   OH2 9209   6.447   2.949   2.522  0.8780  0.0021 -0.2755
 3082TIP3    H1 9210   6.454   2.969   2.616  1.4265 -1.1410 -0.0615
 3082TIP3    H2 9211   6.534   2.916   2.498  0.4002 -0.8096 -0.9254
 3083TIP3   OH2 9212   6.706   2.254   2.832  0.9063  0.3809 -0.0349
 3083TIP3    H1 9213   6.643   2.199   2.786 -0.0204  1.8554 -0.6136
 3083TIP3    H2 9214   6.752   2.301   2.763  3.1843 -1.1544  0.3405
 3084TIP3   OH2 9215   4.041   2.869   1.702 -0.1037 -0.0079 -0.0385
 3084TIP3    H1 9216   4.020   2.782   1.733  1.8797 -0.5208  0.0164
 3084TIP3    H2 9217   4.133   2.864   1.675 -0.5193  1.5066 -2.0379
 3085TIP3   OH2 9218   0.819   1.417   4.907 -0.1930 -1.0115  0.1860
 3085TIP3    H1 9219   0.886   1.365   4.951  1.3303  0.4529 -0.2985
 3085TIP3    H2 9220   0.742   1.410   4.964  0.9942 -1.0644  1.8694
 3086TIP3   OH2 9221   1.093   1.754   2.002 -0.6488 -0.0858 -0.1877
 3086TIP3    H1 9222   1.006   1.723   2.028 -1.2027  2.6934  1.5654
 3086TIP3    H2 9223   1.122   1.809   2.074  2.3683 -0.4392 -0.9999
 3087TIP3   OH2 9224   3.734   3.345   4.163 -0.0708 -0.0522  0.3187
 3087TIP3    H1 9225   3.790   3.375   4.235  1.0742  1.2209 -1.0200
 3087TIP3    H2 9226   3.791   3.288   4.112 -0.7432 -0.6103  0.1868
 3088TIP3   OH2 9227   1.399   4.249   4.554 -0.3678  0.8104 -0.1716
 3088TIP3    H1 9228   1.350   4.309   4.499 -0.2564  1.1289  0.0741
 3088TIP3    H2 9229   1.419   4.175   4.497  0.4081  1.4752 -0.7869
 3089TIP3   OH2 9230   5.834   3.411   4.325  0.2967  0.4656 -0.1738
 3089TIP3    H1 9231   5.868   3.346   4.263 -0.9102 -1.7028  1.3161
 3089TIP3    H2 9232   5.821   3.490   4.272  1.1082 -0.7104 -2.2393
 3090TIP3   OH2 9233   1.411   4.402   1.328  0.5650  0.3284 -0.0266
 3090TIP3    H1 9234   1.385   4.312   1.313 -0.9850  0.8922 -0.9964
 3090TIP3    H2 9235   1.349   4.435   1.392  1.1342  0.7071  0.3388
 3091TIP3   OH2 9236   2.649   2.539   1.530 -0.5254  0.1179 -0.5693
 3091TIP3    H1 9237   2.664   2.604   1.599 -0.8016 -1.0659  0.6465
 3091TIP3    H2 9238   2.718   2.474   1.544 -1.7022 -1.0882 -0.2048
 3092TIP3   OH2 9239   2.771   3.011   0.382 -0.1580  0.5958  0.5302
 3092TIP3    H1 9240   2.828   3.030   0.457  0.2695  1.0529  0.0925
 3092TIP3    H2 9241   2.692   3.061   0.399  0.5720  2.0414 -0.1159
 3093TIP3   OH2 9242   4.754   4.962   0.460  0.3325 -0.3106  0.3650
 3093TIP3    H1 9243   4.826   5.024   0.454  0.0687  0.0251  0.5871
 3093TIP3    H2 9244   4.796   4.877   0.472  0.6754  0.0149  1.5618
 3094TIP3   OH2 9245   3.529   3.363   2.170 -0.1507  0.6359 -0.5162
 3094TIP3    H1 9246   3.499   3.289   2.117  0.9727  0.1998 -0.5761
 3094TIP3    H2 9247   3.625   3.357   2.167  0.0200 -0.0394  2.3909
 3095TIP3   OH2 9248   1.331   0.058   5.792 -0.1976 -0.2716  0.7049
 3095TIP3    H1 9249   1.413   0.020   5.825  0.4663  1.1161  0.7257
 3095TIP3    H2 9250   1.271  -0.016   5.785  1.1930 -1.4029  0.2631
 3096TIP3   OH2 9251   6.329   3.973   4.035  0.6944 -0.2044 -0.1191
 3096TIP3    H1 9252   6.282   3.916   3.974  1.2002 -0.5140 -0.2288
 3096TIP3    H2 9253   6.322   4.060   3.997 -1.4029  0.0990  0.8290
 3097TIP3   OH2 9254   3.628   0.470   5.611 -0.5500  0.1733 -0.3003
 3097TIP3    H1 9255   3.713   0.453   5.653 -0.6938  0.8346  0.2647
 3097TIP3    H2 9256   3.588   0.383   5.603  0.0113 -0.1004 -0.2174
 3098TIP3   OH2 9257   5.190   2.016   4.227 -0.0884  0.7393  0.1263
 3098TIP3    H1 9258   5.178   1.996   4.134  0.1540  0.5854  0.1267
 3098TIP3    H2 9259   5.228   2.104   4.228  0.1380  0.6438  0.0679
 3099TIP3   OH2 9260   2.253   2.549   1.331 -0.4325 -0.0858 -0.5684
 3099TIP3    H1 9261   2.199   2.470   1.319 -0.4982 -0.3010  0.8976
 3099TIP3    H2 9262   2.215   2.613   1.271 -0.8880 -0.9296 -1.2061
 3100TIP3   OH2 9263   6.922   6.030   4.285  0.0870 -0.2800  0.3546
 3100TIP3    H1 9264   6.969   5.948   4.296  0.8498  0.0741 -0.2308
 3100TIP3    H2 9265   6.847   6.008   4.230  0.3519 -0.5597  0.1068
 3101TIP3   OH2 9266   2.656   4.526   0.091 -0.3401  0.0914 -0.2266
 3101TIP3    H1 9267   2.713   4.534   0.014 -0.5518 -1.8607 -0.6263
 3101TIP3    H2 9268   2.717   4.518   0.164  0.0908 -3.2722 -0.7707
 3102TIP3   OH2 9269   5.262   2.186   0.114 -0.2937  0.3287  0.3709
 3102TIP3    H1 9270   5.183   2.137   0.093  0.1083  0.7002 -2.3164
 3102TIP3    H2 9271   5.297   2.143   0.192 -1.5729 -1.7190 -0.1190
 3103TIP3   OH2 9272   0.022   4.616   0.852  0.2313  0.4304  0.3588
 3103TIP3    H1 9273  -0.037   4.543   0.832 -0.6259  1.4560 -1.0117
 3103TIP3    H2 9274   0.107   4.589   0.819 -0.3607  0.5541 -1.3416
 3104TIP3   OH2 9275   7.144   1.221   2.671 -0.4256  0.2617  0.2338
 3104TIP3    H1 9276   7.156   1.200   2.764 -0.9476 -0.3689  0.1693
 3104TIP3    H2 9277   7.096   1.145   2.636  1.5334 -0.4866 -0.9923
 3105TIP3   OH2 9278   3.389   4.883   3.316  0.4990 -0.1391  0.5770
 3105TIP3    H1 9279   3.336   4.866   3.395 -0.1058 -1.0152  0.0001
 3105TIP3    H2 9280   3.398   4.978   3.314  0.3532 -0.0865  1.5946
 3106TIP3   OH2 9281   0.677   5.514   5.030 -0.1786 -0.4634 -0.6421
 3106TIP3    H1 9282   0.627   5.588   5.062 -1.5878 -1.4660 -0.4405
 3106TIP3    H2 9283   0.657   5.509   4.936 -0.4470 -0.8488 -0.5685
 3107TIP3   OH2 9284   0.241   0.146   2.974  0.4263  0.1781  0.0307
 3107TIP3    H1 9285   0.237   0.063   3.021  0.4492  0.2312  0.1268
 3107TIP3    H2 9286   0.286   0.206   3.034 -0.6401  0.5841  0.4487
 3108TIP3   OH2 9287   5.719   4.888   5.703 -0.1270  0.1263 -0.0771
 3108TIP3    H1 9288   5.624   4.897   5.713 -0.0458  0.5806  0.3373
 3108TIP3    H2 9289   5.742   4.957   5.640 -0.1012 -0.1489 -0.3739
 3109TIP3   OH2 9290   5.757   2.903   1.228 -0.1052  0.6912 -0.3289
 3109TIP3    H1 9291   5.800   2.942   1.152  1.3781  1.4695  0.8606
 3109TIP3    H2 9292   5.684   2.963   1.247  1.2796  2.1671  0.5904
 3110TIP3   OH2 9293   3.223   4.008   1.742 -0.0496 -0.4695 -0.5515
 3110TIP3    H1 9294   3.285   4.010   1.815 -2.8177  0.7787  1.9683
 3110TIP3    H2 9295   3.255   4.075   1.682 -0.0481  1.7922  1.7855
 3111TIP3   OH2 9296   6.434   4.110   2.155  0.2868 -0.0599  0.0693
 3111TIP3    H1 9297   6.495   4.046   2.189  0.1475 -0.4877 -0.4704
 3111TIP3    H2 9298   6.347   4.070   2.166  0.0724  0.6324  1.0297
 3112TIP3   OH2 9299   1.541   2.850   4.323  0.1763  0.1135 -0.2583
 3112TIP3    H1 9300   1.546   2.911   4.250  0.5030  0.1735 -0.1873
 3112TIP3    H2 9301   1.613   2.789   4.307  0.3871  0.2600  0.1350
 3113TIP3   OH2 9302   3.063   2.340   2.472 -0.5372 -0.0932  0.4477
 3113TIP3    H1 9303   3.132   2.278   2.495 -0.6403 -0.8124 -1.0346
 3113TIP3    H2 9304   3.108   2.425   2.464  0.0916 -0.4635 -0.0158
 3114TIP3   OH2 9305   5.766   6.209   5.814  0.2284  0.5528  0.2801
 3114TIP3    H1 9306   5.796   6.263   5.741 -0.0519  0.5886  0.1895
 3114TIP3    H2 9307   5.687   6.254   5.845 -0.9351 -0.6456 -0.8118
 3115TIP3   OH2 9308   0.147   5.770   3.394  0.4595  0.4209 -0.2362
 3115TIP3    H1 9309   0.228   5.812   3.425 -0.2264  0.5442  1.5285
 3115TIP3    H2 9310   0.152   5.681   3.429  0.3292  0.0916 -1.0474
 3116TIP3   OH2 9311   6.875   0.795   0.875  0.7781  0.4554  0.1533
 3116TIP3    H1 9312   6.822   0.719   0.897 -1.1975  1.5150 -0.6817
 3116TIP3    H2 9313   6.908   0.827   0.959  0.0445 -0.1918  0.6978
 3117TIP3   OH2 9314   1.629   2.207   4.051  0.2330 -0.7882  0.2737
 3117TIP3    H1 9315   1.586   2.293   4.049 -0.7667 -1.2820  0.4242
 3117TIP3    H2 9316   1.702   2.216   3.988  1.5830  0.8960  1.9500
 3118TIP3   OH2 9317   1.674   4.722   1.654  0.1649 -0.1033  0.4138
 3118TIP3    H1 9318   1.617   4.710   1.579  0.3219 -1.0875  0.4401
 3118TIP3    H2 9319   1.630   4.677   1.726  0.6622 -0.3349  0.5812
 3119TIP3   OH2 9320   1.746   4.757   3.898 -0.0543  0.4137 -0.0036
 3119TIP3    H1 9321   1.784   4.838   3.931 -0.2222  0.4234  0.1678
 3119TIP3    H2 9322   1.653   4.764   3.919 -0.0804  0.2033 -0.0444
 3120TIP3   OH2 9323   3.723   5.645   0.608  0.4298  0.3768  0.0245
 3120TIP3    H1 9324   3.784   5.573   0.592  0.7643  0.5315  0.5985
 3120TIP3    H2 9325   3.645   5.621   0.558 -0.2716 -1.4229  1.8815
 3121TIP3   OH2 9326   6.890   2.641   5.050  0.1547  0.1333 -0.3555
 3121TIP3    H1 9327   6.868   2.560   5.096  0.8326 -1.0472 -2.0333
 3121TIP3    H2 9328   6.891   2.708   5.119 -1.9475 -0.9558  0.8235
 3122TIP3   OH2 9329   7.107   5.974   1.358 -0.1704 -0.3632 -0.0499
 3122TIP3    H1 9330   7.177   6.034   1.333 -1.8146  0.5739 -2.9203
 3122TIP3    H2 9331   7.152   5.900   1.399  2.0675  1.9893  2.1250
 3123TIP3   OH2 9332   0.053   1.257   4.071 -0.5002  0.5032 -0.5616
 3123TIP3    H1 9333   0.040   1.309   4.150  0.0122  0.4813 -0.4600
 3123TIP3    H2 9334   0.145   1.271   4.048 -0.8060  1.0769 -1.5476
 3124TIP3   OH2 9335   0.566   5.422   3.878  0.0125  0.1377 -0.2041
 3124TIP3    H1 9336   0.575   5.463   3.964 -0.4865  0.7565 -0.4398
 3124TIP3    H2 9337   0.472   5.412   3.866  0.0874 -2.7993  0.6283
 3125TIP3   OH2 9338   3.007   1.026   1.709 -0.6962 -0.5411  0.1918
 3125TIP3    H1 9339   2.989   0.946   1.661 -0.8288 -1.0252  1.0295
 3125TIP3    H2 9340   2.962   1.015   1.793 -0.4675  0.2763  0.4378
 3126TIP3   OH2 9341   6.508   2.498   0.708  0.0743  0.4522 -0.3399
 3126TIP3    H1 9342   6.543   2.532   0.790  0.8740  0.0418 -0.4915
 3126TIP3    H2 9343   6.510   2.403   0.719  1.5057  0.3209 -1.3121
 3127TIP3   OH2 9344   4.292   4.298   4.920 -0.1129 -0.4517  0.0223
 3127TIP3    H1 9345   4.318   4.387   4.944 -1.0876 -0.6774  2.1874
 3127TIP3    H2 9346   4.196   4.300   4.919 -0.2496 -0.5523 -3.9920
 3128TIP3   OH2 9347   0.358   2.724   2.449  0.3399  0.6386 -0.9235
 3128TIP3    H1 9348   0.449   2.713   2.422  0.7103  1.4564 -0.0782
 3128TIP3    H2 9349   0.364   2.753   2.540 -0.7671  0.7523 -0.8795
 3129TIP3   OH2 9350   5.271   1.088   3.393 -0.0044  0.4561  0.2518
 3129TIP3    H1 9351   5.346   1.029   3.385  1.6155  2.5799 -1.9502
 3129TIP3    H2 9352   5.205   1.051   3.334  0.1021 -0.3638  0.6429
 3130TIP3   OH2 9353   2.108   5.515   0.605 -0.7970  0.2926  0.3170
 3130TIP3    H1 9354   2.077   5.605   0.619 -1.8249 -0.1846  1.2533
 3130TIP3    H2 9355   2.180   5.524   0.542 -0.1157  1.9002  1.2611
 3131TIP3   OH2 9356   0.341   2.743   0.644 -0.1002  0.0142 -0.0985
 3131TIP3    H1 9357   0.405   2.768   0.577  0.7710 -2.2120 -0.1910
 3131TIP3    H2 9358   0.343   2.647   0.644 -1.7814 -0.0752  1.5242
 3132TIP3   OH2 9359   2.703   5.287   3.102  0.0860  0.0890  0.2918
 3132TIP3    H1 9360   2.780   5.300   3.156  1.2263  1.9717 -1.6287
 3132TIP3    H2 9361   2.656   5.370   3.107 -1.9681 -1.0679  1.5341
 3133TIP3   OH2 9362   5.077   4.943   2.796  0.3046  0.1120 -0.3405
 3133TIP3    H1 9363   5.061   4.985   2.712  0.6410 -0.4493 -0.6934
 3133TIP3    H2 9364   5.098   5.014   2.856  0.0670  0.5132 -0.7336
 3134TIP3   OH2 9365   5.317   2.246   1.847  0.0840  0.5973 -0.1073
 3134TIP3    H1 9366   5.315   2.206   1.934  1.0502 -0.5092 -0.5695
 3134TIP3    H2 9367   5.293   2.175   1.787 -1.0840  1.4687 -0.7353
 3135TIP3   OH2 9368   2.052   2.155   3.973  0.1095 -0.0286  0.4096
 3135TIP3    H1 9369   2.066   2.144   4.067  1.1552 -0.4916  0.2194
 3135TIP3    H2 9370   2.050   2.065   3.939 -2.5552  0.0050  0.2546
 3136TIP3   OH2 9371   1.232   2.835   0.357 -0.4666  0.1908  0.9864
 3136TIP3    H1 9372   1.304   2.784   0.321  0.5227  2.3803 -0.2936
 3136TIP3    H2 9373   1.271   2.886   0.428 -0.7315  1.3224  0.3482
 3137TIP3   OH2 9374   4.828   0.550   5.498  0.1494  0.2937  0.0673
 3137TIP3    H1 9375   4.799   0.459   5.509  0.2828  0.3967  1.4445
 3137TIP3    H2 9376   4.883   0.549   5.420 -0.2802 -0.7064 -0.2324
 3138TIP3   OH2 9377   4.920   1.836   2.923 -0.7144  0.1416 -0.1580
 3138TIP3    H1 9378   4.946   1.920   2.961 -1.2623  0.2975 -0.1133
 3138TIP3    H2 9379   4.936   1.772   2.992  0.4798  0.0791 -0.4705
 3139TIP3   OH2 9380   5.986   0.570   4.695 -0.6760  0.2418  0.5351
 3139TIP3    H1 9381   5.976   0.563   4.790  1.0432  1.0309  0.8299
 3139TIP3    H2 9382   6.081   0.564   4.681 -0.9609 -1.1684 -1.2742
 3140TIP3   OH2 9383   4.280   4.972   2.396  0.5664 -0.0585 -0.2692
 3140TIP3    H1 9384   4.224   5.034   2.442  1.5373 -0.4023  1.4359
 3140TIP3    H2 9385   4.219   4.920   2.343 -0.7769 -0.5099  1.6160
 3141TIP3   OH2 9386   4.530   1.019   0.484 -0.4665 -0.5765 -0.0869
 3141TIP3    H1 9387   4.571   0.935   0.505 -0.7305 -0.2507  1.9812
 3141TIP3    H2 9388   4.593   1.063   0.427  0.9036 -1.1276  0.9533
 3142TIP3   OH2 9389   4.106   3.415   0.332 -0.4759  0.0149 -0.7468
 3142TIP3    H1 9390   4.085   3.487   0.391  0.1050 -0.2736 -0.1830
 3142TIP3    H2 9391   4.154   3.456   0.260 -1.5306  0.4309 -1.2440
 3143TIP3   OH2 9392   3.491   2.167   5.814  0.4251 -0.4458  0.6960
 3143TIP3    H1 9393   3.554   2.201   5.878  1.1964  0.1325 -0.3571
 3143TIP3    H2 9394   3.471   2.079   5.846  0.9280 -0.2368  1.6401
 3144TIP3   OH2 9395   2.690   4.628   0.567  0.2688  0.2516 -0.2460
 3144TIP3    H1 9396   2.726   4.700   0.619 -1.6500  0.5497  0.7372
 3144TIP3    H2 9397   2.606   4.660   0.535 -2.1639 -2.4680  2.7381
 3145TIP3   OH2 9398   3.684   2.663   0.473  0.2273 -0.4381  0.2106
 3145TIP3    H1 9399   3.734   2.623   0.402  0.2553  0.8850 -0.5310
 3145TIP3    H2 9400   3.731   2.744   0.494 -0.3041 -0.3391  1.0981
 3146TIP3   OH2 9401   5.262   3.528   5.420  0.7621 -0.2085 -0.3834
 3146TIP3    H1 9402   5.329   3.475   5.463  1.2198  0.2778 -0.4929
 3146TIP3    H2 9403   5.302   3.556   5.338 -0.3755 -1.7536 -1.5229
 3147TIP3   OH2 9404   6.579   0.980   0.371  0.3322  0.0162 -0.3511
 3147TIP3    H1 9405   6.552   0.971   0.279  0.8680 -0.2530 -0.4811
 3147TIP3    H2 9406   6.529   0.913   0.417 -0.0837  0.2786 -0.4132
 3148TIP3   OH2 9407   5.992   1.272   1.495 -0.0740 -0.3105  0.1626
 3148TIP3    H1 9408   6.025   1.325   1.568  0.5261 -1.5960  0.8618
 3148TIP3    H2 9409   5.995   1.182   1.527  1.4140 -1.0637 -1.8665
 3149TIP3   OH2 9410   5.502   5.241   3.301 -0.2310  0.5799  0.1696
 3149TIP3    H1 9411   5.427   5.260   3.357  0.0299  0.6800  0.4906
 3149TIP3    H2 9412   5.542   5.327   3.284 -1.6365  0.8786 -2.1048
 3150TIP3   OH2 9413   5.881   4.597   2.184 -0.5306 -0.0647 -0.5001
 3150TIP3    H1 9414   5.841   4.548   2.256 -2.7419  0.9081 -0.9755
 3150TIP3    H2 9415   5.869   4.542   2.107 -2.3188  0.8092 -0.8944
 3151TIP3   OH2 9416   0.518   5.547   2.568 -0.3220  0.0204 -0.1372
 3151TIP3    H1 9417   0.556   5.527   2.482 -1.2015 -0.8166 -0.3436
 3151TIP3    H2 9418   0.562   5.628   2.595  1.4901 -0.8174 -0.4382
 3152TIP3   OH2 9419   5.576   2.185   0.855  0.3380  0.1627  0.0518
 3152TIP3    H1 9420   5.550   2.264   0.902 -2.7647  0.2713 -1.5802
 3152TIP3    H2 9421   5.533   2.113   0.902  0.1255 -0.1107 -0.5509
 3153TIP3   OH2 9422   1.621   1.864   3.506 -0.1786  0.2253  0.2052
 3153TIP3    H1 9423   1.709   1.832   3.525  0.0905 -1.1162 -2.7062
 3153TIP3    H2 9424   1.564   1.817   3.568  0.9560 -0.3558  0.8395
 3154TIP3   OH2 9425   5.101   6.704   3.140  0.4271  0.3130 -0.1606
 3154TIP3    H1 9426   5.092   6.664   3.227 -0.2083  0.8060  0.0078
 3154TIP3    H2 9427   5.150   6.639   3.089 -1.4031 -1.1574 -0.1711
 3155TIP3   OH2 9428   3.678   3.051   2.000 -0.1073  0.0224 -0.3908
 3155TIP3    H1 9429   3.751   3.037   1.939  1.8604  1.8396  1.3539
 3155TIP3    H2 9430   3.721   3.058   2.086 -2.4899  0.0958  0.8646
 3156TIP3   OH2 9431   6.152   3.007   5.825  0.1259 -0.5886 -0.0060
 3156TIP3    H1 9432   6.222   3.018   5.889  0.5474 -0.3793 -0.4941
 3156TIP3    H2 9433   6.077   2.977   5.876  0.9770 -2.2383  0.3416
 3157TIP3   OH2 9434   7.196   1.336   2.188  0.0322  0.4124 -0.5080
 3157TIP3    H1 9435   7.189   1.396   2.114 -0.7852 -1.2942 -1.9057
 3157TIP3    H2 9436   7.116   1.350   2.239 -1.7519 -1.5269 -2.5457
 3158TIP3   OH2 9437   6.356   2.113   0.064  0.3647 -0.2088 -0.0437
 3158TIP3    H1 9438   6.352   2.022   0.034  0.8831  0.1594 -1.2744
 3158TIP3    H2 9439   6.450   2.134   0.065  0.2369  0.3724  0.0490
 3159TIP3   OH2 9440   6.310   1.025   3.217 -0.6818  0.3198 -0.1749
 3159TIP3    H1 9441   6.294   1.119   3.201  0.0795  0.8260  1.7820
 3159TIP3    H2 9442   6.398   1.022   3.254 -1.6564 -0.8613  2.2178
 3160TIP3   OH2 9443   2.849   5.868   1.316  0.1277 -0.0529 -0.0030
 3160TIP3    H1 9444   2.919   5.933   1.328 -0.5573  1.0616 -1.6094
 3160TIP3    H2 9445   2.813   5.888   1.230 -1.1464 -1.6196  0.1181
 3161TIP3   OH2 9446   6.008   4.757   3.378  0.1130  0.0545  0.2084
 3161TIP3    H1 9447   5.917   4.754   3.349  0.3361  0.3553 -0.5498
 3161TIP3    H2 9448   6.051   4.818   3.317  1.1948 -1.3936 -0.5343
 3162TIP3   OH2 9449   5.851   1.305   2.209 -0.0279  0.2027  0.8023
 3162TIP3    H1 9450   5.894   1.256   2.279 -0.4447 -1.7200 -0.2273
 3162TIP3    H2 9451   5.917   1.366   2.178  1.6173 -1.8533  0.0559
 3163TIP3   OH2 9452   4.228   1.552   5.778  0.1215 -0.5242 -0.0536
 3163TIP3    H1 9453   4.212   1.646   5.771 -0.2062 -0.4582  1.3797
 3163TIP3    H2 9454   4.300   1.545   5.841 -1.2217 -1.3021  1.4620
 3164TIP3   OH2 9455   5.498   4.573   1.754 -0.0331 -0.4289  0.3087
 3164TIP3    H1 9456   5.489   4.566   1.849  0.6951 -0.8493  0.3517
 3164TIP3    H2 9457   5.420   4.621   1.726  1.4113  2.9727  1.5230
 3165TIP3   OH2 9458   2.758   6.295   0.368  0.0203 -0.1633 -0.6682
 3165TIP3    H1 9459   2.818   6.239   0.418 -0.0404  1.1377  0.9758
 3165TIP3    H2 9460   2.784   6.384   0.392 -2.3436  0.4520 -0.1383
 3166TIP3   OH2 9461   0.692   0.259   5.024 -0.2970 -0.1120 -0.3266
 3166TIP3    H1 9462   0.604   0.295   5.009  0.6512  2.9048  0.5534
 3166TIP3    H2 9463   0.680   0.194   5.094 -1.8591  0.0853 -0.3764
 3167TIP3   OH2 9464   0.084   4.864   2.985 -0.7846  0.4192  0.4941
 3167TIP3    H1 9465   0.155   4.829   2.932  0.7423 -0.5984  2.9897
 3167TIP3    H2 9466   0.083   4.958   2.967  0.2392  0.2228 -0.6442
 3168TIP3   OH2 9467   5.152   6.459   3.649  0.0662  0.5388 -0.5106
 3168TIP3    H1 9468   5.193   6.372   3.641  1.0227  0.6669  2.0423
 3168TIP3    H2 9469   5.217   6.519   3.613  0.8287  0.4479  0.6551
 3169TIP3   OH2 9470   6.036   6.394   4.740 -0.0057  0.0212  0.1381
 3169TIP3    H1 9471   6.079   6.389   4.654  1.7896  2.0151  0.8255
 3169TIP3    H2 9472   6.095   6.348   4.799 -1.3728 -1.5922  0.3156
 3170TIP3   OH2 9473   7.190   2.894   0.232  0.2740  0.3030 -0.0506
 3170TIP3    H1 9474   7.132   2.936   0.168 -1.2720  0.6599  1.5328
 3170TIP3    H2 9475   7.254   2.962   0.254 -0.2551  0.7645  0.0874
 3171TIP3   OH2 9476   2.308   6.387   1.120 -0.2918  0.0784  0.2181
 3171TIP3    H1 9477   2.331   6.401   1.028  0.0401  0.4827  0.3576
 3171TIP3    H2 9478   2.389   6.406   1.168 -0.6589  0.5782  0.6510
 3172TIP3   OH2 9479   4.618   5.885   3.405 -0.0569 -0.3398  0.0337
 3172TIP3    H1 9480   4.528   5.897   3.375 -0.5161 -0.5417  1.3000
 3172TIP3    H2 9481   4.664   5.850   3.328 -1.2496 -1.0459 -0.3818
 3173TIP3   OH2 9482   6.643   5.818   4.064  0.3221  0.1086  0.7243
 3173TIP3    H1 9483   6.685   5.824   4.150  0.1455 -1.5270  0.9649
 3173TIP3    H2 9484   6.684   5.742   4.023  0.9559  1.3206 -0.9783
 3174TIP3   OH2 9485   4.865   5.856   3.902 -0.2375  0.2388 -0.2075
 3174TIP3    H1 9486   4.852   5.923   3.835  1.8358 -0.3255 -1.2842
 3174TIP3    H2 9487   4.943   5.809   3.873 -1.4178 -2.4560  0.6492
 3175TIP3   OH2 9488   2.654   6.546   0.910  0.5005  0.3039 -0.3446
 3175TIP3    H1 9489   2.740   6.570   0.943  0.6930  2.1362 -2.0256
 3175TIP3    H2 9490   2.641   6.456   0.941  0.7282  1.6218  4.4281
 3176TIP3   OH2 9491   4.868   3.990   3.587  0.2660  0.1371 -0.0357
 3176TIP3    H1 9492   4.873   4.080   3.552 -0.3502  0.4820  0.7387
 3176TIP3    H2 9493   4.780   3.961   3.565 -0.0005  0.2219  0.9090
 3177TIP3   OH2 9494   1.714   4.822   1.233  0.6929 -0.2978  0.2118
 3177TIP3    H1 9495   1.801   4.862   1.233  0.1265  0.9673 -0.1341
 3177TIP3    H2 9496   1.685   4.828   1.142 -0.3558  0.6520  0.5876
 3178TIP3   OH2 9497   1.971   2.259   3.282 -0.1474  0.3581  0.2898
 3178TIP3    H1 9498   2.052   2.226   3.320 -1.6614 -2.7162  1.1371
 3178TIP3    H2 9499   1.955   2.341   3.329  2.5777  1.2780 -0.1796
 3179TIP3   OH2 9500   2.224   6.476   2.680 -0.2723  0.3359  0.3194
 3179TIP3    H1 9501   2.142   6.430   2.664 -0.8278  1.4237 -0.0511
 3179TIP3    H2 9502   2.273   6.466   2.598  0.1685 -0.6805  0.6879
 3180TIP3   OH2 9503   5.386   2.610   0.363 -0.1317  0.0322  0.5227
 3180TIP3    H1 9504   5.382   2.655   0.448  0.7629  1.1713 -0.0052
 3180TIP3    H2 9505   5.312   2.646   0.314 -0.8699 -0.8969  0.9198
 3181TIP3   OH2 9506   0.332   6.055   3.723 -0.3775  0.1339 -0.0252
 3181TIP3    H1 9507   0.391   6.130   3.725 -0.0229 -0.1369 -0.1223
 3181TIP3    H2 9508   0.345   6.017   3.636  0.5377 -0.8894  0.5254
 3182TIP3   OH2 9509   6.685   1.505   0.836  0.0730  0.2988  0.0913
 3182TIP3    H1 9510   6.657   1.440   0.901  0.3190 -0.3328 -0.4275
 3182TIP3    H2 9511   6.714   1.580   0.889  1.6171 -0.7289  0.8003
 3183TIP3   OH2 9512   2.946   2.552   2.580  0.0516 -0.1533  0.0721
 3183TIP3    H1 9513   2.971   2.460   2.570  1.5218  0.3202 -1.0506
 3183TIP3    H2 9514   2.932   2.583   2.491  2.5045  1.4317  0.1428
 3184TIP3   OH2 9515   0.548   6.651   4.538 -0.3562 -0.1687  0.1290
 3184TIP3    H1 9516   0.470   6.681   4.585 -0.3591 -1.7071  1.1791
 3184TIP3    H2 9517   0.513   6.594   4.469 -0.2017 -0.3925  0.2338
 3185TIP3   OH2 9518   1.162   4.407   4.172  0.2932  0.4495  0.3022
 3185TIP3    H1 9519   1.136   4.472   4.237  0.7707  1.4314 -0.4558
 3185TIP3    H2 9520   1.240   4.365   4.209  0.0551  0.3875  0.7389
 3186TIP3   OH2 9521   6.428   4.029   5.432  0.5603 -0.5711 -0.2743
 3186TIP3    H1 9522   6.456   4.119   5.451 -0.1857 -0.5151  0.6647
 3186TIP3    H2 9523   6.401   3.994   5.517 -2.6719 -0.4203 -1.0993
 3187TIP3   OH2 9524   6.743   6.410   3.946 -0.0268 -0.0121 -0.0919
 3187TIP3    H1 9525   6.771   6.467   4.017  0.9025  0.4247 -0.7901
 3187TIP3    H2 9526   6.647   6.406   3.954 -0.0568  1.1725  0.3180
 3188TIP3   OH2 9527   3.072   2.390   5.604  0.0724  0.6895  0.2748
 3188TIP3    H1 9528   3.126   2.315   5.628  0.9642  1.1075 -0.3619
 3188TIP3    H2 9529   3.053   2.377   5.511  0.0273  1.1098  0.2219
 3189TIP3   OH2 9530   2.290   0.866   4.007 -0.0150  0.0495 -0.0480
 3189TIP3    H1 9531   2.358   0.930   4.028 -0.6386  0.4987  0.6698
 3189TIP3    H2 9532   2.309   0.792   4.064 -0.8151  0.6584  1.0403
 3190TIP3   OH2 9533   2.991   4.835   5.197  0.6994  0.4892  0.0050
 3190TIP3    H1 9534   3.026   4.902   5.257 -0.0262 -0.4042  1.4819
 3190TIP3    H2 9535   2.930   4.785   5.250  0.9373 -1.1323 -1.1784
 3191TIP3   OH2 9536   2.287   1.285   3.299 -0.2865  0.4353  0.4732
 3191TIP3    H1 9537   2.278   1.380   3.309 -0.3458  0.2675  2.6256
 3191TIP3    H2 9538   2.359   1.273   3.238 -0.6144  1.8547 -0.2271
 3192TIP3   OH2 9539   4.430   2.487   3.552  0.2376 -0.2389 -1.0969
 3192TIP3    H1 9540   4.466   2.555   3.495 -2.3045  0.8073 -1.5767
 3192TIP3    H2 9541   4.447   2.518   3.641  1.9393 -0.6304 -1.2414
 3193TIP3   OH2 9542   4.275   0.056   3.662  0.4102  0.0531  0.1866
 3193TIP3    H1 9543   4.321   0.138   3.644  0.0534  0.1041 -0.5108
 3193TIP3    H2 9544   4.196   0.083   3.708  0.1599  0.1254 -0.2834
 3194TIP3   OH2 9545   6.963   5.470   0.336 -0.1747 -0.1950  0.3653
 3194TIP3    H1 9546   6.899   5.540   0.350 -0.1583 -0.0748 -0.1433
 3194TIP3    H2 9547   7.041   5.500   0.384 -0.2881 -0.0416  0.4554
 3195TIP3   OH2 9548   0.758   1.685   4.165  0.2430 -0.6521 -0.2946
 3195TIP3    H1 9549   0.799   1.605   4.198  0.6968 -0.5837 -0.6943
 3195TIP3    H2 9550   0.827   1.751   4.169 -0.3568 -0.0580  0.8322
 3196TIP3   OH2 9551   2.214   3.021   0.042 -0.1342  0.3020  0.9161
 3196TIP3    H1 9552   2.132   3.028  -0.007 -1.3386  2.0614  3.0161
 3196TIP3    H2 9553   2.283   3.036  -0.024 -1.5395  0.3660 -0.6130
 3197TIP3   OH2 9554   5.997   5.814   3.117 -0.1405 -0.2934 -0.0151
 3197TIP3    H1 9555   5.980   5.793   3.025 -0.3111  0.0281 -0.0595
 3197TIP3    H2 9556   5.952   5.897   3.131 -1.5079 -1.1359  0.8034
 3198TIP3   OH2 9557   2.046   2.107   4.801 -0.4921 -0.6246 -0.2962
 3198TIP3    H1 9558   2.013   2.194   4.823 -0.1218 -0.3898 -0.6467
 3198TIP3    H2 9559   1.968   2.053   4.791 -0.7370 -0.2390 -0.4671
 3199TIP3   OH2 9560   2.485   5.168   0.666 -0.0747  0.0818  0.5591
 3199TIP3    H1 9561   2.572   5.138   0.639 -0.1473 -0.3322  0.7865
 3199TIP3    H2 9562   2.474   5.133   0.755 -0.3971  0.2919  0.6035
 3200TIP3   OH2 9563   2.588   6.317   0.092  0.7261 -0.2970  0.0579
 3200TIP3    H1 9564   2.646   6.341   0.020  0.1445  0.0456 -0.3062
 3200TIP3    H2 9565   2.501   6.313   0.052  0.6621 -2.0457  0.3285
 3201TIP3   OH2 9566   3.144   5.207   1.245  0.6496  0.1810  0.3109
 3201TIP3    H1 9567   3.133   5.245   1.157  0.2082 -2.1732 -0.7148
 3201TIP3    H2 9568   3.056   5.205   1.282  0.4943 -0.8006 -0.0840
 3202TIP3   OH2 9569   2.868   2.154   2.609 -0.0647  0.6976  0.7846
 3202TIP3    H1 9570   2.796   2.124   2.553 -0.6839  0.3018  1.7843
 3202TIP3    H2 9571   2.907   2.226   2.560 -1.3724  1.1675  0.3947
 3203TIP3   OH2 9572   5.987   3.162   0.845  0.1429 -0.6141  0.0656
 3203TIP3    H1 9573   5.965   3.114   0.766 -1.7255  0.5358 -0.1903
 3203TIP3    H2 9574   6.060   3.219   0.820  0.3652 -1.1263 -0.4655
 3204TIP3   OH2 9575   6.560   1.250   4.322  0.0542  0.3220  0.5210
 3204TIP3    H1 9576   6.596   1.199   4.249  1.5942  0.6635  1.0065
 3204TIP3    H2 9577   6.480   1.203   4.347 -0.7342  0.4154 -1.6199
 3205TIP3   OH2 9578   3.655   5.175   0.301 -0.1541 -0.6217 -0.3291
 3205TIP3    H1 9579   3.603   5.102   0.336  0.8438 -1.4832 -0.6071
 3205TIP3    H2 9580   3.745   5.143   0.300  0.3242  0.6672 -0.3528
 3206TIP3   OH2 9581   4.197   5.902   2.529  0.0079 -0.1742 -0.3040
 3206TIP3    H1 9582   4.259   5.970   2.556  1.4011 -1.8142  0.8884
 3206TIP3    H2 9583   4.173   5.925   2.440  3.1736  0.0570 -1.2472
 3207TIP3   OH2 9584   3.154   1.964   1.662  0.0158  0.3363  0.2346
 3207TIP3    H1 9585   3.248   1.951   1.647 -0.0295  0.2603  0.0101
 3207TIP3    H2 9586   3.124   2.012   1.585 -0.1259  0.3795  0.3165
 3208TIP3   OH2 9587   4.512   5.498   3.502 -0.0036 -0.5806 -0.8441
 3208TIP3    H1 9588   4.507   5.461   3.414  1.7339 -0.6008 -0.9672
 3208TIP3    H2 9589   4.536   5.424   3.557  0.5179 -0.2577 -0.6253
 3209TIP3   OH2 9590   5.948   3.853   1.470  0.0969  0.1210  0.5649
 3209TIP3    H1 9591   5.946   3.933   1.417  0.8377  0.1628  0.5936
 3209TIP3    H2 9592   5.868   3.806   1.446  0.0680  0.4812 -0.0530
 3210TIP3   OH2 9593   1.986   2.015   5.431  0.3170  0.0204 -0.0156
 3210TIP3    H1 9594   1.913   2.047   5.485  0.1502 -0.0941 -0.1703
 3210TIP3    H2 9595   2.006   2.088   5.373 -0.1139 -0.1797 -0.4201
 3211TIP3   OH2 9596   3.273   2.828   5.531 -0.3299 -0.2671  0.4297
 3211TIP3    H1 9597   3.180   2.848   5.547 -0.4456  0.4747 -0.9683
 3211TIP3    H2 9598   3.299   2.890   5.462  1.2436 -0.3782  0.8850
 3212TIP3   OH2 9599   1.035   2.060   2.070  0.3230  0.7736  0.2122
 3212TIP3    H1 9600   1.067   2.020   2.151 -1.4781 -0.6922  0.2707
 3212TIP3    H2 9601   1.105   2.046   2.007  0.8250 -0.1361  0.9400
 3213TIP3   OH2 9602   4.115   1.035   2.826  0.4157 -0.2259  0.4644
 3213TIP3    H1 9603   4.117   0.958   2.882 -0.3204 -0.1945  0.5516
 3213TIP3    H2 9604   4.059   1.097   2.873  0.5462  0.1484  0.1324
 3214TIP3   OH2 9605   0.382   4.251   3.314 -0.1081 -0.6795 -0.5543
 3214TIP3    H1 9606   0.355   4.238   3.405 -1.0000 -1.7428 -0.9488
 3214TIP3    H2 9607   0.465   4.205   3.306  1.5726  1.9387  0.4625
 3215TIP3   OH2 9608   0.458   3.867   3.656 -0.2164  0.2491 -0.7117
 3215TIP3    H1 9609   0.436   3.849   3.747 -1.6000  0.4345 -0.9849
 3215TIP3    H2 9610   0.400   3.810   3.605 -0.6484  1.3416 -1.4885
 3216TIP3   OH2 9611   0.907   0.790   2.257 -0.1646 -0.2057 -0.4929
 3216TIP3    H1 9612   0.831   0.831   2.217 -1.0074 -1.8038 -0.5822
 3216TIP3    H2 9613   0.872   0.722   2.314  1.1554 -0.2047  0.3827
 3217TIP3   OH2 9614   3.486   5.718   2.989 -0.6329 -0.5106 -0.5614
 3217TIP3    H1 9615   3.429   5.790   2.962 -0.0128 -0.0580 -0.6675
 3217TIP3    H2 9616   3.529   5.749   3.068  0.3049 -0.4109 -1.1010
 3218TIP3   OH2 9617   1.528   6.589   5.888 -0.7485 -0.0863 -0.9347
 3218TIP3    H1 9618   1.612   6.574   5.843  0.2703  0.0467  0.8158
 3218TIP3    H2 9619   1.484   6.504   5.884  0.8635 -1.0835  0.7747
 3219TIP3   OH2 9620   0.373   2.195   3.719  0.4606 -0.7973 -0.3611
 3219TIP3    H1 9621   0.279   2.194   3.704  0.4060 -0.1942 -0.0890
 3219TIP3    H2 9622   0.403   2.277   3.679  1.0563 -1.5544 -1.5064
 3220TIP3   OH2 9623   6.456   2.800   3.292 -0.8779  0.0590  0.3720
 3220TIP3    H1 9624   6.540   2.819   3.251 -1.1229 -0.6939 -0.5029
 3220TIP3    H2 9625   6.478   2.761   3.377 -0.2918 -1.9387 -0.6535
 3221TIP3   OH2 9626   5.063   5.727   5.070 -0.0147 -0.0067  0.3591
 3221TIP3    H1 9627   5.062   5.697   5.160 -0.6364 -1.5394 -0.1219
 3221TIP3    H2 9628   5.096   5.653   5.020  1.7841  1.3149 -0.5475
 3222TIP3   OH2 9629   3.531   5.519   3.414  0.2689  0.3104  0.0236
 3222TIP3    H1 9630   3.624   5.500   3.410  0.1174 -0.5022  0.1281
 3222TIP3    H2 9631   3.489   5.433   3.409 -0.4439  0.5998  0.8472
 3223TIP3   OH2 9632   6.859   0.022   0.668 -0.1167  0.1055 -0.0040
 3223TIP3    H1 9633   6.887   0.102   0.712  1.2364  1.2678 -2.7961
 3223TIP3    H2 9634   6.826   0.050   0.583  0.7124 -2.2884 -1.2320
 3224TIP3   OH2 9635   0.752   2.411   4.146 -0.4849 -0.2283  0.5606
 3224TIP3    H1 9636   0.838   2.433   4.182 -0.6569  0.1290  0.7490
 3224TIP3    H2 9637   0.768   2.395   4.053 -0.7071  2.9045 -0.1161
 3225TIP3   OH2 9638   3.368   4.724   0.878  0.0708 -0.2268  0.8309
 3225TIP3    H1 9639   3.392   4.665   0.950  0.8450 -2.8728 -1.4403
 3225TIP3    H2 9640   3.451   4.745   0.836 -0.3860  1.1796  0.5801
 3226TIP3   OH2 9641   0.039   2.383   4.619 -0.4874 -0.5730  0.4110
 3226TIP3    H1 9642  -0.015   2.345   4.551 -0.3775 -1.2607  0.6971
 3226TIP3    H2 9643   0.112   2.321   4.629  1.1268  1.0040 -0.9339
 3227TIP3   OH2 9644   1.132   4.471   2.373  0.1586  0.0536  0.0041
 3227TIP3    H1 9645   1.221   4.467   2.406  0.6417  1.3553 -1.0770
 3227TIP3    H2 9646   1.111   4.564   2.369 -0.2080 -0.0559 -2.3653
 3228TIP3   OH2 9647   3.444   5.994   1.191 -0.8560  0.0170 -0.1526
 3228TIP3    H1 9648   3.496   5.920   1.221 -0.3575  0.2931 -0.3198
 3228TIP3    H2 9649   3.453   5.994   1.096  0.4511  1.2152 -0.0545
 3229TIP3   OH2 9650   5.090   5.568   3.325 -0.4685 -1.0522  0.3013
 3229TIP3    H1 9651   5.131   5.600   3.405  0.7975  1.2340 -1.1362
 3229TIP3    H2 9652   4.996   5.571   3.343 -0.2222 -0.2314  1.5793
 3230TIP3   OH2 9653   5.600   0.407   1.152  0.2217  0.1356  0.0553
 3230TIP3    H1 9654   5.628   0.476   1.212  0.6361 -0.0297  0.0592
 3230TIP3    H2 9655   5.671   0.342   1.156 -0.1484 -0.2761  0.0345
 3231TIP3   OH2 9656   5.117   4.362   1.885  0.8645  0.5524 -0.3493
 3231TIP3    H1 9657   5.150   4.322   1.805  1.2262 -1.1796  0.6252
 3231TIP3    H2 9658   5.022   4.348   1.882  0.7392  1.4513 -0.9616
 3232TIP3   OH2 9659   4.581   0.121   3.458 -0.2928  0.2210 -0.2077
 3232TIP3    H1 9660   4.643   0.141   3.528 -0.6375 -0.0199  0.1770
 3232TIP3    H2 9661   4.607   0.035   3.426 -0.1940  0.2887 -0.3083
 3233TIP3   OH2 9662   1.539   1.249   5.245  0.4374  0.7425  0.4944
 3233TIP3    H1 9663   1.502   1.166   5.213  0.0621  0.9740  0.3289
 3233TIP3    H2 9664   1.594   1.279   5.173  3.8993 -1.3670  1.9717
 3234TIP3   OH2 9665   0.200   4.898   3.267  0.0951  0.0030 -0.2399
 3234TIP3    H1 9666   0.218   4.992   3.269 -0.2779  0.0666  0.1424
 3234TIP3    H2 9667   0.179   4.879   3.175  0.3762  0.2498 -0.3575
 3235TIP3   OH2 9668   2.519   6.666   1.448  0.2470  0.2144 -0.0171
 3235TIP3    H1 9669   2.553   6.594   1.501 -0.7150  0.3564  0.8219
 3235TIP3    H2 9670   2.440   6.631   1.408  0.5533  0.3587 -0.7758
 3236TIP3   OH2 9671   6.895   0.924   1.649  0.2923 -0.4012  0.1052
 3236TIP3    H1 9672   6.898   0.997   1.587 -0.1778  0.7561  1.3911
 3236TIP3    H2 9673   6.838   0.956   1.720 -0.5413 -2.3031  0.3444
 3237TIP3   OH2 9674   0.605   0.529   1.803 -0.2243  0.3973  0.0532
 3237TIP3    H1 9675   0.676   0.589   1.780  0.9650 -1.4543 -1.4594
 3237TIP3    H2 9676   0.619   0.511   1.896 -0.1866  1.8684  0.3654
 3238TIP3   OH2 9677   6.898   0.029   4.329 -0.1074 -0.2136  0.5746
 3238TIP3    H1 9678   6.832   0.098   4.327  1.0150  0.9390  1.9392
 3238TIP3    H2 9679   6.847  -0.052   4.341 -1.4594  0.2695 -1.3121
 3239TIP3   OH2 9680   0.038   1.999   2.719  0.1883  0.5492 -0.2151
 3239TIP3    H1 9681   0.039   1.904   2.706  1.4292  0.7266 -1.6615
 3239TIP3    H2 9682  -0.050   2.026   2.695 -0.8782 -0.4516  2.2628
 3240TIP3   OH2 9683   3.805   3.491   4.450 -0.5964  0.4811 -0.3917
 3240TIP3    H1 9684   3.836   3.411   4.492 -0.7820 -0.1058 -1.3354
 3240TIP3    H2 9685   3.711   3.492   4.467 -0.7910 -0.1199 -1.3365
 3241TIP3   OH2 9686   6.591   2.872   5.342 -0.0971 -0.1078 -0.3081
 3241TIP3    H1 9687   6.552   2.834   5.420  0.9457 -0.8387 -0.1352
 3241TIP3    H2 9688   6.671   2.914   5.372  0.2726 -0.3241 -0.9686
 3242TIP3   OH2 9689   2.448   0.120   2.948 -0.6445 -0.1227 -0.1305
 3242TIP3    H1 9690   2.533   0.153   2.918 -0.8703  0.2408 -0.3677
 3242TIP3    H2 9691   2.463   0.026   2.960 -0.4891 -0.2481 -1.1863
 3243TIP3   OH2 9692   4.604   2.157   5.089 -0.2155  0.6584  0.1528
 3243TIP3    H1 9693   4.537   2.158   5.157  0.3300  0.2237  0.7019
 3243TIP3    H2 9694   4.566   2.209   5.017 -0.7527  1.2002  0.8156
 3244TIP3   OH2 9695   4.411   4.430   1.998 -0.4007  0.4014  0.5492
 3244TIP3    H1 9696   4.343   4.372   1.965 -0.2244  0.6011 -0.1636
 3244TIP3    H2 9697   4.379   4.458   2.084  0.0964 -1.7823  1.5183
 3245TIP3   OH2 9698   4.897   2.819   2.049 -0.0988 -0.1250  0.3331
 3245TIP3    H1 9699   4.970   2.858   2.000  0.5285  0.7695  1.9212
 3245TIP3    H2 9700   4.861   2.754   1.989  2.9738 -1.7268  0.0342
 3246TIP3   OH2 9701   3.791   2.132   3.677 -0.4851  0.9326 -0.1488
 3246TIP3    H1 9702   3.720   2.093   3.729  0.0087  0.7654  0.4097
 3246TIP3    H2 9703   3.871   2.095   3.715 -0.1457  0.0546 -1.6547
 3247TIP3   OH2 9704   0.565   0.236   1.307 -0.0786 -0.0238 -0.0032
 3247TIP3    H1 9705   0.538   0.173   1.373  1.6240  1.0132  1.8242
 3247TIP3    H2 9706   0.512   0.314   1.325 -0.0930  0.0370 -0.3064
 3248TIP3   OH2 9707   2.848   3.080   1.653  0.1429  0.1162  0.4718
 3248TIP3    H1 9708   2.754   3.100   1.652  0.0434 -0.0532  2.2393
 3248TIP3    H2 9709   2.890   3.164   1.675  0.6131  0.6560 -2.2110
 3249TIP3   OH2 9710   1.548   4.372   0.739 -0.4720  0.0815 -0.0014
 3249TIP3    H1 9711   1.580   4.456   0.707  1.0084 -0.9862 -1.4952
 3249TIP3    H2 9712   1.575   4.370   0.831 -0.7681  1.3239  0.1305
 3250TIP3   OH2 9713   1.773   3.074   1.377 -0.0745 -0.4038 -0.0013
 3250TIP3    H1 9714   1.827   3.099   1.453 -0.7264 -0.1381  0.3861
 3250TIP3    H2 9715   1.818   2.999   1.340  0.2159 -0.5874  0.7029
 3251TIP3   OH2 9716   6.443   5.889   0.835  0.3572  0.5606 -0.0487
 3251TIP3    H1 9717   6.439   5.825   0.764 -4.5976 -2.7530  2.6116
 3251TIP3    H2 9718   6.536   5.906   0.847  2.0615 -5.1300 -1.9999
 3252TIP3   OH2 9719   1.601   3.559   1.273 -0.2626 -0.2923  0.0336
 3252TIP3    H1 9720   1.553   3.480   1.299 -0.9371  0.0647 -0.0786
 3252TIP3    H2 9721   1.549   3.631   1.311 -1.1221  0.2443 -2.0159
 3253TIP3   OH2 9722   0.309   5.715   0.539 -0.3426 -0.3073  0.3225
 3253TIP3    H1 9723   0.351   5.629   0.528 -0.8023 -0.7123  1.5389
 3253TIP3    H2 9724   0.299   5.724   0.634  1.0246  1.7488  0.3238
 3254TIP3   OH2 9725   2.905   5.888   2.670  0.7735  0.4442  0.1338
 3254TIP3    H1 9726   2.944   5.859   2.588  0.0659  0.8889 -0.3698
 3254TIP3    H2 9727   2.973   5.939   2.713  1.4718 -0.5765  0.2733
 3255TIP3   OH2 9728   0.536   6.237   0.876  0.1544  0.1339 -0.4578
 3255TIP3    H1 9729   0.476   6.235   0.951  1.2109 -1.2851  0.3866
 3255TIP3    H2 9730   0.612   6.286   0.907 -0.4078  1.7060 -1.4457
 3256TIP3   OH2 9731   3.309   0.351   1.350  0.2845 -0.1234  0.6554
 3256TIP3    H1 9732   3.402   0.349   1.375  0.1016  1.1378  1.5394
 3256TIP3    H2 9733   3.266   0.293   1.412  0.3220  0.2399  1.0240
 3257TIP3   OH2 9734   4.035   2.962   4.286 -0.2607  0.0122 -0.5157
 3257TIP3    H1 9735   3.943   2.954   4.307 -0.5815  1.0690 -1.4135
 3257TIP3    H2 9736   4.048   3.055   4.268  0.5383 -0.3834 -2.2480
 3258TIP3   OH2 9737   2.156   0.421   0.985  0.0757  0.1804 -0.3756
 3258TIP3    H1 9738   2.210   0.371   0.923  0.6643 -0.4905  0.6508
 3258TIP3    H2 9739   2.219   0.470   1.038 -0.4371  0.9838 -0.4793
 3259TIP3   OH2 9740   3.430   0.446   5.084  0.2068 -0.2138 -0.0236
 3259TIP3    H1 9741   3.512   0.438   5.034 -0.2670 -0.6887 -0.7402
 3259TIP3    H2 9742   3.401   0.356   5.098 -1.1602 -0.0522 -1.4464
 3260TIP3   OH2 9743   7.031   5.538   3.430  0.1031  0.1052 -0.5394
 3260TIP3    H1 9744   7.125   5.525   3.417 -0.1785 -1.5859 -1.0828
 3260TIP3    H2 9745   6.991   5.454   3.407 -1.4882  0.5644  0.3860
 3261TIP3   OH2 9746   3.448   5.373   5.407  0.3402  0.2158  0.5800
 3261TIP3    H1 9747   3.382   5.308   5.433  0.6327 -1.6099 -2.7353
 3261TIP3    H2 9748   3.397   5.451   5.386 -0.2583  0.3577  2.3689
 3262TIP3   OH2 9749   6.688   3.245   2.785 -0.1784 -0.1835  0.0966
 3262TIP3    H1 9750   6.596   3.251   2.811 -0.2137  2.2657 -0.2931
 3262TIP3    H2 9751   6.687   3.234   2.690 -0.0962  0.0674  0.0636
 3263TIP3   OH2 9752   7.079   1.121   1.841  0.1875  0.1965 -0.4323
 3263TIP3    H1 9753   6.999   1.068   1.843 -0.1009  0.6216  1.5756
 3263TIP3    H2 9754   7.131   1.088   1.914 -0.1579  2.8446  1.1508
 3264TIP3   OH2 9755   1.360   5.013   4.425 -0.6588 -0.5893  0.9127
 3264TIP3    H1 9756   1.449   4.985   4.403 -0.9622 -1.0818  0.2870
 3264TIP3    H2 9757   1.310   5.000   4.344 -1.4995 -1.1502  1.5111
 3265TIP3   OH2 9758   5.089   4.941   1.202  0.2630  0.1231 -0.1631
 3265TIP3    H1 9759   5.085   4.973   1.292 -0.8867 -0.8953  0.1724
 3265TIP3    H2 9760   5.005   4.966   1.164 -1.4032 -3.7619  0.6019
 3266TIP3   OH2 9761   5.350   6.654   1.903 -0.1947 -0.7718 -0.1261
 3266TIP3    H1 9762   5.441   6.673   1.882  0.0258 -1.5432  0.0902
 3266TIP3    H2 9763   5.346   6.660   1.999  0.4935 -4.1304  0.2434
 3267TIP3   OH2 9764   6.870   6.605   4.235 -0.2019 -0.4459 -0.1500
 3267TIP3    H1 9765   6.863   6.542   4.307 -0.3228  0.1935  0.4069
 3267TIP3    H2 9766   6.780   6.636   4.221 -0.0816 -0.0856 -0.1343
 3268TIP3   OH2 9767   1.693   6.441   0.510  0.1733 -0.1663 -0.5511
 3268TIP3    H1 9768   1.665   6.367   0.563 -0.0559 -0.3059 -0.8608
 3268TIP3    H2 9769   1.616   6.499   0.507  0.4978  0.3092  0.0724
 3269TIP3   OH2 9770   5.709   0.398   0.233  0.3490 -0.4956  0.3935
 3269TIP3    H1 9771   5.722   0.416   0.326 -0.0940  0.0192  0.3611
 3269TIP3    H2 9772   5.792   0.424   0.192 -0.2393  1.4937  0.3539
 3270TIP3   OH2 9773   3.033   4.750   4.920 -0.3549  0.0197 -0.2014
 3270TIP3    H1 9774   3.017   4.840   4.948 -1.4215 -0.0902 -0.4170
 3270TIP3    H2 9775   3.088   4.713   4.989  1.4458  1.2892 -0.8926
 3271TIP3   OH2 9776   0.527   6.714   5.708 -0.4162  0.1720  0.1992
 3271TIP3    H1 9777   0.623   6.710   5.709 -0.4641 -1.7328  0.7835
 3271TIP3    H2 9778   0.506   6.760   5.627  0.9987  2.8760  1.2414
 3272TIP3   OH2 9779   3.016   4.969   0.813  0.2089  0.0137  0.7358
 3272TIP3    H1 9780   3.084   4.978   0.879  1.4215  0.2987 -0.5104
 3272TIP3    H2 9781   3.010   5.056   0.773  0.0881 -0.3564 -0.0777
 3273TIP3   OH2 9782   1.973   6.314   2.222  0.0453  0.2198  0.6833
 3273TIP3    H1 9783   2.052   6.317   2.168  0.8742  0.0402  1.8510
 3273TIP3    H2 9784   1.903   6.287   2.161  1.5329 -3.4475  0.3323
 3274TIP3   OH2 9785   1.387   5.072   2.197  0.4243  0.0829 -0.0662
 3274TIP3    H1 9786   1.362   5.034   2.281 -0.7459  0.1387 -0.3696
 3274TIP3    H2 9787   1.306   5.072   2.145  0.2600  3.1206 -0.0282
 3275TIP3   OH2 9788   2.862   4.486   5.802  0.8282 -0.2018 -0.5078
 3275TIP3    H1 9789   2.937   4.427   5.797  0.6029 -0.3868 -2.0976
 3275TIP3    H2 9790   2.791   4.439   5.758  0.3271  0.7698 -0.7735
 3276TIP3   OH2 9791   5.169   6.047   0.348  0.6146 -0.0814 -0.5092
 3276TIP3    H1 9792   5.129   5.962   0.331  0.7893 -0.5195  1.1559
 3276TIP3    H2 9793   5.152   6.064   0.440 -1.1116  2.6169 -1.2019
 3277TIP3   OH2 9794   4.882   4.134   5.323 -0.2803 -0.5412 -0.4157
 3277TIP3    H1 9795   4.851   4.137   5.233  0.5135  1.9103 -0.6796
 3277TIP3    H2 9796   4.865   4.222   5.358  0.4580 -1.0898  1.4652
 3278TIP3   OH2 9797   1.147   3.537   0.915 -0.0343  0.2227 -0.1799
 3278TIP3    H1 9798   1.235   3.559   0.947  0.3455  0.2388 -1.1928
 3278TIP3    H2 9799   1.146   3.442   0.911  0.7540  0.2402 -2.2507
 3279TIP3   OH2 9800   2.816   1.003   2.858  0.1004 -0.4215  0.2260
 3279TIP3    H1 9801   2.736   0.995   2.911  0.3675  0.9677  0.8716
 3279TIP3    H2 9802   2.887   0.981   2.919  0.3807  0.8169  0.3728
 3280TIP3   OH2 9803   7.003   4.808   1.854 -0.5041 -0.3460 -0.6519
 3280TIP3    H1 9804   6.917   4.842   1.828 -1.3860 -1.5583  0.5345
 3280TIP3    H2 9805   7.024   4.856   1.934 -0.0172 -0.0132 -0.9676
 3281TIP3   OH2 9806   3.196   2.641   5.358 -0.2467 -0.2860  0.5582
 3281TIP3    H1 9807   3.225   2.696   5.430 -0.5395  1.6310 -0.7196
 3281TIP3    H2 9808   3.106   2.669   5.341  0.4654  0.8466 -1.8529
 3282TIP3   OH2 9809   3.073   6.247   2.905 -0.3248  0.3535  0.1268
 3282TIP3    H1 9810   3.105   6.173   2.852  0.3651  0.0377  0.9621
 3282TIP3    H2 9811   2.998   6.281   2.856  0.1436 -0.0880 -0.9285
 3283TIP3   OH2 9812   1.386   3.911   2.090  0.2806 -0.2763 -0.2419
 3283TIP3    H1 9813   1.430   3.956   2.162  0.2161  0.2341 -0.5120
 3283TIP3    H2 9814   1.295   3.941   2.096  0.4006  0.2475 -0.8908
 3284TIP3   OH2 9815   3.519   0.822   3.333  0.2164 -0.0934  0.2895
 3284TIP3    H1 9816   3.528   0.740   3.381 -2.2035 -0.0744  0.9176
 3284TIP3    H2 9817   3.550   0.803   3.245  1.7917 -1.0185  1.0190
 3285TIP3   OH2 9818   0.678   2.250   1.864  0.3340  0.4259 -0.2865
 3285TIP3    H1 9819   0.702   2.157   1.865  1.3059  0.6681  1.2895
 3285TIP3    H2 9820   0.615   2.259   1.935  1.1818  1.1943  0.3876
 3286TIP3   OH2 9821   2.958   6.458   2.515  0.4238 -0.2153 -0.2754
 3286TIP3    H1 9822   2.938   6.414   2.598 -0.0429  1.2775  0.4569
 3286TIP3    H2 9823   2.874   6.495   2.487  0.5571 -0.7779 -1.4806
 3287TIP3   OH2 9824   3.312   5.834   1.722 -1.0639  0.4618 -0.5715
 3287TIP3    H1 9825   3.272   5.921   1.724  0.9767  1.4535  1.4483
 3287TIP3    H2 9826   3.374   5.838   1.649 -1.0493  0.6418 -0.5489
 3288TIP3   OH2 9827   3.512   5.677   3.637  0.5346 -0.0428  0.8148
 3288TIP3    H1 9828   3.600   5.709   3.655  0.5672  0.8719 -0.7661
 3288TIP3    H2 9829   3.519   5.640   3.549 -0.3865 -1.0807  1.1620
 3289TIP3   OH2 9830   2.960   1.712   5.530 -0.3920 -0.1020 -0.1797
 3289TIP3    H1 9831   2.965   1.650   5.457  0.9995  0.2354 -0.4098
 3289TIP3    H2 9832   2.949   1.797   5.487 -1.2529 -0.0726  0.0891
 3290TIP3   OH2 9833   0.057   1.353   1.165 -0.0968 -0.8038  0.2126
 3290TIP3    H1 9834   0.135   1.409   1.162 -1.2421  0.8524 -1.4966
 3290TIP3    H2 9835   0.011   1.381   1.244 -0.0382 -0.1451  0.0283
 3291TIP3   OH2 9836   2.976   0.629   3.336  0.0965  0.7063 -0.1609
 3291TIP3    H1 9837   2.940   0.613   3.423 -1.5977  0.0609 -0.9488
 3291TIP3    H2 9838   3.016   0.546   3.310 -0.4740  0.5263 -0.4785
 3292TIP3   OH2 9839   5.718   4.872   4.173  0.2527  0.1284 -0.0613
 3292TIP3    H1 9840   5.743   4.851   4.083 -1.9816  0.1510 -0.7437
 3292TIP3    H2 9841   5.666   4.797   4.202  0.4186  0.4024  1.0030
 3293TIP3   OH2 9842   0.725   1.793   1.294 -0.1484  0.2922  0.2745
 3293TIP3    H1 9843   0.666   1.779   1.219 -0.1747  1.1580  0.1301
 3293TIP3    H2 9844   0.671   1.773   1.371  0.1919 -1.7271  0.0614
 3294TIP3   OH2 9845   6.100   2.954   0.641  0.0657  0.3547 -0.3774
 3294TIP3    H1 9846   6.150   2.932   0.719  0.4508 -0.6111 -0.8789
 3294TIP3    H2 9847   6.082   2.870   0.600 -2.5334  0.6116  0.1062
 3295TIP3   OH2 9848   6.478   3.341   2.302  0.1976  0.5229  0.8019
 3295TIP3    H1 9849   6.481   3.367   2.394 -1.7638 -1.3782  1.5015
 3295TIP3    H2 9850   6.547   3.275   2.294  1.1022  1.4859  0.6128
 3296TIP3   OH2 9851   4.244   1.098   0.260 -0.3266  0.3068  0.1937
 3296TIP3    H1 9852   4.152   1.116   0.242 -0.8632 -1.8487  0.5435
 3296TIP3    H2 9853   4.279   1.182   0.291 -1.9952  1.3151 -0.5076
 3297TIP3   OH2 9854   3.592   4.003   5.440  0.0661  0.6486  0.5641
 3297TIP3    H1 9855   3.595   4.093   5.471 -1.7484  0.7345  0.5821
 3297TIP3    H2 9856   3.551   4.009   5.353 -0.7687 -0.2023  0.8782
 3298TIP3   OH2 9857   2.793   4.796   1.677 -0.6292 -0.2973 -0.3465
 3298TIP3    H1 9858   2.765   4.880   1.641  0.1344 -0.1863 -0.6874
 3298TIP3    H2 9859   2.830   4.818   1.763  0.5695 -0.1309 -0.8876
 3299TIP3   OH2 9860   1.303   0.993   2.770 -0.4020  0.2615 -0.3865
 3299TIP3    H1 9861   1.359   1.022   2.842  1.8802 -1.1399 -1.4752
 3299TIP3    H2 9862   1.299   1.069   2.711 -0.7925  0.8276  0.3669
 3300TIP3   OH2 9863   0.269   1.361   2.739  0.2078 -0.3032 -0.0119
 3300TIP3    H1 9864   0.260   1.342   2.832 -1.2928 -0.0261 -0.0775
 3300TIP3    H2 9865   0.287   1.454   2.734  1.4816 -0.5328  0.0380
 3301TIP3   OH2 9866   7.072   3.012   3.488 -0.4944 -0.3776  0.0225
 3301TIP3    H1 9867   7.103   3.037   3.401 -1.9276 -0.0562 -0.4277
 3301TIP3    H2 9868   7.151   2.983   3.534  0.4837  0.5607 -0.9888
 3302TIP3   OH2 9869   1.998   2.422   4.225 -0.4266  0.2934  0.3745
 3302TIP3    H1 9870   2.072   2.474   4.193 -0.5948  0.0673 -0.3915
 3302TIP3    H2 9871   2.032   2.332   4.227 -0.2751  0.3566  1.2791
 3303TIP3   OH2 9872   3.128   3.974   2.514  0.0364 -0.6155  0.4293
 3303TIP3    H1 9873   3.172   3.937   2.437 -0.1057  0.5855 -0.2436
 3303TIP3    H2 9874   3.191   4.037   2.549  0.3042 -1.4987  1.6164
 3304TIP3   OH2 9875   5.071   3.162   4.014 -0.0350  0.2655  0.0301
 3304TIP3    H1 9876   5.163   3.149   3.993 -0.1905  0.3507 -0.7370
 3304TIP3    H2 9877   5.048   3.245   3.972 -0.4577  0.2527  0.2287
 3305TIP3   OH2 9878   1.242   4.481   5.237  0.1506  0.1023  0.4316
 3305TIP3    H1 9879   1.174   4.482   5.304 -0.0861 -0.5195  0.2086
 3305TIP3    H2 9880   1.305   4.416   5.268  1.0712  1.2537  1.0413
 3306TIP3   OH2 9881   5.320   1.366   3.277  0.3028 -0.2812  0.0799
 3306TIP3    H1 9882   5.251   1.322   3.227  1.0126 -2.4768  0.9250
 3306TIP3    H2 9883   5.380   1.399   3.210  0.8230 -2.4688 -0.6129
 3307TIP3   OH2 9884   5.743   5.224   4.746  0.5127 -0.5208  0.4263
 3307TIP3    H1 9885   5.713   5.223   4.837 -0.0612 -0.9815  0.2455
 3307TIP3    H2 9886   5.662   5.233   4.695  0.7885 -0.7090 -0.0481
 3308TIP3   OH2 9887   0.715   4.026   0.660 -0.1300 -0.1270  0.3502
 3308TIP3    H1 9888   0.684   4.113   0.634 -1.2504 -0.3718  0.8195
 3308TIP3    H2 9889   0.685   3.968   0.590  0.5890 -0.1585  0.0539
 3309TIP3   OH2 9890   0.118   4.820   1.959  0.6585 -0.4091 -0.1761
 3309TIP3    H1 9891   0.074   4.900   1.988  1.6876  0.0653  0.1013
 3309TIP3    H2 9892   0.125   4.829   1.864 -1.4263 -1.3161 -0.4909
 3310TIP3   OH2 9893   5.626   6.732   0.618  0.0050 -0.9496  0.1098
 3310TIP3    H1 9894   5.638   6.748   0.712  2.0623  0.3119 -0.3084
 3310TIP3    H2 9895   5.600   6.817   0.583  0.1665 -1.1884 -0.5977
 3311TIP3   OH2 9896   3.597   4.127   2.456 -0.3333 -0.6857 -0.4516
 3311TIP3    H1 9897   3.631   4.144   2.543  0.0003  1.0406 -0.8902
 3311TIP3    H2 9898   3.573   4.213   2.422  0.0909 -1.2461 -2.2848
 3312TIP3   OH2 9899   0.626   4.541   1.175 -0.6979  0.1482  0.6122
 3312TIP3    H1 9900   0.631   4.516   1.268 -0.5842 -2.1243  0.0464
 3312TIP3    H2 9901   0.540   4.510   1.147 -0.2160 -0.3528 -0.3432
 3313TIP3   OH2 9902   3.844   4.587   5.328  0.4303  0.6510  0.3247
 3313TIP3    H1 9903   3.853   4.682   5.326  1.7230  0.5448  0.5304
 3313TIP3    H2 9904   3.828   4.563   5.236  1.1213  0.9814  0.1122
 3314TIP3   OH2 9905   0.633   2.101   1.143  0.2420  0.1325 -0.3339
 3314TIP3    H1 9906   0.563   2.039   1.166 -0.4257  0.3860 -1.5851
 3314TIP3    H2 9907   0.655   2.079   1.053  1.8422  0.0233  0.0622
 3315TIP3   OH2 9908   4.746   5.624   0.242 -0.0548 -0.2265 -0.2986
 3315TIP3    H1 9909   4.657   5.591   0.253  0.1381 -0.3229  1.2077
 3315TIP3    H2 9910   4.803   5.551   0.267  0.3988  0.4330  0.7253
 3316TIP3   OH2 9911   0.914   5.577   5.412  0.0704  0.1612  0.0875
 3316TIP3    H1 9912   0.891   5.626   5.491 -0.4354  1.3062 -0.7564
 3316TIP3    H2 9913   0.999   5.538   5.433 -1.5690 -2.5387  2.5281
 3317TIP3   OH2 9914   6.148   2.522   5.514 -0.6349 -0.7005  0.0835
 3317TIP3    H1 9915   6.067   2.570   5.527 -0.5953 -0.3551 -0.8702
 3317TIP3    H2 9916   6.192   2.568   5.443  1.7652  0.8778  2.4026
 3318TIP3   OH2 9917   4.599   3.034   3.731 -0.5033 -0.1255  0.4837
 3318TIP3    H1 9918   4.540   3.099   3.769  1.1016  4.0176 -3.2974
 3318TIP3    H2 9919   4.659   3.012   3.802 -2.9445  0.0466  2.7661
 3319TIP3   OH2 9920   5.524   6.267   1.398 -0.2923 -0.2883 -0.6568
 3319TIP3    H1 9921   5.538   6.172   1.398 -0.2473 -0.3075  0.8158
 3319TIP3    H2 9922   5.454   6.281   1.461  0.8847  0.7840  0.4882
 3320TIP3   OH2 9923   4.359   2.832   5.463  0.0331 -0.1446  0.0188
 3320TIP3    H1 9924   4.275   2.873   5.483  0.5163  0.3522  1.0938
 3320TIP3    H2 9925   4.422   2.904   5.460  0.8819 -0.7511  1.8572
 3321TIP3   OH2 9926   1.580   2.371   0.292 -0.3772 -0.5030 -0.2120
 3321TIP3    H1 9927   1.673   2.360   0.270 -0.4888  2.6395 -2.9356
 3321TIP3    H2 9928   1.533   2.326   0.221 -0.9039 -0.2007 -0.0611
 3322TIP3   OH2 9929   0.583   4.710   3.339 -0.0294 -0.5247 -0.5144
 3322TIP3    H1 9930   0.647   4.763   3.386 -2.0742 -0.5890  2.6622
 3322TIP3    H2 9931   0.631   4.675   3.264  3.3183  0.2293  1.0833
 3323TIP3   OH2 9932   1.702   5.385   1.542  0.2242  0.7773  0.4284
 3323TIP3    H1 9933   1.642   5.312   1.558 -1.6795  1.8159 -1.3739
 3323TIP3    H2 9934   1.652   5.462   1.568  0.6102  1.6979 -1.3667
 3324TIP3   OH2 9935   6.334   0.501   0.506  0.1491  0.1039 -0.0350
 3324TIP3    H1 9936   6.255   0.477   0.555  1.0414 -1.1424  0.8716
 3324TIP3    H2 9937   6.301   0.529   0.420 -1.2894 -0.1192  0.4065
 3325TIP3   OH2 9938   1.865   3.666   1.748  0.4441 -0.0267  0.5920
 3325TIP3    H1 9939   1.788   3.614   1.723 -0.0274  1.0476 -0.2333
 3325TIP3    H2 9940   1.830   3.737   1.801  0.9532  0.1401  0.7093
 3326TIP3   OH2 9941   4.483   3.910   3.904  0.4902  0.6809  0.0372
 3326TIP3    H1 9942   4.425   3.859   3.849  1.1010  1.5053 -1.4433
 3326TIP3    H2 9943   4.541   3.846   3.944  1.9819  0.1884 -2.6463
 3327TIP3   OH2 9944   1.779   3.830   3.946 -0.0442  0.2082 -0.0432
 3327TIP3    H1 9945   1.739   3.795   3.866 -0.8413  0.4602  0.2359
 3327TIP3    H2 9946   1.871   3.841   3.924  0.2773 -2.0975 -0.1434
 3328TIP3   OH2 9947   4.238   3.226   5.190  0.5814 -0.3987  0.0458
 3328TIP3    H1 9948   4.207   3.278   5.116  0.0693  0.1239  0.6106
 3328TIP3    H2 9949   4.333   3.227   5.182  0.5039 -1.4998 -1.3673
 3329TIP3   OH2 9950   2.309   5.960   4.800  0.3536 -0.1030 -0.5075
 3329TIP3    H1 9951   2.222   5.941   4.765  0.3260 -0.2244 -0.3731
 3329TIP3    H2 9952   2.345   6.026   4.740  0.7063 -1.0293 -1.3620
 3330TIP3   OH2 9953   4.762   0.771   0.369 -0.4898 -0.0071  0.3090
 3330TIP3    H1 9954   4.691   0.765   0.433 -1.1006 -1.7306 -0.4694
 3330TIP3    H2 9955   4.842   0.757   0.421 -0.4960  3.1423  1.4005
 3331TIP3   OH2 9956   0.048   4.669   0.416 -0.1392  0.4051  0.1812
 3331TIP3    H1 9957   0.031   4.763   0.421  0.0250  0.4950 -0.8392
 3331TIP3    H2 9958  -0.021   4.635   0.359  1.1542  0.2771 -1.3757
 3332TIP3   OH2 9959   3.613   5.167   5.533 -0.1970 -0.2877  0.0708
 3332TIP3    H1 9960   3.573   5.225   5.469 -1.1808 -0.8802  0.1299
 3332TIP3    H2 9961   3.595   5.079   5.499 -0.6791 -0.6040  1.1235
 3333TIP3   OH2 9962   6.659   4.598   2.304 -0.1892 -0.1398  0.3187
 3333TIP3    H1 9963   6.696   4.622   2.389 -2.8299  0.3226  1.4472
 3333TIP3    H2 9964   6.690   4.666   2.244  0.9097  0.1063  1.1401
 3334TIP3   OH2 9965   2.815   4.120   5.548  0.4613 -0.0391 -0.0401
 3334TIP3    H1 9966   2.822   4.093   5.456  1.1777 -0.7553  0.2161
 3334TIP3    H2 9967   2.819   4.216   5.545  0.6013 -0.0626 -0.7480
 3335TIP3   OH2 9968   1.364   0.058   0.860 -0.1953  0.2231 -0.4993
 3335TIP3    H1 9969   1.413   0.060   0.778 -0.6712 -1.9542 -0.8870
 3335TIP3    H2 9970   1.421   0.012   0.921  0.1973  1.9174  0.4879
 3336TIP3   OH2 9971   5.500   4.390   4.898  0.2132 -0.4985 -0.1480
 3336TIP3    H1 9972   5.533   4.461   4.952 -0.8757  0.4746 -0.7184
 3336TIP3    H2 9973   5.463   4.328   4.960  2.8055 -1.5199  0.4907
 3337TIP3   OH2 9974   3.427   5.405   4.336  0.2534  0.0864 -1.3922
 3337TIP3    H1 9975   3.502   5.354   4.365  0.7507  1.2761 -0.5050
 3337TIP3    H2 9976   3.455   5.443   4.252  0.7445  0.6951 -0.9634
 3338TIP3   OH2 9977   2.989   0.649   0.296 -0.2815 -0.6233  0.3531
 3338TIP3    H1 9978   2.945   0.622   0.216 -0.3670  0.4583  0.0189
 3338TIP3    H2 9979   2.947   0.732   0.320  1.1367  0.1322  0.3618
 3339TIP3   OH2 9980   4.265   1.089   4.027 -0.3097  0.0629  0.3054
 3339TIP3    H1 9981   4.217   1.171   4.030  0.6792  0.6825 -0.0894
 3339TIP3    H2 9982   4.356   1.114   4.043 -0.0963 -1.0576  0.9266
 3340TIP3   OH2 9983   3.633   5.499   2.684 -0.6970  0.6749  0.2405
 3340TIP3    H1 9984   3.564   5.565   2.688 -1.4616 -0.1585  2.7908
 3340TIP3    H2 9985   3.702   5.533   2.740 -0.2757  0.1920  0.0228
 3341TIP3   OH2 9986   1.532   4.980   4.197  0.1897  0.2202  0.4809
 3341TIP3    H1 9987   1.627   4.978   4.185  0.0947  2.3026 -1.2105
 3341TIP3    H2 9988   1.496   4.948   4.114 -0.5224  2.5386 -0.1890
 3342TIP3   OH2 9989   6.610   4.741   1.450 -0.5620  0.1740 -0.2645
 3342TIP3    H1 9990   6.580   4.694   1.528 -0.0170  0.6920  0.2617
 3342TIP3    H2 9991   6.605   4.676   1.380  1.8939 -1.2502  0.7777
 3343TIP3   OH2 9992   0.973   4.090   5.432  0.2041  0.2919  0.7446
 3343TIP3    H1 9993   0.907   4.086   5.501  0.4235 -1.1942  0.8949
 3343TIP3    H2 9994   0.949   4.168   5.382 -0.8436  0.5619  1.6054
 3344TIP3   OH2 9995   1.498   3.468   3.927 -0.1693 -0.1108 -0.1137
 3344TIP3    H1 9996   1.439   3.392   3.922  0.1872 -0.5495  1.5095
 3344TIP3    H2 9997   1.536   3.462   4.015  0.7541  1.3109 -0.3881
 3345TIP3   OH2 9998   1.136   6.569   3.708 -0.4587 -0.0045 -0.0172
 3345TIP3    H1 9999   1.125   6.555   3.802  0.0898  2.3610  0.4471
 3345TIP3    H210000   1.047   6.571   3.673 -0.7529  1.0058  0.7749
 3346TIP3   OH210001   3.985   0.184   4.471 -0.0937  0.2870  0.8019
 3346TIP3    H110002   4.018   0.202   4.383  0.9599 -1.0606  0.8886
 3346TIP3    H210003   3.891   0.172   4.459  0.0430  0.0937 -0.1468
 3347TIP3   OH210004   6.998   6.423   4.714  0.1308 -0.1782  0.4743
 3347TIP3    H110005   6.926   6.361   4.704 -0.5531  0.8600 -1.6770
 3347TIP3    H210006   7.002   6.442   4.807  1.0427 -4.1679  1.4331
 3348TIP3   OH210007   1.345   0.583   3.019 -0.0430 -0.6294 -0.0718
 3348TIP3    H110008   1.381   0.652   2.964 -0.6353 -0.0515  0.2580
 3348TIP3    H210009   1.257   0.568   2.984  0.0639 -1.1839 -0.1092
 3349TIP3   OH210010   4.513   4.435   5.428  0.1365  0.1420 -0.4936
 3349TIP3    H110011   4.573   4.426   5.353  0.3879 -0.6265 -0.2158
 3349TIP3    H210012   4.438   4.482   5.392 -0.5543 -1.7602 -1.7475
 3350TIP3   OH210013   6.682   1.825   0.829  0.2975 -0.2886  0.2540
 3350TIP3    H110014   6.720   1.817   0.916 -0.8979 -0.5115  0.7708
 3350TIP3    H210015   6.600   1.873   0.842 -0.1975 -0.8495 -0.6515
 3351TIP3   OH210016   4.271   2.637   0.859 -0.1230 -0.3161 -0.8081
 3351TIP3    H110017   4.320   2.595   0.930 -0.6143  0.5859  0.1000
 3351TIP3    H210018   4.180   2.615   0.878 -0.3352  0.6935 -0.6289
 3352TIP3   OH210019   0.449   3.617   2.049 -0.0190 -0.1395 -0.4044
 3352TIP3    H110020   0.469   3.692   2.105  1.1309 -0.8598  0.2015
 3352TIP3    H210021   0.375   3.574   2.093 -0.8202  0.7416 -0.8722
 3353TIP3   OH210022   3.836   5.332   2.602 -0.2799  0.2813  0.5248
 3353TIP3    H110023   3.915   5.374   2.636 -0.5517  0.6300  0.7383
 3353TIP3    H210024   3.766   5.394   2.623 -0.6221 -0.0711  0.4253
 3354TIP3   OH210025   1.019   3.337   1.808 -0.6222 -0.1391  0.2446
 3354TIP3    H110026   1.035   3.258   1.860 -1.4614  0.2163  1.0727
 3354TIP3    H210027   1.046   3.313   1.719 -2.2063 -1.8757  0.1719
 3355TIP3   OH210028   5.878   2.932   2.267 -0.1475 -0.0392 -0.1969
 3355TIP3    H110029   5.848   2.977   2.346  3.1151  1.8333  0.1578
 3355TIP3    H210030   5.854   2.990   2.196 -1.3459 -0.7856 -0.4305
 3356TIP3   OH210031   1.078   0.846   4.544  0.1330 -0.0543  0.3848
 3356TIP3    H110032   1.086   0.880   4.455  0.8696  0.8801  0.7787
 3356TIP3    H210033   1.080   0.925   4.599 -0.2411 -0.6233  1.2267
 3357TIP3   OH210034   2.976   1.665   4.143  0.5880  0.4875  0.7205
 3357TIP3    H110035   3.022   1.600   4.196 -0.4068 -0.1458  0.8224
 3357TIP3    H210036   2.949   1.618   4.064 -0.4385  0.6692  0.9433
 3358TIP3   OH210037   2.072   1.651   2.941  0.3461 -0.4084 -0.5151
 3358TIP3    H110038   2.157   1.618   2.914  0.7237 -0.1812  0.3617
 3358TIP3    H210039   2.092   1.733   2.988 -0.5138  0.7744 -2.1211
 3359TIP3   OH210040   4.011   4.762   5.601 -0.1050 -0.1831 -0.0303
 3359TIP3    H110041   3.960   4.815   5.540  1.7769  3.2275  1.1212
 3359TIP3    H210042   4.093   4.745   5.554  0.3032  0.1630  0.5482
 3360TIP3   OH210043   1.725   3.530   3.004 -0.0368  0.5180 -0.0014
 3360TIP3    H110044   1.767   3.471   2.941  0.6070  0.7345  0.2219
 3360TIP3    H210045   1.640   3.488   3.022  0.0814  0.0690 -0.4400
 3361TIP3   OH210046   0.990   2.582   0.906 -0.4012  0.3540  0.0424
 3361TIP3    H110047   0.962   2.665   0.946 -0.7508 -0.0089  0.5618
 3361TIP3    H210048   1.076   2.601   0.869  0.6809  0.3013  2.3665
 3362TIP3   OH210049   4.613   6.139   3.169 -0.2457 -1.0266  0.5465
 3362TIP3    H110050   4.558   6.130   3.247 -0.6412  3.5726  1.0557
 3362TIP3    H210051   4.558   6.183   3.105  1.5329 -0.2598 -0.5380
 3363TIP3   OH210052   6.707   4.782   5.736 -0.0875  0.0722  0.1199
 3363TIP3    H110053   6.768   4.765   5.664 -0.7262 -1.3159 -0.1243
 3363TIP3    H210054   6.627   4.811   5.693 -0.0584  0.5149  0.3589
 3364TIP3   OH210055   3.058   4.402   3.569  0.1254 -0.9376  0.2461
 3364TIP3    H110056   3.042   4.412   3.475  1.5836  3.3226  0.2055
 3364TIP3    H210057   3.095   4.314   3.577 -0.1130 -1.5154 -3.1337
 3365TIP3   OH210058   5.194   0.372   5.760  0.5718  0.3904  0.5291
 3365TIP3    H110059   5.227   0.452   5.800  0.7354  0.7326 -0.2923
 3365TIP3    H210060   5.271   0.329   5.723  0.3077  0.4748 -0.1262
 3366TIP3   OH210061   2.024   1.319   4.795  0.8676 -0.2220 -0.0127
 3366TIP3    H110062   2.105   1.272   4.778  1.4157  1.2211 -1.6871
 3366TIP3    H210063   2.050   1.396   4.844  0.5384  0.3000 -0.6402
 3367TIP3   OH210064   6.130   0.494   2.363 -0.5658  0.3149 -0.2106
 3367TIP3    H110065   6.123   0.492   2.267 -3.8848  1.8372 -0.1148
 3367TIP3    H210066   6.135   0.401   2.388 -2.8566 -0.3123 -1.7759
 3368TIP3   OH210067   7.115   4.749   5.615 -0.3036 -0.6858 -0.2130
 3368TIP3    H110068   7.080   4.663   5.593  0.0032 -0.9067  0.1489
 3368TIP3    H210069   7.135   4.744   5.708  0.9849 -0.6794 -0.4667
 3369TIP3   OH210070   6.796   3.254   4.585  0.0637  0.2499 -0.3303
 3369TIP3    H110071   6.830   3.170   4.554  0.8978 -0.3183  1.9185
 3369TIP3    H210072   6.790   3.244   4.680  0.4825  2.8264  0.0452
 3370TIP3   OH210073   2.432   4.742   0.777  0.1874  0.1471 -0.0377
 3370TIP3    H110074   2.385   4.806   0.724  1.9468  0.4261 -1.3402
 3370TIP3    H210075   2.442   4.666   0.720  0.6803 -0.1707  0.4622
 3371TIP3   OH210076   3.151   5.182   3.475  0.4807 -0.2756  0.0330
 3371TIP3    H110077   3.151   5.262   3.528  0.6700  0.0689 -0.4826
 3371TIP3    H210078   3.098   5.204   3.399  1.2273 -0.3619 -0.5206
 3372TIP3   OH210079   1.002   2.684   0.164 -0.1488 -0.3484  0.4602
 3372TIP3    H110080   0.957   2.691   0.080  0.8337  0.7780 -0.0090
 3372TIP3    H210081   0.931   2.685   0.229 -0.8607  0.4169 -0.2918
 3373TIP3   OH210082   4.911   4.783   3.695 -0.1767 -0.4912 -0.0683
 3373TIP3    H110083   4.927   4.752   3.784 -0.3435  1.4493  0.6748
 3373TIP3    H210084   4.845   4.722   3.660 -1.4715 -0.2341  1.7774
 3374TIP3   OH210085   0.449   6.006   1.049  0.2752  0.1067 -0.5330
 3374TIP3    H110086   0.536   6.045   1.058  0.7178 -0.6298 -1.4952
 3374TIP3    H210087   0.393   6.057   1.108  1.8017 -0.7996  1.8653
 3375TIP3   OH210088   0.028   5.118   5.121  0.0330  0.4617 -0.6707
 3375TIP3    H110089   0.102   5.059   5.108 -0.4129 -0.3447  0.2701
 3375TIP3    H210090   0.067   5.197   5.159  0.5464  0.4755 -1.2157
 3376TIP3   OH210091   4.384   2.898   1.160  0.1728 -0.0883  0.0203
 3376TIP3    H110092   4.426   2.903   1.246  0.3991 -3.6783  0.2615
 3376TIP3    H210093   4.448   2.853   1.105 -0.6293  0.6717 -1.5741
 3377TIP3   OH210094   0.577   3.700   0.772  0.4247 -0.1892  0.2443
 3377TIP3    H110095   0.575   3.682   0.678 -0.5884  0.2088  0.1695
 3377TIP3    H210096   0.667   3.682   0.799  0.6464 -0.5984 -0.7438
 3378TIP3   OH210097   2.294   3.104   2.564  0.3481  0.0591 -0.4152
 3378TIP3    H110098   2.279   3.028   2.508  2.3786 -0.7451  0.0439
 3378TIP3    H210099   2.379   3.137   2.537  1.2628 -0.1881  1.9639
 3379TIP3   OH210100   5.052   5.018   3.661 -0.2676  0.0951  0.4749
 3379TIP3    H110101   5.018   5.100   3.696 -1.6324 -0.6407  0.9424
 3379TIP3    H210102   4.987   4.952   3.686 -0.5834 -0.7151 -2.1592
 3380TIP3   OH210103   2.054   2.536   5.774  0.1037  0.0051 -0.1434
 3380TIP3    H110104   2.096   2.462   5.818 -0.4671 -0.6981 -0.7468
 3380TIP3    H210105   2.039   2.601   5.843 -0.7089 -1.0420  0.7021
 3381TIP3   OH210106   5.330   5.900   2.627 -0.5585 -0.5306 -0.3810
 3381TIP3    H110107   5.407   5.854   2.594  0.1824  1.3643 -1.4508
 3381TIP3    H210108   5.260   5.876   2.566 -0.2514 -0.4608 -0.7661
 3382TIP3   OH210109   4.090   1.050   5.660  0.1102 -0.3783  0.4231
 3382TIP3    H110110   4.094   1.075   5.753 -1.3860 -1.4450  0.8152
 3382TIP3    H210111   4.179   1.062   5.628  0.5614  0.4399  1.8812
 3383TIP3   OH210112   0.957   5.410   0.890 -0.0811  0.4508 -0.4256
 3383TIP3    H110113   0.981   5.404   0.982 -0.0518 -0.7334 -0.4898
 3383TIP3    H210114   0.865   5.436   0.891  0.0557  0.9312 -0.0783
 3384TIP3   OH210115   0.282   0.725   1.665  0.5325 -0.0100  0.1126
 3384TIP3    H110116   0.207   0.778   1.693  1.2746  1.3887 -0.4393
 3384TIP3    H210117   0.296   0.664   1.737  0.5211  1.4892  1.4509
 3385TIP3   OH210118   3.568   0.355   4.063  0.1472 -0.2515 -0.3270
 3385TIP3    H110119   3.474   0.339   4.068  0.0163  0.5132 -0.1990
 3385TIP3    H210120   3.601   0.289   4.002 -0.4493 -0.6067 -0.2668
 3386TIP3   OH210121   2.420   4.728   2.354  0.2162 -0.7755 -0.1777
 3386TIP3    H110122   2.514   4.715   2.342 -0.0073 -2.0059 -0.7237
 3386TIP3    H210123   2.406   4.715   2.448  0.7045  0.3076  0.0642
 3387TIP3   OH210124   1.373   2.908   3.571 -0.2661  0.3573 -0.7605
 3387TIP3    H110125   1.443   2.949   3.520  2.9561 -0.6192  2.4479
 3387TIP3    H210126   1.336   2.980   3.622 -1.1839  0.7468 -1.9249
 3388TIP3   OH210127   2.920   2.855   3.073  0.5244 -0.1968  0.0366
 3388TIP3    H110128   2.896   2.820   2.987  1.0531  2.0284 -1.1006
 3388TIP3    H210129   3.005   2.898   3.058  0.7860 -0.0634  1.7572
 3389TIP3   OH210130   1.354   4.269   2.092 -0.2519 -0.4044  0.3333
 3389TIP3    H110131   1.265   4.235   2.106 -0.7142  0.6847  0.2127
 3389TIP3    H210132   1.361   4.276   1.997 -0.1910 -0.1251  0.3569
 3390TIP3   OH210133   3.146   2.691   4.339  0.1500 -0.7037  0.4374
 3390TIP3    H110134   3.052   2.685   4.321 -0.0006  1.1148  0.4283
 3390TIP3    H210135   3.175   2.600   4.344 -1.3617 -1.3103 -0.8567
 3391TIP3   OH210136   6.422   3.463   0.372 -0.2569 -0.0037 -0.1231
 3391TIP3    H110137   6.438   3.378   0.414 -0.8534  0.1613  0.4589
 3391TIP3    H210138   6.409   3.442   0.280  2.4195 -0.2341 -0.5342
 3392TIP3   OH210139   1.376   6.385   5.742  0.2560 -0.1687 -0.2508
 3392TIP3    H110140   1.324   6.330   5.802  0.3237  0.7866  0.7205
 3392TIP3    H210141   1.320   6.461   5.725  0.7682  0.1897 -0.3404
 3393TIP3   OH210142   1.012   1.978   4.424  0.0652 -0.7859 -0.5070
 3393TIP3    H110143   1.083   1.929   4.466  1.2807  1.9288  0.8798
 3393TIP3    H210144   1.044   1.996   4.336  0.7766 -0.2377 -0.1439
 3394TIP3   OH210145   0.114   0.858   3.507 -0.2751 -0.0630 -0.5139
 3394TIP3    H110146   0.168   0.816   3.440  0.9833  0.0182  0.4069
 3394TIP3    H210147   0.124   0.952   3.492 -0.6930 -0.0532 -0.7420
 3395TIP3   OH210148   4.280   0.932   1.355 -0.2759  0.2632  0.4289
 3395TIP3    H110149   4.269   0.856   1.412  0.2401  1.1308  1.7270
 3395TIP3    H210150   4.358   0.976   1.388 -0.7819  1.5663 -0.0454
 3396TIP3   OH210151   4.785   1.820   2.490 -0.2850  0.1590 -0.2568
 3396TIP3    H110152   4.844   1.892   2.512  0.2517 -0.9432  2.2157
 3396TIP3    H210153   4.724   1.816   2.563 -1.9104 -0.3379 -1.5699
 3397TIP3   OH210154   4.921   5.424   0.284  0.1003  0.0133  0.1473
 3397TIP3    H110155   5.005   5.424   0.238 -1.1733 -2.4562 -2.4959
 3397TIP3    H210156   4.867   5.363   0.235 -3.1878  1.2249  1.9542
 3398TIP3   OH210157   1.686   5.807   1.852 -0.2535  0.1384  0.2164
 3398TIP3    H110158   1.778   5.813   1.876 -0.1693  1.0380 -0.3068
 3398TIP3    H210159   1.685   5.816   1.757 -0.6768 -2.3054 -0.0955
 3399TIP3   OH210160   3.412   2.462   5.885  0.6203  0.8776 -0.4000
 3399TIP3    H110161   3.426   2.518   5.809 -1.8566  1.9724 -0.1411
 3399TIP3    H210162   3.497   2.458   5.928  1.8679  0.9090 -2.7343
 3400TIP3   OH210163   3.817   2.837   2.555  0.0296 -0.1206  0.3680
 3400TIP3    H110164   3.851   2.926   2.559  2.5559 -0.8926 -1.5479
 3400TIP3    H210165   3.835   2.801   2.642 -0.3351  0.9886  0.9215
 3401TIP3   OH210166   3.466   1.022   5.106 -0.4116  0.0837  0.8472
 3401TIP3    H110167   3.404   0.978   5.165 -1.3882 -0.0293 -0.2357
 3401TIP3    H210168   3.477   1.109   5.144 -1.5105  0.2236  0.8735
 3402TIP3   OH210169   6.680   6.505   1.361  0.3128  0.0864 -0.2392
 3402TIP3    H110170   6.594   6.542   1.383  0.0873 -0.7553  0.3531
 3402TIP3    H210171   6.660   6.428   1.309  0.6998 -0.2526  0.1063
 3403TIP3   OH210172   2.543   1.168   3.215  0.3034  0.4316 -0.0316
 3403TIP3    H110173   2.558   1.100   3.149  0.8907 -0.7561  1.2627
 3403TIP3    H210174   2.630   1.204   3.231  0.1517  0.7767  0.0085
 3404TIP3   OH210175   3.269   3.487   0.729 -0.0990 -0.0747  0.0279
 3404TIP3    H110176   3.333   3.424   0.696 -0.6762 -0.6820  0.0430
 3404TIP3    H210177   3.318   3.540   0.791  0.6303  0.1064 -0.6854
 3405TIP3   OH210178   3.948   3.094   1.186  0.7561 -0.1538  0.0460
 3405TIP3    H110179   3.944   3.160   1.255  0.8884 -0.5229  0.4144
 3405TIP3    H210180   3.981   3.015   1.230 -1.2334 -1.0346  0.0573
 3406TIP3   OH210181   2.898   5.427   3.273  0.6164 -0.3241 -0.0407
 3406TIP3    H110182   2.906   5.511   3.227  0.5433 -0.9734 -1.2639
 3406TIP3    H210183   2.858   5.451   3.357 -1.6235  0.6108 -1.2820
 3407TIP3   OH210184   6.945   2.851   0.351 -0.0415  0.0016 -0.1985
 3407TIP3    H110185   6.943   2.756   0.362 -0.5897  0.2576  2.5294
 3407TIP3    H210186   7.027   2.869   0.305  1.3143 -1.6354  1.4307
 3408TIP3   OH210187   5.249   2.307   3.349 -0.2843 -0.0644 -0.3885
 3408TIP3    H110188   5.165   2.321   3.304 -1.8926  1.6591  2.8322
 3408TIP3    H210189   5.314   2.335   3.284 -2.1188 -1.1727 -2.9131
 3409TIP3   OH210190   2.263   4.133   1.985 -0.4807 -0.0625  0.3168
 3409TIP3    H110191   2.277   4.103   1.895 -0.1082  1.7468 -0.2797
 3409TIP3    H210192   2.182   4.184   1.981  0.3078  1.2770  0.6443
 3410TIP3   OH210193   2.667   4.039   4.651  0.1348  0.2090 -0.3919
 3410TIP3    H110194   2.762   4.046   4.637  0.1157  1.0657 -0.1743
 3410TIP3    H210195   2.630   4.032   4.564  0.5374 -2.5424 -0.4232
 3411TIP3   OH210196   3.094   1.585   1.247  0.0155  0.6188 -0.2658
 3411TIP3    H110197   3.069   1.654   1.309  0.8903 -0.5168  1.4063
 3411TIP3    H210198   3.115   1.510   1.301  2.1729 -0.0294 -1.8724
 3412TIP3   OH210199   4.384   1.611   4.338 -0.0921  0.1162  0.8199
 3412TIP3    H110200   4.450   1.659   4.287 -0.3112  1.3173  1.6055
 3412TIP3    H210201   4.370   1.530   4.289 -0.3023  1.2018 -1.0392
 3413TIP3   OH210202   2.618   4.588   2.077 -0.1488  0.2267  0.1724
 3413TIP3    H110203   2.578   4.502   2.063 -0.3235  0.2097  0.7638
 3413TIP3    H210204   2.636   4.592   2.171 -0.4445  0.9636  0.2078
 3414TIP3   OH210205   5.340   3.886   2.792 -0.2904 -0.0011  0.2048
 3414TIP3    H110206   5.341   3.812   2.732 -0.2713  1.6289 -1.9198
 3414TIP3    H210207   5.421   3.879   2.842  0.8708 -0.1392 -1.6323
 3415TIP3   OH210208   3.375   4.177   1.594  0.1948 -0.1668 -0.1482
 3415TIP3    H110209   3.350   4.170   1.502 -0.1415 -0.3981 -0.0421
 3415TIP3    H210210   3.464   4.141   1.598  0.2334 -0.0939 -0.3938
 3416TIP3   OH210211   1.985   1.736   1.337  0.6178  0.0411  0.2284
 3416TIP3    H110212   1.911   1.722   1.278  0.1418  1.4651  0.4314
 3416TIP3    H210213   2.022   1.820   1.309  1.2142  0.0904  1.1084
 3417TIP3   OH210214   7.161   2.622   5.038  0.1168 -0.1533  0.3398
 3417TIP3    H110215   7.067   2.625   5.052  0.3102  1.0273  1.6564
 3417TIP3    H210216   7.175   2.546   4.981 -1.6834  0.1164 -0.5386
 3418TIP3   OH210217   5.188   5.356   3.719  0.2480 -0.1934  0.6353
 3418TIP3    H110218   5.221   5.382   3.805  0.4673 -0.4183  0.6195
 3418TIP3    H210219   5.110   5.304   3.737  0.0022  0.1841  0.6790
 3419TIP3   OH210220   5.383   0.300   5.485  0.2981  0.1332 -0.3644
 3419TIP3    H110221   5.425   0.241   5.423  0.2096 -0.0965 -0.2095
 3419TIP3    H210222   5.430   0.286   5.567 -0.2816 -0.3525 -0.1138
 3420TIP3   OH210223   5.262   4.296   5.274 -0.6877  0.3955 -0.6412
 3420TIP3    H110224   5.257   4.391   5.279  2.0476  0.8537 -3.4352
 3420TIP3    H210225   5.324   4.271   5.342 -2.5534  0.3307  1.1282
 3421TIP3   OH210226   4.335   0.630   0.732 -0.1755 -0.4369 -0.5214
 3421TIP3    H110227   4.287   0.649   0.813  0.0404 -0.8825 -0.2877
 3421TIP3    H210228   4.317   0.705   0.675 -0.6733 -0.3243 -0.2174
 3422TIP3   OH210229   6.928   1.076   2.563 -0.0670 -0.2046 -0.1846
 3422TIP3    H110230   6.905   1.078   2.470  0.6516 -1.5735 -0.4027
 3422TIP3    H210231   6.917   0.985   2.589 -0.7275  0.2458  1.2131
 3423TIP3   OH210232   5.976   5.104   1.783 -0.2258 -0.1955 -0.1489
 3423TIP3    H110233   5.979   5.075   1.874 -0.8516 -1.7667 -0.5903
 3423TIP3    H210234   6.056   5.068   1.744 -0.1340  0.1740 -0.3082
 3424TIP3   OH210235   1.698   3.326   0.978  0.5169 -0.1300 -0.2021
 3424TIP3    H110236   1.669   3.245   1.019  1.8390 -0.8100 -0.5638
 3424TIP3    H210237   1.727   3.381   1.050 -0.9314  0.2992  0.1023
 3425TIP3   OH210238   1.424   0.209   4.777 -0.2031 -0.4475  0.0951
 3425TIP3    H110239   1.429   0.260   4.696  0.2947  2.3057  1.7350
 3425TIP3    H210240   1.331   0.184   4.783 -0.1915 -1.0093 -1.4318
 3426TIP3   OH210241   5.535   2.145   5.439 -0.2203  0.4071 -0.0231
 3426TIP3    H110242   5.490   2.082   5.382  0.0981 -0.4178  0.6146
 3426TIP3    H210243   5.536   2.226   5.389 -1.6286  0.2073 -0.4199
 3427TIP3   OH210244   1.863   2.563   1.053  0.5866  0.0493  0.1525
 3427TIP3    H110245   1.771   2.547   1.071  0.5349 -0.3293 -0.4173
 3427TIP3    H210246   1.866   2.655   1.024  0.0945 -0.4572 -1.6213
 3428TIP3   OH210247   2.340   6.509   2.133  0.2288 -1.0591  0.2217
 3428TIP3    H110248   2.293   6.591   2.113  1.2050 -0.5929 -0.2466
 3428TIP3    H210249   2.330   6.498   2.227 -0.0518 -0.4816  0.2634
 3429TIP3   OH210250   4.308   5.979   5.610  0.1090  0.5051  0.0807
 3429TIP3    H110251   4.353   5.895   5.619  1.1263  0.7732 -1.9471
 3429TIP3    H210252   4.216   5.957   5.621  0.3250 -0.9542 -0.6858
 3430TIP3   OH210253   5.063   1.991   0.202  0.2512  0.0803  1.0321
 3430TIP3    H110254   5.021   1.909   0.229 -1.3523  0.8309  0.9712
 3430TIP3    H210255   4.996   2.035   0.150  1.5595  0.8538 -0.0600
 3431TIP3   OH210256   0.927   5.672   1.034 -0.1377 -0.1837  0.0042
 3431TIP3    H110257   0.857   5.623   0.991 -0.1426  0.1768 -0.4028
 3431TIP3    H210258   0.969   5.609   1.092 -0.0294 -0.7156 -0.6444
 3432TIP3   OH210259   3.440   2.677   5.699 -0.3592  0.0461 -0.1350
 3432TIP3    H110260   3.526   2.669   5.657 -0.6014  0.2857 -0.6881
 3432TIP3    H210261   3.394   2.744   5.648  0.0187  1.7895  1.6571
 3433TIP3   OH210262   1.813   1.921   2.812 -0.0817  0.3744  0.2172
 3433TIP3    H110263   1.847   1.851   2.868 -1.7141 -0.6571 -0.0304
 3433TIP3    H210264   1.721   1.929   2.837 -1.1263 -0.7303 -2.8540
 3434TIP3   OH210265   5.420   2.685   5.180  0.4227 -0.5868 -0.3952
 3434TIP3    H110266   5.335   2.718   5.209  0.1397 -0.1247 -1.6780
 3434TIP3    H210267   5.484   2.733   5.233 -0.0573  0.4521 -0.7490
 3435TIP3   OH210268   4.517   4.814   3.146  0.3058 -0.1905 -0.4647
 3435TIP3    H110269   4.454   4.774   3.086  0.3585  0.6323 -1.0786
 3435TIP3    H210270   4.603   4.784   3.115  0.3203  0.0550 -0.6566
 3436TIP3   OH210271   3.548   1.551   5.280  0.2021  0.1048 -0.4306
 3436TIP3    H110272   3.502   1.634   5.273 -2.3116 -1.2962 -1.7280
 3436TIP3    H210273   3.590   1.539   5.195  0.5934  0.0194 -0.2336
 3437TIP3   OH210274   0.037   1.670   4.467 -0.1293 -0.2541 -0.1630
 3437TIP3    H110275   0.091   1.738   4.509  1.1430 -1.4776  0.2648
 3437TIP3    H210276  -0.012   1.631   4.539 -0.1023 -0.4454 -0.2470
 3438TIP3   OH210277   5.295   3.250   0.649  0.0321 -0.1885  0.2374
 3438TIP3    H110278   5.383   3.214   0.636 -0.2693 -0.2515 -1.9996
 3438TIP3    H210279   5.306   3.318   0.715  1.5363 -0.9446  0.8133
 3439TIP3   OH210280   0.785   6.401   0.432 -0.0932 -0.0221  0.3046
 3439TIP3    H110281   0.807   6.473   0.491  0.0325 -0.1004  0.3539
 3439TIP3    H210282   0.725   6.346   0.482  0.7191 -0.5691  0.6880
 3440TIP3   OH210283   3.906   4.268   1.516  0.0444 -0.3283  0.2034
 3440TIP3    H110284   3.869   4.200   1.459 -0.3262  0.3800 -0.4059
 3440TIP3    H210285   3.861   4.348   1.490  0.9246  0.2724  0.5015
 3441TIP3   OH210286   4.777   3.403   5.806 -0.6215  0.3453 -0.5987
 3441TIP3    H110287   4.736   3.318   5.793 -0.6772  0.2465  0.1482
 3441TIP3    H210288   4.706   3.466   5.797 -0.6041  0.3033 -1.0294
 3442TIP3   OH210289   5.798   0.569   2.097 -0.3397  0.0983 -0.1733
 3442TIP3    H110290   5.888   0.541   2.083 -0.8470 -1.5832 -0.2963
 3442TIP3    H210291   5.750   0.488   2.114 -2.2698  0.6521 -2.4285
 3443TIP3   OH210292   6.336   5.582   4.912 -0.4499 -0.3297  0.4842
 3443TIP3    H110293   6.255   5.610   4.870 -0.9806 -1.9402  0.3569
 3443TIP3    H210294   6.324   5.489   4.929  1.3535 -0.6068  0.5303
 3444TIP3   OH210295   6.296   4.407   5.571  0.3961 -0.2904 -0.0740
 3444TIP3    H110296   6.245   4.331   5.542  1.1592 -1.0980  0.6245
 3444TIP3    H210297   6.324   4.384   5.659  0.3878  0.9553  0.2672
 3445TIP3   OH210298   0.994   6.340   4.753 -0.0651  0.1881  0.2459
 3445TIP3    H110299   1.025   6.251   4.733 -1.8584 -0.0311 -1.9970
 3445TIP3    H210300   1.055   6.397   4.707  0.4242  0.0810  0.7481
 3446TIP3   OH210301   1.310   3.116   1.914 -0.2642  0.4178 -0.0748
 3446TIP3    H110302   1.248   3.189   1.915  0.1543  0.7827 -0.3432
 3446TIP3    H210303   1.369   3.134   1.988 -0.7859 -0.2080  0.5139
 3447TIP3   OH210304   0.303   1.291   1.452 -0.0454 -1.0244  0.3998
 3447TIP3    H110305   0.391   1.257   1.466 -0.2303 -1.4413  0.5691
 3447TIP3    H210306   0.307   1.336   1.367 -0.3143 -3.2826 -0.8822
 3448TIP3   OH210307   1.695   1.891   5.528 -0.6178 -0.8563 -0.2984
 3448TIP3    H110308   1.603   1.898   5.554 -0.4299 -1.4545  0.5970
 3448TIP3    H210309   1.732   1.977   5.545 -0.7334 -0.9612  0.5232
 3449TIP3   OH210310   4.675   0.059   5.414  0.0547  0.2285 -0.0687
 3449TIP3    H110311   4.759   0.047   5.457 -0.5981 -0.0358  1.1629
 3449TIP3    H210312   4.681   0.146   5.374  1.0983 -0.0074 -0.4542
 3450TIP3   OH210313   2.329   5.590   0.883 -0.0802  0.3134  0.2730
 3450TIP3    H110314   2.331   5.563   0.975 -1.2423 -0.9025 -0.0357
 3450TIP3    H210315   2.314   5.684   0.886  1.7607  0.6207  1.3433
 3451TIP3   OH210316   1.344   5.252   0.501 -0.0998  0.3894  1.5691
 3451TIP3    H110317   1.330   5.169   0.547  0.6250  0.1642  1.3988
 3451TIP3    H210318   1.332   5.230   0.409  0.4728  0.3844  1.4928
 3452TIP3   OH210319   6.659   6.086   4.107 -0.3437  0.2959 -0.1172
 3452TIP3    H110320   6.619   6.005   4.078  1.0400 -0.4444 -0.0295
 3452TIP3    H210321   6.677   6.135   4.026 -2.1024  1.0106 -0.1229
 3453TIP3   OH210322   0.080   0.122   5.007  1.3315  0.1716 -0.2211
 3453TIP3    H110323   0.030   0.087   4.933  1.0065  2.5435 -1.2041
 3453TIP3    H210324   0.167   0.139   4.970  0.5741  3.4309 -0.8189
 3454TIP3   OH210325   2.653   1.207   4.457 -0.2285  0.1603  0.3115
 3454TIP3    H110326   2.632   1.234   4.546 -0.7190  0.1790  0.1919
 3454TIP3    H210327   2.749   1.198   4.456 -0.2271  0.1231  0.8460
 3455TIP3   OH210328   5.707   5.165   1.614  0.4207  0.5760  0.1834
 3455TIP3    H110329   5.766   5.194   1.545 -0.1862  0.1719 -0.5233
 3455TIP3    H210330   5.638   5.230   1.616 -0.0701  0.0848 -0.2685
 3456TIP3   OH210331   5.230   5.549   2.798 -0.0896 -0.2206  0.2315
 3456TIP3    H110332   5.186   5.584   2.721  0.0821  0.0868  0.2733
 3456TIP3    H210333   5.266   5.465   2.768  0.8431  0.3547 -0.3223
 3457TIP3   OH210334   1.605   5.751   2.413 -0.1335 -0.2562  0.7693
 3457TIP3    H110335   1.674   5.773   2.350  0.1094 -1.0624  0.7390
 3457TIP3    H210336   1.534   5.813   2.394  0.9345  1.2367  1.4501
 3458TIP3   OH210337   0.481   0.913   1.786  0.1709 -0.4712  0.1802
 3458TIP3    H110338   0.425   0.906   1.708 -0.4247  1.4102  0.3898
 3458TIP3    H210339   0.434   0.864   1.854 -0.4353 -0.2174 -0.0509
 3459TIP3   OH210340   2.457   3.386   0.221 -0.1860  0.2749 -0.2564
 3459TIP3    H110341   2.528   3.447   0.204 -0.5798  0.9200  0.3549
 3459TIP3    H210342   2.397   3.398   0.147 -0.1812  0.5080 -0.2240
 3460TIP3   OH210343   3.389   6.351   1.073  0.1063  0.1864  0.6296
 3460TIP3    H110344   3.395   6.435   1.118 -0.1752 -0.7954  2.5842
 3460TIP3    H210345   3.478   6.335   1.041  0.3679  0.7995  1.0327
 3461TIP3   OH210346   1.987   0.147   5.079  0.3082  0.2095 -0.5077
 3461TIP3    H110347   2.004   0.192   4.996 -0.3182 -0.2383 -0.8947
 3461TIP3    H210348   1.894   0.164   5.097 -0.0876 -1.2953 -0.9319
 3462TIP3   OH210349   6.186   0.856   1.489 -0.1407 -0.3374  0.4236
 3462TIP3    H110350   6.207   0.886   1.400  2.6353 -0.2967  0.9982
 3462TIP3    H210351   6.146   0.932   1.531  1.2973  0.6574  0.0625
 3463TIP3   OH210352   6.810   0.085   0.393  0.2257  0.0038 -0.0261
 3463TIP3    H110353   6.819   0.179   0.376 -3.5472  0.8145  1.4460
 3463TIP3    H210354   6.747   0.055   0.327  0.3489 -1.2132  0.3842
 3464TIP3   OH210355   2.351   3.087   1.975 -0.6286 -0.1209 -0.5495
 3464TIP3    H110356   2.436   3.083   1.932 -1.2305 -0.3581 -1.7588
 3464TIP3    H210357   2.292   3.123   1.909 -1.9806 -2.2460 -0.6098
 3465TIP3   OH210358   6.510   2.723   4.573  0.5477  0.0614  0.3901
 3465TIP3    H110359   6.563   2.662   4.624 -0.3711 -0.7550  0.3932
 3465TIP3    H210360   6.433   2.741   4.628 -0.9953 -1.6735 -1.0623
 3466TIP3   OH210361   2.535   3.900   5.184 -0.2438  0.0747  0.4876
 3466TIP3    H110362   2.559   3.832   5.121 -0.7565 -1.1310  1.5484
 3466TIP3    H210363   2.517   3.977   5.131  0.4312 -0.5976 -0.7450
 3467TIP3   OH210364   2.141   1.782   0.820  0.6386 -0.0924 -0.1261
 3467TIP3    H110365   2.184   1.774   0.905  0.3599 -1.5088 -0.0935
 3467TIP3    H210366   2.136   1.693   0.787 -1.4697  0.1194 -0.5313
 3468TIP3   OH210367   1.299   4.396   2.790  0.3823  0.0029 -0.0006
 3468TIP3    H110368   1.358   4.379   2.716 -1.9275 -2.0384 -1.4982
 3468TIP3    H210369   1.311   4.321   2.848 -0.6090 -0.3577 -0.2483
 3469TIP3   OH210370   2.099   6.657   4.789 -0.2510 -0.4085 -0.2033
 3469TIP3    H110371   2.105   6.736   4.843 -1.0850  0.1282 -0.8760
 3469TIP3    H210372   2.079   6.689   4.701  0.6116 -1.3006 -0.7557
 3470TIP3   OH210373   0.125   3.539   5.803 -0.3761  0.0412  0.6036
 3470TIP3    H110374   0.115   3.591   5.883 -3.1050 -0.0838  0.4140
 3470TIP3    H210375   0.121   3.602   5.732 -1.1996 -0.1483  0.4697
 3471TIP3   OH210376   6.172   5.609   5.844  0.3501 -0.5571 -0.3228
 3471TIP3    H110377   6.129   5.673   5.901 -0.5972 -1.5214  0.0851
 3471TIP3    H210378   6.225   5.661   5.784 -1.1154  0.6719 -0.6040
 3472TIP3   OH210379   0.324   2.792   3.666  0.4188 -0.0746  0.2900
 3472TIP3    H110380   0.390   2.776   3.734  0.4632  0.3342  0.3440
 3472TIP3    H210381   0.264   2.854   3.705 -0.9281 -1.6440  0.8415
 3473TIP3   OH210382   3.301   4.888   4.612 -0.2842  0.8101  0.2688
 3473TIP3    H110383   3.267   4.938   4.686 -2.6733 -0.8999  0.4377
 3473TIP3    H210384   3.225   4.875   4.555  1.2349  1.0487 -1.9275
 3474TIP3   OH210385   4.795   1.844   2.219 -0.4972 -0.2427  0.4276
 3474TIP3    H110386   4.770   1.937   2.220  0.0267 -0.0350 -1.7021
 3474TIP3    H210387   4.813   1.823   2.311 -0.3751  1.8314  0.9252
 3475TIP3   OH210388   2.907   4.417   3.926 -0.3564 -0.4014  0.1211
 3475TIP3    H110389   3.002   4.419   3.922 -0.4075  0.1787 -1.2816
 3475TIP3    H210390   2.881   4.509   3.938 -0.7431 -0.6009  0.9248
 3476TIP3   OH210391   5.076   1.992   3.968 -0.2929  0.0037  0.2523
 3476TIP3    H110392   5.018   2.068   3.967 -1.1226 -0.6137 -0.1285
 3476TIP3    H210393   5.017   1.917   3.957  0.5117 -0.6932  0.5978
 3477TIP3   OH210394   6.238   4.111   1.580  0.2382 -0.3321  0.3144
 3477TIP3    H110395   6.311   4.095   1.640  0.3430 -1.3346 -0.0595
 3477TIP3    H210396   6.197   4.026   1.568 -0.8272  0.1634  0.2840
 3478TIP3   OH210397   6.903   5.614   2.416  0.5474  0.0626 -0.2768
 3478TIP3    H110398   6.829   5.588   2.471 -0.3763  0.6167 -1.2361
 3478TIP3    H210399   6.958   5.667   2.475  0.5656 -0.9478  0.6421
 3479TIP3   OH210400   1.704   2.339   2.588  0.5084 -0.2178 -0.0057
 3479TIP3    H110401   1.684   2.281   2.514 -0.1907 -0.3614  0.2905
 3479TIP3    H210402   1.726   2.279   2.659  0.7037 -0.0912  0.0408
 3480TIP3   OH210403   1.165   2.246   1.135 -1.0924  0.3632  0.5832
 3480TIP3    H110404   1.084   2.258   1.085  0.6182  0.2664 -2.4285
 3480TIP3    H210405   1.200   2.334   1.147 -0.4421  0.2384 -0.3189
 3481TIP3   OH210406   5.907   0.399   2.903 -0.0667 -0.3134  0.1791
 3481TIP3    H110407   5.952   0.315   2.912 -0.9121 -0.8534 -0.4953
 3481TIP3    H210408   5.953   0.458   2.963  0.1957 -1.3939  1.0636
 3482TIP3   OH210409   4.158   1.626   2.921  0.5713  0.4599  0.2298
 3482TIP3    H110410   4.108   1.662   2.994 -1.8922  1.1811 -1.7032
 3482TIP3    H210411   4.159   1.696   2.856  0.9567 -0.8479 -1.2257
 3483TIP3   OH210412   1.751   1.722   2.202  0.2079 -0.3032 -0.0501
 3483TIP3    H110413   1.758   1.693   2.111  0.8467 -1.9463  0.5016
 3483TIP3    H210414   1.806   1.662   2.251  1.8989  2.0674  1.1351
 3484TIP3   OH210415   2.534   5.018   0.889 -0.0063 -0.1926  0.1195
 3484TIP3    H110416   2.623   5.004   0.921  0.5703  0.0396 -1.3335
 3484TIP3    H210417   2.506   4.931   0.858  0.5622  0.1458 -1.4427
 3485TIP3   OH210418   5.036   3.280   1.196  0.7346  0.0810 -0.1359
 3485TIP3    H110419   5.038   3.197   1.245  0.0349 -0.6178 -1.2430
 3485TIP3    H210420   5.083   3.261   1.115 -0.8357  0.2610 -1.1255
 3486TIP3   OH210421   6.950   3.225   2.597 -0.2382 -0.6255 -0.3056
 3486TIP3    H110422   6.908   3.302   2.558  2.5838  1.5098  0.5253
 3486TIP3    H210423   7.001   3.187   2.526 -1.5532 -1.7499 -0.6898
 3487TIP3   OH210424   1.435   3.232   2.372 -0.5761  0.2149 -0.6630
 3487TIP3    H110425   1.402   3.304   2.426 -1.7232 -0.3889 -0.5258
 3487TIP3    H210426   1.421   3.154   2.425  2.0309 -0.0250 -0.1736
 3488TIP3   OH210427   1.155   0.221   2.561  0.4638  0.6178 -0.2661
 3488TIP3    H110428   1.138   0.315   2.572  1.3275  0.8666 -0.9356
 3488TIP3    H210429   1.188   0.213   2.471 -0.9680 -0.5340 -0.7217
 3489TIP3   OH210430   7.115   1.077   3.581 -0.2459  0.5113 -0.3111
 3489TIP3    H110431   7.200   1.110   3.554  0.1204 -0.9331 -1.0303
 3489TIP3    H210432   7.093   1.127   3.660  1.4506  0.6096  0.1249
 3490TIP3   OH210433   0.027   4.531   3.747 -0.3487  0.4121 -0.2808
 3490TIP3    H110434  -0.027   4.609   3.735 -2.2295 -0.8479 -0.5366
 3490TIP3    H210435   0.019   4.484   3.664  0.0855 -0.4364  0.1422
 3491TIP3   OH210436   5.643   5.338   3.893  0.0330  0.2777  0.0868
 3491TIP3    H110437   5.730   5.298   3.902 -0.2518 -0.3289  0.1837
 3491TIP3    H210438   5.623   5.330   3.800 -0.6254 -1.1118  0.3201
 3492TIP3   OH210439   2.694   2.718   0.530  0.6373  0.4831 -0.1116
 3492TIP3    H110440   2.640   2.794   0.506 -0.5902  0.0851  1.2739
 3492TIP3    H210441   2.631   2.653   0.561  1.9556  0.3710  2.5581
 3493TIP3   OH210442   4.756   2.298   0.512  0.0492  0.0058  0.2719
 3493TIP3    H110443   4.832   2.272   0.460 -0.2894 -1.5512  0.4860
 3493TIP3    H210444   4.689   2.319   0.446  0.2187 -0.0370  0.0840
 3494TIP3   OH210445   0.585   3.984   0.183  0.2614  0.2096 -0.1054
 3494TIP3    H110446   0.514   3.998   0.120 -1.3776  0.4170  1.7030
 3494TIP3    H210447   0.647   4.055   0.165  0.5033 -0.4748 -2.2827
 3495TIP3   OH210448   1.294   2.064   2.786 -0.6290 -0.0464  0.4732
 3495TIP3    H110449   1.294   2.160   2.793 -1.5725  0.0198 -0.1616
 3495TIP3    H210450   1.345   2.034   2.860  2.2750  1.0504 -0.9287
 3496TIP3   OH210451   5.704   6.219   3.819  0.1490 -0.0827  0.0751
 3496TIP3    H110452   5.646   6.244   3.892  1.7787  0.5792  1.2064
 3496TIP3    H210453   5.712   6.299   3.767  1.3116  0.3275  0.8448
 3497TIP3   OH210454   1.355   5.091   3.734  0.1705 -0.4820 -0.2470
 3497TIP3    H110455   1.425   5.041   3.691 -0.4613 -0.9407 -0.7719
 3497TIP3    H210456   1.371   5.182   3.709  1.3273 -0.4158  0.6994
 3498TIP3   OH210457   2.837   0.989   4.919  0.1220  0.0905  0.4046
 3498TIP3    H110458   2.849   0.906   4.965 -0.0982  0.1049  0.4874
 3498TIP3    H210459   2.889   1.052   4.969  0.0282  0.0688  0.5302
 3499TIP3   OH210460   5.281   4.716   0.153 -0.3387  0.4768  0.4938
 3499TIP3    H110461   5.356   4.753   0.199  0.9893 -1.8518  0.3816
 3499TIP3    H210462   5.286   4.752   0.065  0.8465  0.1422  0.4132
 3500TIP3   OH210463   0.555   1.816   5.009  0.6670  0.9077  0.0415
 3500TIP3    H110464   0.535   1.910   5.004 -0.1968  0.7396  0.2895
 3500TIP3    H210465   0.507   1.785   5.085  0.9317  0.2549 -0.0505
 3501TIP3   OH210466   7.148   2.204   1.310 -0.2450 -0.5204  0.2642
 3501TIP3    H110467   7.185   2.181   1.225 -0.4044  0.3732 -0.0609
 3501TIP3    H210468   7.118   2.121   1.347 -0.3407 -0.8926 -0.6313
 3502TIP3   OH210469   2.326   0.678   5.064  0.2523 -0.2773 -0.0988
 3502TIP3    H110470   2.295   0.702   5.151 -0.6151 -0.4035 -0.3578
 3502TIP3    H210471   2.352   0.587   5.072 -3.5956 -1.6380 -0.8363
 3503TIP3   OH210472   0.751   5.183   3.926  0.0167 -0.1690  0.1384
 3503TIP3    H110473   0.689   5.248   3.893  0.7299  1.4488  1.7305
 3503TIP3    H210474   0.741   5.107   3.869 -2.0485  0.7355 -0.7948
 3504TIP3   OH210475   6.152   0.111   1.037 -0.0919 -0.2472  0.1706
 3504TIP3    H110476   6.099   0.163   0.977 -1.0247 -0.0558  1.1103
 3504TIP3    H210477   6.093   0.042   1.068  0.3355 -0.3057  0.8992
 3505TIP3   OH210478   0.698   5.960   1.536  0.2036 -0.0283  0.5315
 3505TIP3    H110479   0.640   6.015   1.484  1.0817  0.7573  0.3586
 3505TIP3    H210480   0.640   5.911   1.594 -0.6844  0.1255 -0.2140
 3506TIP3   OH210481   5.839   6.681   4.217 -0.1439  0.5875  0.2063
 3506TIP3    H110482   5.839   6.613   4.150 -2.6512  1.3143 -0.6414
 3506TIP3    H210483   5.751   6.677   4.255  0.0979  2.4514  1.0606
 3507TIP3   OH210484   6.331   2.769   3.749  0.3800  0.0264  0.1035
 3507TIP3    H110485   6.240   2.767   3.777  0.4313 -0.0489  0.2679
 3507TIP3    H210486   6.344   2.687   3.702  0.2126  0.2874 -0.4008
 3508TIP3   OH210487   4.953   6.393   4.915 -0.4735  0.0772  0.1299
 3508TIP3    H110488   5.007   6.402   4.994  1.7177 -1.2283 -1.1213
 3508TIP3    H210489   4.888   6.326   4.938 -1.4590  1.4336  1.5465
 3509TIP3   OH210490   1.968   2.736   3.314 -0.1128 -0.1459  0.0636
 3509TIP3    H110491   1.959   2.728   3.219 -0.1808 -0.8886  0.1262
 3509TIP3    H210492   1.880   2.754   3.345 -0.7092 -2.8981  0.2468
 3510TIP3   OH210493   2.100   0.265   0.628 -0.8076 -0.1510  0.1678
 3510TIP3    H110494   2.159   0.260   0.703 -1.7927  1.2298  1.0879
 3510TIP3    H210495   2.026   0.319   0.659 -0.1359  2.5638 -2.4692
 3511TIP3   OH210496   0.369   5.911   3.491 -0.1158 -0.6066 -0.2531
 3511TIP3    H110497   0.406   5.822   3.490 -0.9400 -1.0029  1.0395
 3511TIP3    H210498   0.392   5.948   3.405  1.9703 -1.3277 -0.0644
 3512TIP3   OH210499   3.108   0.822   4.655 -0.2648  0.3926  0.2649
 3512TIP3    H110500   3.162   0.843   4.731  0.0519 -1.1789  0.5078
 3512TIP3    H210501   3.160   0.759   4.605 -0.3068  1.6475 -1.4869
 3513TIP3   OH210502   1.658   5.361   3.566  0.8937  0.1841 -0.2598
 3513TIP3    H110503   1.704   5.417   3.504  2.7793 -0.5869  0.3413
 3513TIP3    H210504   1.653   5.276   3.522  1.9144 -0.2676  0.4430
 3514TIP3   OH210505   4.004   5.898   3.350 -0.2146  0.0386  0.0373
 3514TIP3    H110506   3.952   5.818   3.342 -0.2826 -0.0220  0.9872
 3514TIP3    H210507   3.960   5.949   3.418  0.0719  0.6972 -0.2611
 3515TIP3   OH210508   6.645   3.887   5.034 -0.2757 -0.3095 -0.1833
 3515TIP3    H110509   6.582   3.848   5.095  0.0174 -0.8669 -0.2304
 3515TIP3    H210510   6.683   3.812   4.988 -0.7420  0.1180 -1.3022
 3516TIP3   OH210511   0.632   6.566   1.756  0.4610 -0.0363  0.7100
 3516TIP3    H110512   0.548   6.583   1.798 -0.4264  0.0315 -0.9746
 3516TIP3    H210513   0.642   6.470   1.760  0.6180  0.0051  1.4522
 3517TIP3   OH210514   6.951   3.680   5.541 -0.6154 -0.1217 -0.2547
 3517TIP3    H110515   6.944   3.761   5.491  0.0118 -0.6002 -1.1548
 3517TIP3    H210516   6.931   3.705   5.631 -0.8243  0.9478 -0.5867
 3518TIP3   OH210517   0.621   0.457   2.075 -0.0837 -0.2471  0.0094
 3518TIP3    H110518   0.652   0.396   2.141 -0.9574 -2.4976 -1.5457
 3518TIP3    H210519   0.554   0.509   2.119  0.8117 -0.2539  1.4214
 3519TIP3   OH210520   4.207   0.338   4.034  0.3184 -0.2669 -0.1466
 3519TIP3    H110521   4.188   0.414   4.089 -0.0853 -0.3037 -0.2338
 3519TIP3    H210522   4.179   0.365   3.946  0.6643 -0.3242 -0.2779
 3520TIP3   OH210523   1.822   0.749   3.419 -0.3395  0.2081 -0.3960
 3520TIP3    H110524   1.764   0.689   3.464 -0.6481  0.9562  0.2263
 3520TIP3    H210525   1.839   0.819   3.483  0.3377  0.5670 -0.9537
 3521TIP3   OH210526   3.948   1.713   3.298 -0.1646  0.0469 -0.1027
 3521TIP3    H110527   4.012   1.744   3.362 -0.6017 -0.2775  0.5009
 3521TIP3    H210528   3.870   1.694   3.350  0.3169 -2.8197 -0.3111
 3522TIP3   OH210529   4.500   4.632   0.597 -0.3127 -0.0508 -0.2020
 3522TIP3    H110530   4.474   4.724   0.588 -0.1962  0.4419  3.3586
 3522TIP3    H210531   4.419   4.587   0.621 -0.1869 -0.7646 -1.0648
 3523TIP3   OH210532   1.186   6.290   0.149  0.1926 -0.5514  0.3225
 3523TIP3    H110533   1.134   6.250   0.079  1.0329  0.1357 -0.7433
 3523TIP3    H210534   1.125   6.302   0.222 -1.1413  0.2204 -0.8661
 3524TIP3   OH210535   3.250   6.453   3.030  0.3125 -0.2132 -0.3002
 3524TIP3    H110536   3.296   6.420   3.107  0.3192 -0.6131 -0.4718
 3524TIP3    H210537   3.185   6.385   3.009 -0.6383  0.5310  0.1766
 3525TIP3   OH210538   5.385   0.837   2.013 -0.2082  0.2868 -0.3728
 3525TIP3    H110539   5.464   0.794   2.045 -1.3856 -0.6887  1.4058
 3525TIP3    H210540   5.395   0.929   2.037 -1.5293 -0.5111  4.3249
 3526TIP3   OH210541   6.315   5.527   0.903  0.0297  0.5586 -0.3144
 3526TIP3    H110542   6.256   5.566   0.838  0.2015  0.8403 -0.2993
 3526TIP3    H210543   6.352   5.601   0.950 -0.6512  0.3348  0.6033
 3527TIP3   OH210544   3.971   0.767   1.495 -0.1046 -0.7535  0.2838
 3527TIP3    H110545   3.887   0.811   1.509 -0.3396 -0.5561 -1.4894
 3527TIP3    H210546   4.005   0.806   1.414  0.9632 -1.9268  0.1361
 3528TIP3   OH210547   3.765   3.819   4.268 -0.5040  0.2427  0.5204
 3528TIP3    H110548   3.848   3.833   4.314 -0.9596  0.6287  1.2365
 3528TIP3    H210549   3.790   3.809   4.176  0.4970 -1.4418  0.9516
 3529TIP3   OH210550   2.101   4.270   4.003  0.2446  0.3910 -0.4725
 3529TIP3    H110551   2.030   4.225   4.049  0.2467  2.0781  1.3511
 3529TIP3    H210552   2.074   4.274   3.912 -2.0245  0.9444  0.1720
 3530TIP3   OH210553   3.933   0.692   0.672 -0.2793  0.0919 -0.3893
 3530TIP3    H110554   3.917   0.659   0.761  2.2334 -0.8234 -0.2035
 3530TIP3    H210555   3.908   0.620   0.615 -2.5722  0.9284 -0.5545
 3531TIP3   OH210556   2.366   2.007   4.720 -0.0846  0.5211  0.7008
 3531TIP3    H110557   2.428   2.076   4.741 -2.3615  2.1736  2.5119
 3531TIP3    H210558   2.306   2.047   4.657 -0.8082 -0.1650  0.9309
 3532TIP3   OH210559   1.958   3.905   0.937 -0.2346 -0.1008 -0.4538
 3532TIP3    H110560   1.940   3.998   0.944 -0.0103 -0.1469  1.2499
 3532TIP3    H210561   2.013   3.896   0.859 -1.1331  1.0296 -1.2460
 3533TIP3   OH210562   3.187   5.969   4.206  0.2280 -0.7956 -0.3218
 3533TIP3    H110563   3.127   5.957   4.279  0.0634 -0.0512 -0.3254
 3533TIP3    H210564   3.266   6.004   4.246  0.6867 -1.7938 -0.3142
 3534TIP3   OH210565   4.136   5.128   2.977 -0.0801  0.1979 -0.2742
 3534TIP3    H110566   4.063   5.187   2.962 -0.1399  0.1295 -0.2541
 3534TIP3    H210567   4.114   5.049   2.928 -0.6949 -0.3625  0.8642
 3535TIP3   OH210568   5.556   3.720   4.781 -0.7122 -0.2107 -0.0398
 3535TIP3    H110569   5.580   3.706   4.689 -2.2870 -2.0743 -0.2261
 3535TIP3    H210570   5.589   3.643   4.826 -1.1112  0.0643  0.7378
 3536TIP3   OH210571   5.072   2.041   4.474 -0.3123 -0.3294 -1.0946
 3536TIP3    H110572   5.082   2.025   4.380 -0.5413  1.8138 -1.5496
 3536TIP3    H210573   5.145   2.098   4.497 -0.1663 -0.9563  0.0930
 3537TIP3   OH210574   6.859   1.654   3.512 -0.3548 -0.0339 -0.5386
 3537TIP3    H110575   6.811   1.640   3.430 -0.8154 -0.4519 -0.2033
 3537TIP3    H210576   6.805   1.611   3.579 -0.6115  1.3332  0.1750
 3538TIP3   OH210577   3.167   0.544   5.328  0.1908 -0.2213  0.2355
 3538TIP3    H110578   3.258   0.515   5.327 -0.4550 -2.3913 -0.3647
 3538TIP3    H210579   3.166   0.622   5.271  1.8338  0.4993  1.1362
 3539TIP3   OH210580   4.333   6.462   0.732  0.0152  0.2544  0.3021
 3539TIP3    H110581   4.251   6.496   0.768 -0.4846 -0.7357  0.1409
 3539TIP3    H210582   4.330   6.368   0.750  0.2043 -0.1108 -1.4174
 3540TIP3   OH210583   1.705   6.213   2.022  0.8115 -0.5460 -0.0438
 3540TIP3    H110584   1.632   6.205   1.961 -0.4259 -1.8132  1.5197
 3540TIP3    H210585   1.708   6.128   2.066  2.9385 -0.3462  0.2834
 3541TIP3   OH210586   7.073   6.361   0.759 -0.2435 -0.5533  0.6820
 3541TIP3    H110587   7.083   6.423   0.832 -2.8179  0.2482  0.4544
 3541TIP3    H210588   7.161   6.354   0.722  0.2705  2.7608  0.9054
 3542TIP3   OH210589   0.607   2.397   1.184  0.0898  0.2524 -0.1077
 3542TIP3    H110590   0.610   2.386   1.089 -0.3619 -0.9119 -0.0025
 3542TIP3    H210591   0.652   2.320   1.219  1.1803  1.1823  0.6217
 3543TIP3   OH210592   1.463   4.858   0.205  0.0391  0.2139 -0.0225
 3543TIP3    H110593   1.392   4.871   0.141  0.2387 -0.4141 -0.3763
 3543TIP3    H210594   1.516   4.788   0.168  0.5192  0.2804  0.5317
 3544TIP3   OH210595   1.514   3.460   2.041  0.0327 -0.0456 -0.1693
 3544TIP3    H110596   1.444   3.512   2.003  0.9833  1.4974  0.0957
 3544TIP3    H210597   1.575   3.525   2.078  0.1408 -1.4061  2.2293
 3545TIP3   OH210598   2.893   6.463   1.278  0.3485 -0.2504 -0.0288
 3545TIP3    H110599   2.886   6.376   1.238  2.5563 -0.1299 -0.7954
 3545TIP3    H210600   2.980   6.465   1.317  0.0921  1.4036  0.5606
 3546TIP3   OH210601   6.457   4.345   2.766 -0.3036  0.5671  0.0592
 3546TIP3    H110602   6.516   4.331   2.692  0.8055 -1.7525  1.2927
 3546TIP3    H210603   6.370   4.344   2.728  0.2961  2.3111 -1.5588
 3547TIP3   OH210604   4.721   2.932   3.958  0.0274  0.3793 -0.1749
 3547TIP3    H110605   4.668   2.906   4.034 -1.1590  1.8754 -0.4367
 3547TIP3    H210606   4.769   2.853   3.934 -2.1081 -1.0933  0.0861
 3548TIP3   OH210607   6.408   3.626   2.920  0.1901 -0.0834  0.0782
 3548TIP3    H110608   6.492   3.594   2.886 -0.8700  1.2529 -4.4458
 3548TIP3    H210609   6.427   3.715   2.951  0.4359  0.2810 -1.0941
 3549TIP3   OH210610   2.225   2.240   1.639 -0.4497 -0.0983 -0.3313
 3549TIP3    H110611   2.188   2.267   1.723  0.1552  1.2030 -0.4620
 3549TIP3    H210612   2.298   2.300   1.624 -0.5123 -0.3397 -1.7720
 3550TIP3   OH210613   6.623   4.141   1.600  0.0452  0.0747  0.4194
 3550TIP3    H110614   6.704   4.183   1.629  2.1590 -1.3553 -2.7947
 3550TIP3    H210615   6.600   4.081   1.671  2.4456 -0.2389  1.0200
 3551TIP3   OH210616   3.944   1.504   0.834  0.0710 -0.1677  0.0118
 3551TIP3    H110617   3.991   1.478   0.914 -0.6031  0.4055  0.6155
 3551TIP3    H210618   4.005   1.487   0.763  0.7198 -0.6158  0.6619
 3552TIP3   OH210619   1.135   2.076   3.163 -0.0623  0.4896  0.4577
 3552TIP3    H110620   1.102   2.138   3.098  0.0711  0.9095  0.7891
 3552TIP3    H210621   1.207   2.031   3.119 -1.5723 -1.0504 -0.5891
 3553TIP3   OH210622   4.723   2.762   2.960 -0.2759  0.4096  0.5220
 3553TIP3    H110623   4.784   2.782   2.889 -0.7437 -1.8103 -0.5960
 3553TIP3    H210624   4.656   2.830   2.954 -0.4346  0.1486 -1.3657
 3554TIP3   OH210625   2.353   1.890   5.316  0.1642 -0.5847 -0.0743
 3554TIP3    H110626   2.262   1.904   5.340  0.3198 -1.5876  1.2006
 3554TIP3    H210627   2.351   1.818   5.253  0.1329 -1.1823  0.6015
 3555TIP3   OH210628   3.249   2.361   0.036  0.1237  0.1524 -0.2504
 3555TIP3    H110629   3.254   2.320   0.122 -1.3671  0.3135 -0.0689
 3555TIP3    H210630   3.184   2.310  -0.012  0.6516  0.3043 -1.1579
 3556TIP3   OH210631   2.369   4.894   1.745 -0.0656  0.7874  0.3439
 3556TIP3    H110632   2.427   4.818   1.754 -0.4126  0.4380 -0.3074
 3556TIP3    H210633   2.312   4.889   1.822 -1.2794 -0.6679 -0.5854
 3557TIP3   OH210634   2.880   5.305   1.320 -0.2415 -0.4190  0.2741
 3557TIP3    H110635   2.839   5.301   1.406 -1.2526 -1.5710 -0.2394
 3557TIP3    H210636   2.892   5.398   1.303 -1.2259 -0.1334  1.1040
 3558TIP3   OH210637   1.233   2.626   5.314 -0.3402 -0.2847  0.3314
 3558TIP3    H110638   1.300   2.560   5.297 -1.5951 -1.6134  0.3592
 3558TIP3    H210639   1.264   2.672   5.392  1.4541  0.4328 -0.7310
 3559TIP3   OH210640   4.372   0.846   2.122 -0.8014  0.2427 -0.2328
 3559TIP3    H110641   4.383   0.880   2.211 -0.1033  1.0479 -0.6085
 3559TIP3    H210642   4.373   0.924   2.066  3.2912 -0.3869 -1.3727
 3560TIP3   OH210643   5.092   6.131   0.898 -0.2384 -0.7220 -0.1078
 3560TIP3    H110644   5.112   6.039   0.880  0.2407 -0.5213 -0.6487
 3560TIP3    H210645   5.039   6.129   0.978  2.2170 -1.2761  1.6057
 3561TIP3   OH210646   6.427   2.899   0.169  1.1394  0.3209  0.1788
 3561TIP3    H110647   6.503   2.903   0.227  1.8788  1.1636 -0.8030
 3561TIP3    H210648   6.457   2.940   0.088 -0.3265  0.5297 -0.2858
 3562TIP3   OH210649   4.058   3.277   3.164  0.3446 -0.6845  0.2509
 3562TIP3    H110650   4.091   3.219   3.233  0.0362 -0.3090  0.7171
 3562TIP3    H210651   4.033   3.357   3.210  2.3681  0.5075 -0.5753
 3563TIP3   OH210652   2.111   2.682   0.867 -0.4858 -0.1580 -0.4454
 3563TIP3    H110653   2.107   2.778   0.870  0.2186 -0.1182  2.2043
 3563TIP3    H210654   2.033   2.656   0.819 -0.1437  1.7430 -2.1692
 3564TIP3   OH210655   4.047   4.221   3.748  0.0778  0.4390  0.1383
 3564TIP3    H110656   4.018   4.263   3.829  0.6910 -0.1350  0.6720
 3564TIP3    H210657   4.003   4.135   3.749 -0.5475  0.7351 -0.5505
 3565TIP3   OH210658   2.287   4.330   3.700  0.1694 -0.5932  0.1992
 3565TIP3    H110659   2.310   4.261   3.639  1.5192 -0.6986  0.7822
 3565TIP3    H210660   2.368   4.380   3.712 -0.4364  0.2913  0.7904
 3566TIP3   OH210661   6.844   3.786   3.521 -0.4586  0.7042 -0.7769
 3566TIP3    H110662   6.798   3.765   3.602  1.2522 -0.1378  0.0122
 3566TIP3    H210663   6.823   3.878   3.505  0.9990  1.5979  1.8943
 3567TIP3   OH210664   1.697   4.185   1.965  0.3833  0.0276 -0.1139
 3567TIP3    H110665   1.613   4.175   1.920 -0.9262  3.3499  1.3349
 3567TIP3    H210666   1.762   4.172   1.896 -1.3262 -0.6806 -1.6887
 3568TIP3   OH210667   3.185   3.049   1.571 -0.4928  0.0285  0.5046
 3568TIP3    H110668   3.214   3.126   1.523 -1.0450  1.3978  2.2646
 3568TIP3    H210669   3.265   3.008   1.603 -0.1035 -1.0001 -1.5926
 3569TIP3   OH210670   4.692   0.116   4.313  0.3399  0.1182  0.1402
 3569TIP3    H110671   4.616   0.166   4.282  1.2510  1.1739 -0.4639
 3569TIP3    H210672   4.709   0.151   4.400  2.5741  2.9182 -1.2276
 3570TIP3   OH210673   0.027   5.203   0.643 -0.1663 -0.4352  0.2742
 3570TIP3    H110674   0.084   5.269   0.603  0.3076 -0.5771  0.6943
 3570TIP3    H210675  -0.062   5.232   0.624  0.0412  0.2223  0.2963
 3571TIP3   OH210676   3.932   1.806   4.736  0.2748  0.0094  0.2175
 3571TIP3    H110677   3.950   1.789   4.644 -0.2930 -0.9553  0.2782
 3571TIP3    H210678   3.934   1.720   4.778 -0.6663  0.2983  0.8877
 3572TIP3   OH210679   6.053   2.333   3.244 -0.3793  0.4693  0.4415
 3572TIP3    H110680   6.094   2.302   3.324 -0.0528 -0.0915  0.0645
 3572TIP3    H210681   6.108   2.406   3.215 -0.2173  0.3532  0.4607
 3573TIP3   OH210682   3.249   6.114   0.449 -0.3081 -0.6171  0.2026
 3573TIP3    H110683   3.344   6.110   0.459 -0.2058 -0.9446 -0.8097
 3573TIP3    H210684   3.218   6.026   0.470 -0.8926  0.4398  4.8172
 3574TIP3   OH210685   7.167   0.270   0.104 -0.1470 -0.1296 -0.4199
 3574TIP3    H110686   7.155   0.181   0.137 -1.1387 -0.2706 -1.1265
 3574TIP3    H210687   7.134   0.326   0.174  0.8665 -0.2914  0.2001
 3575TIP3   OH210688   6.793   3.867   3.823 -0.1818  0.5309 -0.0248
 3575TIP3    H110689   6.748   3.886   3.905 -0.0811 -1.1668  0.4746
 3575TIP3    H210690   6.858   3.937   3.814 -0.7393  1.1902  0.9224
 3576TIP3   OH210691   1.905   6.394   1.902 -0.5164  0.3244 -0.3082
 3576TIP3    H110692   1.856   6.314   1.884 -2.2818  1.7296 -2.2290
 3576TIP3    H210693   1.989   6.363   1.936 -1.5266 -2.2805  0.0871
 3577TIP3   OH210694   0.258   4.860   0.932  0.3260  0.3543 -0.6511
 3577TIP3    H110695   0.263   4.954   0.913 -4.2835  0.6636 -1.4049
 3577TIP3    H210696   0.206   4.854   1.012  1.3569 -1.6182 -0.0570
 3578TIP3   OH210697   2.079  -0.034   0.111 -0.9044  0.0556 -0.0751
 3578TIP3    H110698   2.008   0.000   0.165 -1.0320  1.3187 -0.9928
 3578TIP3    H210699   2.097   0.036   0.048 -0.7126 -1.3041 -1.6123
 3579TIP3   OH210700   3.933   4.362   3.960 -0.0604 -0.1376 -0.2037
 3579TIP3    H110701   3.936   4.418   4.038  0.4847 -0.7445  0.2186
 3579TIP3    H210702   3.848   4.320   3.964  0.1580 -0.5382  0.3324
 3580TIP3   OH210703   3.584   6.607   2.453  0.0215 -0.3337  0.2187
 3580TIP3    H110704   3.632   6.529   2.427 -0.4176 -0.3042 -0.7517
 3580TIP3    H210705   3.500   6.600   2.407  0.1402  0.9077 -0.2352
 3581TIP3   OH210706   0.973   3.594   4.728  0.5067 -0.2066 -0.5760
 3581TIP3    H110707   0.884   3.595   4.762  0.0019 -1.7417 -1.7344
 3581TIP3    H210708   0.997   3.686   4.720  0.3809  0.2726  3.0013
 3582TIP3   OH210709   6.060   4.526   0.378  0.1476 -0.1855  0.2185
 3582TIP3    H110710   6.093   4.574   0.302  0.3162 -2.8723 -1.5563
 3582TIP3    H210711   6.135   4.478   0.411 -0.5489 -1.3008  0.2328
 3583TIP3   OH210712   2.832   5.568   1.800 -0.1811 -0.1187  0.4195
 3583TIP3    H110713   2.799   5.645   1.846 -1.5914  0.6916 -1.8125
 3583TIP3    H210714   2.913   5.598   1.758  0.8021 -0.7033  1.8120
 3584TIP3   OH210715   1.689   2.139   4.801 -0.1388  0.1076 -0.2589
 3584TIP3    H110716   1.717   2.113   4.714  3.1861 -0.6524  0.8927
 3584TIP3    H210717   1.685   2.235   4.797 -0.7319  0.0495 -1.4061
 3585TIP3   OH210718   5.797   0.027  -0.000 -0.2831 -0.1806 -0.0455
 3585TIP3    H110719   5.733   0.084  -0.043 -0.2764 -0.6235 -0.6615
 3585TIP3    H210720   5.748  -0.016   0.069 -0.3170  0.4820  0.3486
 3586TIP3   OH210721   1.405   5.051   1.290  0.0910  0.5807 -0.0971
 3586TIP3    H110722   1.408   4.956   1.278 -0.9450  0.1530  2.4470
 3586TIP3    H210723   1.496   5.075   1.307  0.7196  0.4521 -2.7888
 3587TIP3   OH210724   4.581   4.815   1.859  0.2560  0.1406  0.2675
 3587TIP3    H110725   4.579   4.778   1.770  0.5740  0.3750  0.1631
 3587TIP3    H210726   4.663   4.863   1.863 -0.0559  0.6641  0.4749
 3588TIP3   OH210727   6.061   1.669   2.880  0.0257  0.0769  0.0768
 3588TIP3    H110728   5.975   1.630   2.865 -0.1166  0.6260 -0.5947
 3588TIP3    H210729   6.092   1.628   2.961 -0.8684 -0.1234  0.3339
 3589TIP3   OH210730   0.218   2.572   3.537  0.0548  0.0877 -0.5154
 3589TIP3    H110731   0.249   2.658   3.564 -0.0280 -0.5730  1.9453
 3589TIP3    H210732   0.262   2.555   3.454  0.5428  2.2237 -0.7380
 3590TIP3   OH210733   3.607   6.062   1.625  0.0831 -0.0555 -0.1497
 3590TIP3    H110734   3.583   6.036   1.714  0.7380 -2.6908 -0.6591
 3590TIP3    H210735   3.528   6.101   1.589 -1.9465 -3.6604 -0.0391
 3591TIP3   OH210736   3.615   2.193   1.363 -0.1271 -0.2174  0.1635
 3591TIP3    H110737   3.636   2.261   1.299  0.1964 -1.1700 -0.7703
 3591TIP3    H210738   3.540   2.147   1.326  0.5976 -1.3267  0.0355
 3592TIP3   OH210739   4.552   0.483   0.317  0.2056  0.3611 -0.0015
 3592TIP3    H110740   4.484   0.543   0.289 -0.1078  0.2068  0.4068
 3592TIP3    H210741   4.542   0.479   0.413 -0.1987 -0.8185 -0.0751
 3593TIP3   OH210742   3.091   2.215   1.251 -0.5311 -0.0018 -0.5671
 3593TIP3    H110743   3.017   2.268   1.223 -1.0475  0.4693  1.5123
 3593TIP3    H210744   3.167   2.256   1.208 -1.2400  0.6886 -1.2010
 3594TIP3   OH210745   5.361   6.727   5.556 -0.1216  0.1220 -0.4979
 3594TIP3    H110746   5.362   6.678   5.638 -0.3419  0.0040 -0.5657
 3594TIP3    H210747   5.281   6.700   5.512 -0.8672  1.4391  0.0009
 3595TIP3   OH210748   0.605   0.445   2.882 -0.2002  0.2070 -0.7348
 3595TIP3    H110749   0.589   0.420   2.792 -1.0814 -1.0685 -0.2506
 3595TIP3    H210750   0.606   0.541   2.881 -0.5943  0.2105 -2.0096
 3596TIP3   OH210751   3.423   6.547   4.804  0.0751  0.3674  0.0419
 3596TIP3    H110752   3.379   6.486   4.862  0.3778 -1.7591 -1.7991
 3596TIP3    H210753   3.503   6.571   4.850  1.0493 -2.4316  0.0018
 3597TIP3   OH210754   1.437   6.474   0.961  0.4369 -0.3402 -0.3103
 3597TIP3    H110755   1.525   6.502   0.934  0.2256  0.4967 -0.1738
 3597TIP3    H210756   1.428   6.510   1.050  0.6400 -1.9547  0.3885
 3598TIP3   OH210757   3.738   2.095   2.365 -0.0439 -0.1172 -0.2907
 3598TIP3    H110758   3.761   2.027   2.428 -0.9767 -0.7692 -0.6381
 3598TIP3    H210759   3.694   2.163   2.417  1.5313  0.5947  0.1798
 3599TIP3   OH210760   0.265   4.741   0.687 -0.0349  0.3474 -0.1286
 3599TIP3    H110761   0.187   4.749   0.632 -1.4375 -2.7910  1.1924
 3599TIP3    H210762   0.244   4.793   0.765 -0.3507  0.4033 -0.2470
 3600TIP3   OH210763   4.768   0.526   4.956 -0.2110  0.2598  0.2145
 3600TIP3    H110764   4.853   0.535   4.913 -0.4518  2.6036  0.0754
 3600TIP3    H210765   4.780   0.567   5.042 -0.5129 -1.8007  1.2960
 3601TIP3   OH210766   4.996   5.246   5.317  0.0821  0.1291 -0.3018
 3601TIP3    H110767   5.011   5.164   5.268  0.4227 -0.1666  0.2889
 3601TIP3    H210768   4.916   5.282   5.278 -0.0415 -0.4544 -0.6114
 3602TIP3   OH210769   4.977   3.199   4.287 -0.0236  0.0751 -0.0025
 3602TIP3    H110770   5.029   3.162   4.216 -0.6525 -1.1334  0.1277
 3602TIP3    H210771   5.006   3.150   4.365 -1.0516 -0.3304  0.1377
 3603TIP3   OH210772   0.999   4.088   1.688  0.4985 -0.2379  0.3063
 3603TIP3    H110773   0.954   4.083   1.773  2.6215  1.6452  1.6529
 3603TIP3    H210774   1.012   4.181   1.672  0.4883 -0.5687 -1.9507
 3604TIP3   OH210775   6.653   4.077   3.148  0.3033 -0.5372 -0.3677
 3604TIP3    H110776   6.616   4.144   3.090 -0.7118 -1.0677 -0.3551
 3604TIP3    H210777   6.661   4.121   3.233 -1.8142 -0.8245  0.0391
 3605TIP3   OH210778   3.665   6.268   2.837  0.2927  0.1366 -0.0657
 3605TIP3    H110779   3.591   6.238   2.890  0.4674  0.6197  0.4657
 3605TIP3    H210780   3.641   6.245   2.747  0.2529 -1.2129  0.2701
 3606TIP3   OH210781   2.810   4.394   2.887 -0.1888  0.9417  0.1734
 3606TIP3    H110782   2.852   4.479   2.877 -0.3201  0.8581 -1.4467
 3606TIP3    H210783   2.751   4.388   2.811  0.7810 -1.1289 -0.4786
 3607TIP3   OH210784   4.822   3.105   0.917  0.0764 -0.2015 -0.3039
 3607TIP3    H110785   4.852   3.017   0.892  0.2485  0.4765 -2.8196
 3607TIP3    H210786   4.783   3.093   1.003 -0.2566 -2.8373 -0.7103
 3608TIP3   OH210787   3.648   0.399   4.927  0.1256 -0.2234 -0.2747
 3608TIP3    H110788   3.718   0.447   4.883 -0.1783  1.0777  0.6177
 3608TIP3    H210789   3.692   0.326   4.970  1.1898  1.2780  1.3351
 3609TIP3   OH210790   3.906   0.472   4.882 -0.3819 -0.8742  0.1400
 3609TIP3    H110791   3.957   0.419   4.943 -2.0779 -2.6813  0.0812
 3609TIP3    H210792   3.950   0.461   4.798  0.6694 -0.1816  0.5818
 3610TIP3   OH210793   6.585   3.146   0.943 -0.0596  0.0893  0.1260
 3610TIP3    H110794   6.607   3.058   0.914 -1.4174 -0.2416  0.0230
 3610TIP3    H210795   6.517   3.133   1.009  1.2814  0.9565  1.7786
 3611TIP3   OH210796   1.654   2.515   3.854  0.5474  0.1887  0.2606
 3611TIP3    H110797   1.726   2.453   3.870  0.7291  0.0627 -0.9642
 3611TIP3    H210798   1.663   2.580   3.924 -0.8480 -2.1596  2.8393
 3612TIP3   OH210799   0.176   4.958   5.578 -0.2069 -0.2370  0.0710
 3612TIP3    H110800   0.189   4.896   5.506  1.0517 -0.0711  0.1358
 3612TIP3    H210801   0.160   4.902   5.655  2.6597 -0.6290  0.4915
 3613TIP3   OH210802   5.374   4.409   4.472 -0.4094  0.0337 -0.3429
 3613TIP3    H110803   5.457   4.382   4.511 -0.6426 -1.1175 -0.5974
 3613TIP3    H210804   5.378   4.374   4.382 -0.8544  0.6214 -0.5943
 3614TIP3   OH210805   3.832   6.059   4.166 -0.2028 -0.5263 -0.2409
 3614TIP3    H110806   3.753   6.010   4.143 -0.2461 -0.2434 -0.7223
 3614TIP3    H210807   3.812   6.099   4.251 -0.4338 -0.7584 -0.1850
 3615TIP3   OH210808   6.584   4.971   4.904 -0.0450 -0.3663  0.0411
 3615TIP3    H110809   6.632   4.894   4.936  2.9916  0.6865 -1.5700
 3615TIP3    H210810   6.616   5.043   4.959 -0.0658  0.3160 -0.8272
 3616TIP3   OH210811   0.112   3.130   2.648  0.1709  0.4124 -0.3042
 3616TIP3    H110812   0.076   3.185   2.717 -0.6314  0.8434 -1.0420
 3616TIP3    H210813   0.159   3.191   2.591  1.8796 -0.0986  0.4858
 3617TIP3   OH210814   0.325   1.429   1.722 -0.1784 -0.0116  0.5412
 3617TIP3    H110815   0.369   1.422   1.637 -0.5456  1.2176  0.2237
 3617TIP3    H210816   0.232   1.422   1.702 -0.2581  0.1200  0.8602
 3618TIP3   OH210817   2.605   3.766   3.262  0.0976  0.1874 -0.5038
 3618TIP3    H110818   2.632   3.703   3.196  0.1923  0.0289 -0.3164
 3618TIP3    H210819   2.582   3.845   3.213  0.0711  0.0383 -0.7310
 3619TIP3   OH210820   4.172   6.410   0.301 -0.0221 -0.4153 -0.2003
 3619TIP3    H110821   4.096   6.392   0.356  0.0975 -1.7787 -0.4598
 3619TIP3    H210822   4.163   6.352   0.226  1.5645 -1.0263  0.0392
 3620TIP3   OH210823   7.084   3.378   4.520  0.2554  0.4573  0.4835
 3620TIP3    H110824   7.145   3.306   4.506  0.8713  1.4248 -2.6243
 3620TIP3    H210825   7.004   3.336   4.550  0.3786 -1.6906 -1.8260
 3621TIP3   OH210826   1.621   6.578   1.205 -0.1822  0.6627 -0.0213
 3621TIP3    H110827   1.668   6.546   1.128  1.2616 -0.8847  1.4193
 3621TIP3    H210828   1.616   6.502   1.263 -1.7778  1.6222  1.1907
 3622TIP3   OH210829   0.299   1.569   2.218 -0.2401  0.3262  0.3255
 3622TIP3    H110830   0.204   1.577   2.216 -0.3319 -0.5499  0.4281
 3622TIP3    H210831   0.315   1.475   2.207  0.5402  0.2406  1.8544
 3623TIP3   OH210832   5.512   2.972   5.306  0.0689 -0.1324 -0.3216
 3623TIP3    H110833   5.586   3.029   5.327 -1.5602  0.8851  3.4257
 3623TIP3    H210834   5.524   2.895   5.361 -1.1964 -0.3637 -0.3378
 3624TIP3   OH210835   4.338   2.207   2.693 -0.1963  0.1493  0.4683
 3624TIP3    H110836   4.400   2.140   2.666  0.0562  0.6541 -0.2163
 3624TIP3    H210837   4.278   2.216   2.619 -0.3984  0.4811  0.6692
 3625TIP3   OH210838   0.765   3.901   5.167  0.2171  0.0221 -0.0511
 3625TIP3    H110839   0.794   3.992   5.159  0.7901 -0.1459  0.0707
 3625TIP3    H210840   0.803   3.857   5.091 -0.8961  0.0862 -0.6693
 3626TIP3   OH210841   5.025   5.710   5.623  0.4716 -0.0923  0.4633
 3626TIP3    H110842   5.003   5.735   5.713 -0.5917  0.9147 -0.0568
 3626TIP3    H210843   5.028   5.614   5.625 -0.2805 -0.1151  1.4027
 3627TIP3   OH210844   4.789   2.115   2.987  0.0658 -0.0679 -0.3238
 3627TIP3    H110845   4.728   2.062   3.037 -1.7152  1.4809 -0.7166
 3627TIP3    H210846   4.876   2.088   3.017 -0.8449 -1.2190  1.4290
 3628TIP3   OH210847   3.603   4.725   5.650 -0.7442  0.1140  0.5255
 3628TIP3    H110848   3.517   4.686   5.660 -0.0816 -1.8148 -0.6194
 3628TIP3    H210849   3.628   4.753   5.738 -1.5170 -1.6269  1.3372
 3629TIP3   OH210850   0.255   6.483   0.224  0.5110  0.2808 -0.6225
 3629TIP3    H110851   0.253   6.499   0.318  2.0768  0.9714 -0.6669
 3629TIP3    H210852   0.203   6.555   0.186  0.1690  0.1981 -0.3095
 3630TIP3   OH210853   0.605   3.869   0.474 -0.0134 -0.7220  0.2175
 3630TIP3    H110854   0.613   3.883   0.380  0.9659  0.8570  0.5153
 3630TIP3    H210855   0.645   3.783   0.489  1.0312 -0.3970 -0.6279
 3631TIP3   OH210856   0.314   6.606   3.978  0.2874  0.2095 -0.1344
 3631TIP3    H110857   0.241   6.645   3.929 -0.2319 -0.1464  0.3360
 3631TIP3    H210858   0.343   6.533   3.924 -0.1505 -0.0579 -0.0125
 3632TIP3   OH210859   4.790   1.801   1.635 -0.6397  0.1138 -0.0376
 3632TIP3    H110860   4.814   1.709   1.631 -2.1013 -0.2611 -0.8729
 3632TIP3    H210861   4.768   1.816   1.726 -0.1328 -0.2844  0.1563
 3633TIP3   OH210862   6.906   0.071   5.518  0.1793 -0.3729  0.5272
 3633TIP3    H110863   6.867   0.084   5.604 -0.9827 -1.0941  0.1477
 3633TIP3    H210864   6.976   0.008   5.533 -0.0293 -0.5118  0.9544
 3634TIP3   OH210865   0.761   5.352   2.756 -0.7308 -0.0926  0.1731
 3634TIP3    H110866   0.831   5.290   2.736 -0.3627  0.3145  0.1852
 3634TIP3    H210867   0.800   5.438   2.742 -0.3973  0.2483  2.7637
 3635TIP3   OH210868   5.070   0.184   0.434 -0.4210 -0.4531 -0.0657
 3635TIP3    H110869   5.039   0.118   0.495  1.5127  0.4143  2.0028
 3635TIP3    H210870   5.006   0.255   0.441 -0.3724 -0.4824  0.7689
 3636TIP3   OH210871   6.338   4.257   5.197  0.1393 -0.2965 -0.0760
 3636TIP3    H110872   6.389   4.187   5.154 -1.6028 -0.2000 -2.5080
 3636TIP3    H210873   6.249   4.222   5.201 -0.1640  0.5610  1.7215
 3637TIP3   OH210874   5.179   6.262   4.757 -0.2868  0.4197  0.4638
 3637TIP3    H110875   5.119   6.188   4.746  0.1530  0.1391 -0.0974
 3637TIP3    H210876   5.129   6.326   4.808 -1.2489  0.4010 -0.4123
 3638TIP3   OH210877   1.480   2.990   1.461 -0.3783 -0.2487  0.5083
 3638TIP3    H110878   1.446   2.907   1.428  0.4277 -1.1183  1.7448
 3638TIP3    H210879   1.570   2.995   1.428 -1.2630  1.5645 -1.9293
 3639TIP3   OH210880   0.674   3.849   1.824 -0.0818 -0.7773 -0.0111
 3639TIP3    H110881   0.677   3.885   1.735  0.2682  0.7011  0.5705
 3639TIP3    H210882   0.589   3.806   1.830  0.4701 -2.2143 -1.5228
 3640TIP3   OH210883   6.065   5.756   1.020  0.3387  0.4734 -0.1422
 3640TIP3    H110884   6.094   5.844   1.042  1.3697  0.1563 -0.1863
 3640TIP3    H210885   6.085   5.704   1.098 -1.3569  0.4868  0.3517
 3641TIP3   OH210886   6.315   3.097   5.465  0.3511 -0.1313  0.0099
 3641TIP3    H110887   6.405   3.103   5.433  0.4712 -0.3448  0.3081
 3641TIP3    H210888   6.321   3.048   5.547 -0.1192 -0.7355 -0.3116
 3642TIP3   OH210889   2.703   2.482   2.995 -0.0658  0.0614 -0.1423
 3642TIP3    H110890   2.624   2.428   2.990 -0.4181  0.6840 -2.4273
 3642TIP3    H210891   2.775   2.419   2.993 -0.4977 -0.4350 -0.2257
 3643TIP3   OH210892   7.081   4.574   0.209  0.1375  0.0710  0.8548
 3643TIP3    H110893   7.104   4.588   0.117  1.0571 -1.1625  0.8708
 3643TIP3    H210894   7.059   4.481   0.214 -1.5205  0.4700  1.5654
 3644TIP3   OH210895   3.414   0.394   2.335 -0.0594 -0.3106  0.5561
 3644TIP3    H110896   3.501   0.392   2.374 -0.2746  1.9615  1.2870
 3644TIP3    H210897   3.425   0.444   2.254 -0.7303  0.2895  0.8265
 3645TIP3   OH210898   0.055   1.708   2.218 -0.3412  0.0904 -0.0376
 3645TIP3    H110899   0.010   1.780   2.264  0.3619  0.4686  0.0653
 3645TIP3    H210900   0.056   1.736   2.127  0.0609  0.2777  0.0246
 3646TIP3   OH210901   1.164   6.575   4.661 -0.2933 -0.1306  0.0833
 3646TIP3    H110902   1.119   6.591   4.578 -0.4510  1.0049  0.3754
 3646TIP3    H210903   1.098   6.593   4.728 -0.1912 -1.1160  0.4646
 3647TIP3   OH210904   6.584   2.221   1.657 -0.5192 -0.3798 -0.1974
 3647TIP3    H110905   6.624   2.143   1.695  1.9682  0.0300 -1.7713
 3647TIP3    H210906   6.656   2.267   1.615 -1.8832  2.8024  0.6626
 3648TIP3   OH210907   6.285   3.214   3.313 -0.1671  0.0151 -0.1935
 3648TIP3    H110908   6.256   3.127   3.339  1.0699 -0.3572  0.0392
 3648TIP3    H210909   6.221   3.244   3.248 -0.1654 -1.4032 -0.8696
 3649TIP3   OH210910   3.361   0.845   0.224  0.0372 -0.3825  0.0749
 3649TIP3    H110911   3.444   0.874   0.263  0.0151  0.8564 -0.7512
 3649TIP3    H210912   3.387   0.780   0.159  0.3049 -0.3967  0.1911
 3650TIP3   OH210913   1.552   3.288   0.144 -0.9185  0.1980 -0.3786
 3650TIP3    H110914   1.558   3.371   0.192 -0.8115 -1.0963  2.0179
 3650TIP3    H210915   1.637   3.246   0.159 -1.1893 -0.6004 -1.0484
 3651TIP3   OH210916   2.650   5.060   1.864  0.6005 -0.8050  0.2609
 3651TIP3    H110917   2.627   4.996   1.796 -0.8366 -0.7747  0.6781
 3651TIP3    H210918   2.721   5.111   1.826 -0.3831 -0.5769 -1.3584
 3652TIP3   OH210919   4.132   3.940   5.402 -0.3130 -0.3776  0.1630
 3652TIP3    H110920   4.061   3.963   5.342 -0.3966 -0.2404  0.3149
 3652TIP3    H210921   4.206   3.922   5.345 -0.8253 -1.8691 -0.1001
 3653TIP3   OH210922   0.907   6.721   3.410  0.3981  0.1154 -0.2219
 3653TIP3    H110923   0.984   6.778   3.404  1.2534 -1.0114 -0.3433
 3653TIP3    H210924   0.935   6.639   3.369 -0.6512 -0.5463  0.3477
 3654TIP3   OH210925   1.660   4.332   5.512  0.0185 -0.1463  0.4565
 3654TIP3    H110926   1.751   4.302   5.509  0.9607  2.4846 -0.4065
 3654TIP3    H210927   1.638   4.333   5.605  2.0411  2.1213  1.0137
 3655TIP3   OH210928   6.596   5.138   4.603  0.3238  0.0136 -0.3949
 3655TIP3    H110929   6.521   5.195   4.621 -0.0770 -0.2250 -1.2247
 3655TIP3    H210930   6.573   5.054   4.643 -1.3080 -1.0264 -3.2042
 3656TIP3   OH210931   0.313   2.129   1.796 -0.0281 -0.7010 -0.3771
 3656TIP3    H110932   0.353   2.181   1.866  0.1988 -1.5561  0.1451
 3656TIP3    H210933   0.353   2.042   1.805 -1.0005 -1.2002 -0.7069
 3657TIP3   OH210934   7.186   0.532   4.934 -0.0344  0.5959  0.2869
 3657TIP3    H110935   7.214   0.493   4.851  1.0953 -0.9701  1.3619
 3657TIP3    H210936   7.134   0.463   4.976  2.1893  0.0407  2.3316
 3658TIP3   OH210937   5.971   4.054   3.209 -0.3764 -0.4638  0.0817
 3658TIP3    H110938   5.958   4.060   3.304 -1.0333  0.4875 -0.0487
 3658TIP3    H210939   5.897   4.002   3.178  0.6458 -2.0969  0.2287
 3659TIP3   OH210940   6.488   2.387   5.438 -0.1319 -0.2093 -0.2288
 3659TIP3    H110941   6.521   2.315   5.383  0.4106 -0.3570  0.2836
 3659TIP3    H210942   6.504   2.466   5.385  1.3879 -0.2404  0.1444
 3660TIP3   OH210943   5.464   3.178   1.532  0.1959 -0.4510 -0.3520
 3660TIP3    H110944   5.396   3.111   1.521  0.3335 -0.7292  0.4125
 3660TIP3    H210945   5.419   3.261   1.512 -0.5739 -0.5568  0.8219
 3661TIP3   OH210946   6.493   6.119   3.201  0.1618 -0.4527 -0.5460
 3661TIP3    H110947   6.427   6.124   3.270  1.0935 -0.9146  0.4219
 3661TIP3    H210948   6.513   6.210   3.180  0.0933 -0.2951  0.0422
 3662TIP3   OH210949   2.889   4.987   4.030  0.4782 -0.1185  0.2096
 3662TIP3    H110950   2.799   4.993   3.999  0.8548  1.2022 -0.7151
 3662TIP3    H210951   2.942   4.988   3.950  1.3535  0.0613  0.7786
 3663TIP3   OH210952   5.123   6.585   0.375  0.3524  0.1115  0.1743
 3663TIP3    H110953   5.112   6.490   0.384 -0.7631  0.0785 -1.1382
 3663TIP3    H210954   5.034   6.619   0.364  0.8121  1.1784 -0.4262
 3664TIP3   OH210955   4.438   0.391   0.896 -0.2829 -0.1960  0.1503
 3664TIP3    H110956   4.383   0.468   0.897  1.9701  1.5530  2.3984
 3664TIP3    H210957   4.396   0.329   0.956 -1.5419 -0.3402 -0.8492
 3665TIP3   OH210958   5.619   3.115   1.008 -0.4161  0.1132 -0.4651
 3665TIP3    H110959   5.570   3.038   0.980 -1.4074  0.3270  0.6228
 3665TIP3    H210960   5.695   3.117   0.950 -0.0540 -2.0109 -0.1510
 3666TIP3   OH210961   3.221   3.207   2.619  0.1451  0.0612 -0.2067
 3666TIP3    H110962   3.312   3.234   2.607  0.2113  0.2650  0.6854
 3666TIP3    H210963   3.171   3.263   2.559  0.5553  0.3188 -0.3111
 3667TIP3   OH210964   5.329   6.682   0.198  0.1516  0.6781 -0.2179
 3667TIP3    H110965   5.403   6.736   0.168  1.0392 -0.8398 -0.8736
 3667TIP3    H210966   5.268   6.682   0.124 -0.3372  1.6076  0.1739
 3668TIP3   OH210967   3.933   1.866   3.625  0.0062 -0.8083  0.7006
 3668TIP3    H110968   4.016   1.843   3.584 -0.1124 -1.2567  0.7158
 3668TIP3    H210969   3.916   1.795   3.687 -1.0993 -1.4624 -0.3172
 3669TIP3   OH210970   1.601   3.772   5.291 -0.5616  0.4405 -0.2807
 3669TIP3    H110971   1.687   3.807   5.269  1.1557 -2.2118  1.5340
 3669TIP3    H210972   1.574   3.822   5.368  1.6327 -1.6024  1.9948
 3670TIP3   OH210973   1.873   3.621   0.170 -0.7406  0.1503 -0.6644
 3670TIP3    H110974   1.838   3.694   0.221 -1.3932 -0.3351 -0.4135
 3670TIP3    H210975   1.966   3.641   0.162 -0.9877  1.2698 -1.0305
 3671TIP3   OH210976   0.750   1.899   2.281 -0.3140 -0.0849 -0.0042
 3671TIP3    H110977   0.760   1.861   2.194 -0.3109  1.8783 -0.9200
 3671TIP3    H210978   0.760   1.993   2.268 -2.3765  0.4856  1.7759
 3672TIP3   OH210979   0.673   1.921   2.765  0.3470  0.0790 -0.0394
 3672TIP3    H110980   0.622   1.978   2.823  0.2083 -1.3048  1.2721
 3672TIP3    H210981   0.615   1.903   2.692  0.6579  2.1640 -0.8808
 3673TIP3   OH210982   3.036   3.472   2.786 -0.9774 -0.0032  0.2397
 3673TIP3    H110983   3.127   3.449   2.800 -0.1583  2.4130 -0.5072
 3673TIP3    H210984   3.039   3.537   2.716 -2.6839  3.6929  3.2378
 3674TIP3   OH210985   4.135   2.074   2.798  0.2976  0.2457 -0.5199
 3674TIP3    H110986   4.225   2.103   2.780  1.3600 -2.1199  0.4794
 3674TIP3    H210987   4.137   2.048   2.891 -0.5567 -2.4937 -1.1707
 3675TIP3   OH210988   2.342   6.732   4.613 -0.1645 -0.2376 -1.3272
 3675TIP3    H110989   2.312   6.823   4.618  1.4006  0.3779 -2.4991
 3675TIP3    H210990   2.266   6.683   4.581 -1.0553  0.6045 -0.5853
 3676TIP3   OH210991   2.233   6.349   3.275 -0.2602  0.1079 -0.0246
 3676TIP3    H110992   2.282   6.364   3.356 -0.3186  2.1799 -0.3233
 3676TIP3    H210993   2.164   6.415   3.276 -0.7610 -0.3681 -1.3815
 3677TIP3   OH210994   0.472   5.925   4.046  0.0874  0.7167  0.0769
 3677TIP3    H110995   0.414   5.938   4.121 -0.3506  0.1622 -0.1582
 3677TIP3    H210996   0.529   5.853   4.072  0.6232  1.1981  0.2696
 3678TIP3   OH210997   2.621   5.163   2.702 -0.5016  0.5593 -0.0856
 3678TIP3    H110998   2.549   5.193   2.647  1.1254  1.3179 -1.9444
 3678TIP3    H210999   2.627   5.069   2.684 -1.3213  0.3925  0.4690
 3679TIP3   OH211000   0.732   3.547   5.790  0.0611  0.2812  0.2606
 3679TIP3    H111001   0.698   3.489   5.858  1.1234 -0.2869  0.3333
 3679TIP3    H211002   0.710   3.635   5.820 -1.3958 -0.0574  0.2432
 3680TIP3   OH211003   5.051   1.447   3.459 -0.2751  0.6401  0.0885
 3680TIP3    H111004   5.137   1.430   3.420 -0.0208  0.3104  0.7823
 3680TIP3    H211005   5.006   1.363   3.452  0.2474  0.2042  1.6822
 3681TIP3   OH211006   6.512   0.483   5.107  0.1040  0.6900  0.1837
 3681TIP3    H111007   6.482   0.571   5.086  0.5456  0.7461 -0.2407
 3681TIP3    H211008   6.601   0.496   5.140  0.2055  0.3966  0.0302
 3682TIP3   OH211009   2.942   5.108   4.593 -0.6341  0.0900 -0.3975
 3682TIP3    H111010   2.924   5.052   4.517 -0.2792  0.5365 -0.8220
 3682TIP3    H211011   2.864   5.161   4.604 -0.0190  1.3080 -1.5994
 3683TIP3   OH211012   6.483   0.598   0.987 -0.1454 -0.1163 -0.6897
 3683TIP3    H111013   6.481   0.571   0.895  2.2771  0.3417 -0.9642
 3683TIP3    H211014   6.576   0.590   1.011 -0.4767  1.2853  1.2430
 3684TIP3   OH211015   4.464   0.440   3.798 -0.6420 -0.4366 -0.1415
 3684TIP3    H111016   4.452   0.534   3.808 -2.5888 -0.7371  0.8561
 3684TIP3    H211017   4.506   0.412   3.879  0.8848 -0.3192 -0.8626
 3685TIP3   OH211018   3.606   5.026   0.846 -0.4657 -0.0374  0.0111
 3685TIP3    H111019   3.633   5.061   0.931 -2.6177  1.2137  0.2743
 3685TIP3    H211020   3.602   5.103   0.789 -0.9608 -0.5574 -0.6638
 3686TIP3   OH211021   2.486   3.053   3.227  0.2163  0.0406  0.1066
 3686TIP3    H111022   2.566   3.063   3.176  0.3828  0.4259  0.4333
 3686TIP3    H211023   2.443   3.138   3.220  0.2594  0.1086  0.6306
 3687TIP3   OH211024   5.867   1.185   4.578 -0.3294  0.1086 -0.4420
 3687TIP3    H111025   5.932   1.256   4.570 -1.6378  1.5086  0.7323
 3687TIP3    H211026   5.824   1.184   4.492 -1.7644  2.2998  0.1618
 3688TIP3   OH211027   4.674   2.481   4.859 -0.7756  0.2064 -0.0794
 3688TIP3    H111028   4.636   2.537   4.927 -1.5848 -0.7551  0.2754
 3688TIP3    H211029   4.762   2.462   4.890 -0.0234  2.2702 -0.7971
 3689TIP3   OH211030   0.696   5.757   3.581 -0.3531  0.5261 -0.8226
 3689TIP3    H111031   0.767   5.761   3.517 -0.9659 -0.3081 -1.5725
 3689TIP3    H211032   0.736   5.789   3.662  0.6259  0.9423 -1.4442
 3690TIP3   OH211033   4.520   4.506   2.353 -0.3470 -0.0688 -0.9670
 3690TIP3    H111034   4.586   4.437   2.347  1.6302  1.8474 -3.3092
 3690TIP3    H211035   4.538   4.549   2.437 -0.9480 -1.6917  0.0359
 3691TIP3   OH211036   1.547   3.246   4.850 -0.3447  0.1031 -0.9417
 3691TIP3    H111037   1.515   3.170   4.897 -1.2590  0.6814 -0.5918
 3691TIP3    H211038   1.489   3.317   4.878  1.5618  1.3246  0.1283
 3692TIP3   OH211039   2.854   0.317   4.548 -0.5356  0.1277  0.7783
 3692TIP3    H111040   2.767   0.353   4.530 -1.3496 -1.9576  0.1688
 3692TIP3    H211041   2.874   0.264   4.471  0.3270 -1.0858  1.7850
 3693TIP3   OH211042   5.950   4.424   2.562 -0.2159 -0.1502  0.0708
 3693TIP3    H111043   5.858   4.434   2.535 -0.6579 -2.9072  0.3046
 3693TIP3    H211044   5.998   4.412   2.481  1.0557  6.4008 -0.7421
 3694TIP3   OH211045   2.526   5.521   3.130  0.3410 -0.1264  0.0251
 3694TIP3    H111046   2.454   5.468   3.095  1.2384 -2.5356  1.5560
 3694TIP3    H211047   2.490   5.559   3.211 -0.5036  2.3107 -1.3718
 3695TIP3   OH211048   4.231   3.385   4.553 -1.0896  0.3478  0.1981
 3695TIP3    H111049   4.158   3.327   4.578 -0.5407 -0.3517  0.2246
 3695TIP3    H211050   4.252   3.433   4.632 -0.9003 -0.1516  0.4591
 3696TIP3   OH211051   1.604   1.049   5.765 -0.6343 -0.2032 -0.1214
 3696TIP3    H111052   1.637   0.999   5.839  1.5501 -0.0390 -0.9106
 3696TIP3    H211053   1.561   0.984   5.710 -1.1009 -0.5522  0.6407
 3697TIP3   OH211054   1.513   4.708   4.517  0.9497 -0.2141  0.6545
 3697TIP3    H111055   1.424   4.744   4.520  0.7975 -0.5585  0.3461
 3697TIP3    H211056   1.554   4.738   4.598  0.8122  0.6218  0.4198
 3698TIP3   OH211057   5.793   2.262   0.711  0.0480  0.3992  0.2826
 3698TIP3    H111058   5.722   2.244   0.773 -1.5026  2.4113 -0.8106
 3698TIP3    H211059   5.774   2.206   0.636 -0.3676  0.9154  0.0024
 3699TIP3   OH211060   1.258   0.542   5.189  0.2718 -0.6476 -0.7084
 3699TIP3    H111061   1.216   0.598   5.123  1.6965 -0.8308 -1.8033
 3699TIP3    H211062   1.272   0.459   5.144 -0.7615 -1.5529  0.5492
 3700TIP3   OH211063   4.642   6.229   2.571  0.0928 -0.2073 -0.0259
 3700TIP3    H111064   4.733   6.248   2.594  0.3097  1.6545 -2.0972
 3700TIP3    H211065   4.592   6.252   2.650  0.9605  3.9772 -0.4643
 3701TIP3   OH211066   6.067   6.600   0.751 -0.3427 -0.2013 -0.3481
 3701TIP3    H111067   5.990   6.594   0.694  0.3902  2.1132 -1.6728
 3701TIP3    H211068   6.080   6.693   0.765  1.8138 -0.5655  0.4383
 3702TIP3   OH211069   0.466   3.661   1.784  0.0685  0.6352 -0.0019
 3702TIP3    H111070   0.511   3.580   1.763 -1.1992 -0.2784  0.7170
 3702TIP3    H211071   0.452   3.657   1.878  0.1844  1.7981  0.0787
 3703TIP3   OH211072   5.768   2.008   1.076  0.4107 -0.1636 -0.1591
 3703TIP3    H111073   5.862   2.026   1.076  0.4568 -0.4061 -0.3743
 3703TIP3    H211074   5.747   1.986   0.985  0.2695 -0.7704  0.0140
 3704TIP3   OH211075   6.356   6.230   3.795  0.4914 -0.0384  0.6186
 3704TIP3    H111076   6.424   6.205   3.732  1.6407 -0.4629  1.9877
 3704TIP3    H211077   6.364   6.166   3.866 -1.7161 -0.4411  0.5838
 3705TIP3   OH211078   4.363   1.767   1.492 -0.0750 -0.0907  0.3034
 3705TIP3    H111079   4.277   1.770   1.533  0.7029 -0.3291  2.0313
 3705TIP3    H211080   4.413   1.705   1.545  1.4884  0.8763  0.0291
 3706TIP3   OH211081   0.568   3.809   2.217 -0.0548  0.1286 -0.0319
 3706TIP3    H111082   0.530   3.826   2.303 -2.0597  0.4065 -0.9308
 3706TIP3    H211083   0.658   3.842   2.224 -0.4892  1.0502  1.6498
 3707TIP3   OH211084   5.698   4.140   3.411 -0.5788 -0.8561  0.4845
 3707TIP3    H111085   5.742   4.209   3.361 -0.1171 -1.3315  0.2244
 3707TIP3    H211086   5.615   4.126   3.366 -1.0390  0.0746  0.9995
 3708TIP3   OH211087   0.222   4.253   0.825 -0.0123  0.2619  0.1856
 3708TIP3    H111088   0.187   4.317   0.764 -0.2631 -1.3263 -1.4403
 3708TIP3    H211089   0.309   4.232   0.791  0.4497  0.3985  1.2259
 3709TIP3   OH211090   3.745   1.359   1.624  0.0346 -0.0009 -0.3968
 3709TIP3    H111091   3.734   1.270   1.657 -0.1067  1.5339  4.3879
 3709TIP3    H211092   3.670   1.372   1.566 -0.2172 -2.7642 -0.8337
 3710TIP3   OH211093   3.214   0.602   4.950 -0.1502  0.1729 -0.2408
 3710TIP3    H111094   3.270   0.673   4.917  1.8903 -1.4293 -0.4687
 3710TIP3    H211095   3.272   0.551   5.006 -0.7700 -2.6957 -2.0061
 3711TIP3   OH211096   1.859   5.809   0.049  0.1349  0.1994  0.1996
 3711TIP3    H111097   1.810   5.726   0.044  1.1741 -0.4341  0.1889
 3711TIP3    H211098   1.859   5.842  -0.041  0.4109 -0.2127  0.0458
 3712TIP3   OH211099   1.287   5.660   4.472  0.1223 -0.1499  0.2724
 3712TIP3    H111100   1.239   5.639   4.552  0.5854  0.4479  0.7186
 3712TIP3    H211101   1.275   5.583   4.416 -0.7336 -0.3116  0.6623
 3713TIP3   OH211102   7.021   2.222   5.140  0.2747 -0.1749 -0.0677
 3713TIP3    H111103   7.051   2.136   5.111 -0.3313 -0.4251  0.0159
 3713TIP3    H211104   7.100   2.276   5.144  0.5120 -0.3949 -1.2715
 3714TIP3   OH211105   6.659   5.022   4.299 -0.6759  0.2417 -0.1686
 3714TIP3    H111106   6.659   5.072   4.380  1.6017 -0.5744  0.4196
 3714TIP3    H211107   6.657   4.931   4.326  1.0179 -0.0736 -0.9202
 3715TIP3   OH211108   1.118   3.953   0.138  0.1557 -0.6410  0.7421
 3715TIP3    H111109   1.092   4.028   0.085 -0.1153 -0.7993  0.6482
 3715TIP3    H211110   1.168   3.898   0.078  1.0125 -0.1721  1.0132
 3716TIP3   OH211111   3.744   4.464   3.745 -0.1516 -0.0895 -1.1442
 3716TIP3    H111112   3.819   4.443   3.802 -0.9410 -0.1558 -0.0909
 3716TIP3    H211113   3.772   4.542   3.697  0.1741  0.6074  0.1171
 3717TIP3   OH211114   3.584   1.019   4.321  0.1053  0.6504 -0.6983
 3717TIP3    H111115   3.512   1.049   4.266 -0.8286 -2.3189 -1.2661
 3717TIP3    H211116   3.626   0.949   4.271  1.6960  0.5011  0.7495
 3718TIP3   OH211117   5.603   1.363   2.329 -0.0117 -0.1658 -0.3650
 3718TIP3    H111118   5.691   1.356   2.292  0.1987 -1.4657  0.3516
 3718TIP3    H211119   5.616   1.361   2.424 -0.7108  1.1399 -0.2115
 3719TIP3   OH211120   5.594   5.303   2.758 -0.1124  0.4043  0.9408
 3719TIP3    H111121   5.614   5.211   2.740 -1.4007  0.1084  0.9402
 3719TIP3    H211122   5.664   5.352   2.714 -0.1067 -0.5218 -0.1203
 3720TIP3   OH211123   5.131   5.778   4.259 -0.0464  0.2014  0.1693
 3720TIP3    H111124   5.156   5.720   4.187 -0.2899 -0.8359  0.9122
 3720TIP3    H211125   5.205   5.775   4.320 -0.1518  0.5157  0.3180
 3721TIP3   OH211126   3.808   2.661   0.989 -0.5641  0.0536  0.3065
 3721TIP3    H111127   3.715   2.683   0.985 -0.4364  0.9473  1.6472
 3721TIP3    H211128   3.823   2.639   1.081  0.4922 -0.3688  0.0422
 3722TIP3   OH211129   6.854   5.609   1.835  0.0321  0.5036  0.2285
 3722TIP3    H111130   6.793   5.537   1.848  0.9792 -0.3431  0.0910
 3722TIP3    H211131   6.799   5.688   1.838 -0.8747 -0.1306  1.5537
 3723TIP3   OH211132   3.014   3.370   4.889 -0.4486 -0.3296 -0.5399
 3723TIP3    H111133   3.021   3.297   4.827  1.9769 -0.3646 -0.3310
 3723TIP3    H211134   3.048   3.335   4.971 -0.0023  0.8058 -0.2217
 3724TIP3   OH211135   4.448   4.924   1.360 -0.1356  0.1728 -0.4246
 3724TIP3    H111136   4.397   4.874   1.423 -1.5102  0.8002 -0.9970
 3724TIP3    H211137   4.432   4.882   1.276 -2.6726  2.3856 -1.2202
 3725TIP3   OH211138   3.961   2.841   1.298  0.1525  0.2760 -0.1035
 3725TIP3    H111139   3.934   2.751   1.281  0.8985 -0.1271  0.7571
 3725TIP3    H211140   3.896   2.875   1.359  0.1365  0.1609 -0.0559
 3726TIP3   OH211141   1.245   5.954   0.317 -0.4606  0.3845  0.4302
 3726TIP3    H111142   1.274   5.863   0.318  0.0908  0.5178  2.5915
 3726TIP3    H211143   1.190   5.962   0.239 -0.0121 -1.6240 -0.1286
 3727TIP3   OH211144   0.483   2.470   2.011  0.4227  0.3318  0.0164
 3727TIP3    H111145   0.439   2.411   2.072  2.3939 -3.0318 -1.5496
 3727TIP3    H211146   0.415   2.493   1.947 -0.6409  0.6368  1.2151
 3728TIP3   OH211147   1.507   1.976   5.104  0.2285  0.7176  0.6367
 3728TIP3    H111148   1.428   1.938   5.142 -0.8780  1.3397 -0.9601
 3728TIP3    H211149   1.558   1.900   5.074  0.2014  0.3248  1.5365
 3729TIP3   OH211150   6.257   3.985   0.844 -0.5125 -0.1377  0.3992
 3729TIP3    H111151   6.219   4.026   0.922  0.4690  0.7157  0.4466
 3729TIP3    H211152   6.184   3.977   0.783 -1.1370 -0.1401  1.1216
 3730TIP3   OH211153   4.934   3.908   1.966 -0.7455  0.1233 -0.0793
 3730TIP3    H111154   5.015   3.909   1.915 -0.1243 -0.1507  0.8617
 3730TIP3    H211155   4.876   3.969   1.921  0.1401  0.6539 -0.5285
 3731TIP3   OH211156   6.764   4.334   2.281 -0.1627  0.1410  0.4613
 3731TIP3    H111157   6.722   4.418   2.261 -1.3365 -0.5560 -0.0773
 3731TIP3    H211158   6.762   4.329   2.376  0.4150  0.9559  0.5344
 3732TIP3   OH211159   5.109   6.379   5.798  0.3908 -0.0290 -0.3364
 3732TIP3    H111160   5.171   6.341   5.861 -1.0532 -1.6219  0.2144
 3732TIP3    H211161   5.044   6.424   5.852  0.8925  1.3982 -0.8921
 3733TIP3   OH211162   0.419   0.417   0.766  0.1701  0.2139 -0.0610
 3733TIP3    H111163   0.461   0.500   0.789  1.6791 -0.9272  1.5521
 3733TIP3    H211164   0.464   0.351   0.819  0.8109 -2.0568 -3.0845
 3734TIP3   OH211165   5.590   0.896   2.487 -0.9775 -0.5862  0.0877
 3734TIP3    H111166   5.673   0.902   2.440 -0.1488 -0.4892  1.5330
 3734TIP3    H211167   5.536   0.964   2.447 -0.1735 -0.2542 -0.4655
 3735TIP3   OH211168   6.310   5.396   2.948 -0.1643  0.0538 -0.3728
 3735TIP3    H111169   6.319   5.411   3.042 -0.2920  0.0252 -0.3559
 3735TIP3    H211170   6.259   5.471   2.916  1.2908  0.9348 -0.6955
 3736TIP3   OH211171   3.930   5.270   4.491 -0.1080 -0.5478  0.0412
 3736TIP3    H111172   3.888   5.295   4.573 -0.6304  1.0160 -0.6822
 3736TIP3    H211173   4.020   5.301   4.499 -0.4959  0.7476 -0.4637
 3737TIP3   OH211174   3.237   5.300   3.939  0.7772  0.7954  0.3748
 3737TIP3    H111175   3.325   5.315   3.905  0.5404  0.8003 -0.2345
 3737TIP3    H211176   3.183   5.282   3.862  0.7120 -1.6406  0.8920
 3738TIP3   OH211177   2.657   6.046   0.111  0.0829 -0.3094  0.0354
 3738TIP3    H111178   2.617   6.016   0.192  0.0313 -1.2110 -0.3138
 3738TIP3    H211179   2.638   6.140   0.108 -1.7368 -0.6396  0.0384
 3739TIP3   OH211180   6.402   2.446   0.189 -0.3103  0.5797 -0.1312
 3739TIP3    H111181   6.416   2.410   0.101  1.6440  1.1615 -0.0857
 3739TIP3    H211182   6.339   2.517   0.175  0.7606  1.3546 -1.2609
 3740TIP3   OH211183   2.582   6.216   4.164 -0.1821  0.0992  0.2138
 3740TIP3    H111184   2.656   6.271   4.190  0.1985 -0.6749  0.8010
 3740TIP3    H211185   2.512   6.278   4.145  0.7486  0.8824 -0.8507
 3741TIP3   OH211186   5.305   1.014   2.606  0.1189  0.0407  0.1831
 3741TIP3    H111187   5.351   1.032   2.524  0.5407 -0.0065  0.4063
 3741TIP3    H211188   5.261   0.930   2.591 -0.5540  0.4717 -0.3070
 3742TIP3   OH211189   3.049   6.242   3.198  0.0014  0.0450  0.0988
 3742TIP3    H111190   2.998   6.163   3.219  0.6400 -0.8721 -1.6867
 3742TIP3    H211191   3.058   6.241   3.103  3.0711  0.3467  0.2995
 3743TIP3   OH211192   3.203   6.253   0.869 -1.0470  0.0761  0.2733
 3743TIP3    H111193   3.258   6.187   0.826 -1.3403 -0.2652  0.4197
 3743TIP3    H211194   3.252   6.278   0.948 -1.6175 -1.0608  1.0086
 3744TIP3   OH211195   0.209   6.445   5.226 -0.1797 -0.3484 -0.0061
 3744TIP3    H111196   0.163   6.361   5.224 -1.2132  0.1171  1.8287
 3744TIP3    H211197   0.167   6.497   5.158 -1.0121 -0.6215  0.2869
 3745TIP3   OH211198   2.340   6.088   1.483  0.0456  0.5037  0.0809
 3745TIP3    H111199   2.421   6.138   1.490 -0.1143  1.1964 -2.1485
 3745TIP3    H211200   2.290   6.110   1.561  0.4296  3.0236 -0.3258
 3746TIP3   OH211201   2.215   0.162   0.425  0.3441 -0.4872  0.0023
 3746TIP3    H111202   2.205   0.221   0.500  0.6222 -0.5098  0.0597
 3746TIP3    H211203   2.240   0.220   0.353  0.4949 -0.5169  0.0294
 3747TIP3   OH211204   4.605   1.038   1.017  0.0322 -0.3262 -0.6067
 3747TIP3    H111205   4.515   1.061   1.039  0.4044  0.1373  0.4898
 3747TIP3    H211206   4.643   1.010   1.100  1.2389  0.6131 -0.8275
 3748TIP3   OH211207   4.855   2.449   2.734 -0.5448 -0.3977  0.5149
 3748TIP3    H111208   4.905   2.483   2.659 -0.4470 -0.9319  0.3321
 3748TIP3    H211209   4.778   2.506   2.739  0.0497  0.3988  0.7655
 3749TIP3   OH211210   6.394   4.595   2.294 -0.5633 -0.5195 -0.2420
 3749TIP3    H111211   6.352   4.578   2.210 -0.8718  0.2524 -0.2489
 3749TIP3    H211212   6.487   4.584   2.277 -0.4285  1.7815 -1.2474
 3750TIP3   OH211213   6.811   5.608   4.013 -0.2637  0.0410  0.1651
 3750TIP3    H111214   6.870   5.647   3.949  0.0898  1.4847  1.2962
 3750TIP3    H211215   6.868   5.582   4.085 -0.6262 -1.7588 -0.1640
 3751TIP3   OH211216   1.836   4.097   2.181 -0.3074 -0.5135 -0.0051
 3751TIP3    H111217   1.785   4.095   2.099  3.3543  0.3094 -2.5225
 3751TIP3    H211218   1.900   4.027   2.170  1.5159  0.8969  1.2530
 3752TIP3   OH211219   7.117   0.560   5.295  0.2246  0.8399  0.1679
 3752TIP3    H111220   7.148   0.575   5.384  0.9999  0.4853 -0.0255
 3752TIP3    H211221   7.029   0.524   5.305  0.0325  1.4525  0.7599
 3753TIP3   OH211222   6.074   3.539   0.073 -0.5716 -0.6016 -0.1602
 3753TIP3    H111223   6.100   3.567   0.161 -0.0426 -0.6355 -0.3070
 3753TIP3    H211224   6.154   3.541   0.022 -0.7774 -1.1011 -0.5121
 3754TIP3   OH211225   3.177   0.476   4.719  0.5748 -0.4546  0.2441
 3754TIP3    H111226   3.153   0.516   4.803  1.9631 -1.4780  1.1788
 3754TIP3    H211227   3.272   0.464   4.725  1.2609  2.1622 -2.7151
 3755TIP3   OH211228   0.928   2.504   4.765 -0.6084  0.0454  0.1481
 3755TIP3    H111229   0.851   2.494   4.708 -0.6821  1.2927  0.0109
 3755TIP3    H211230   0.968   2.586   4.738  0.4023 -0.2524  0.6839
 3756TIP3   OH211231   6.584   4.685   3.924  0.5466  0.4350  0.1477
 3756TIP3    H111232   6.538   4.745   3.984 -1.2005 -0.0944 -0.5859
 3756TIP3    H211233   6.536   4.602   3.932  3.8714 -1.4853  2.3460
 3757TIP3   OH211234   2.803   0.233   5.352  0.0901 -0.2650  0.1959
 3757TIP3    H111235   2.829   0.228   5.260 -1.0695 -0.6333 -0.1245
 3757TIP3    H211236   2.814   0.326   5.374 -0.6596  0.0396 -0.6425
 3758TIP3   OH211237   4.729   4.480   5.268  0.2991  0.1018 -0.3469
 3758TIP3    H111238   4.736   4.404   5.210  1.1360 -0.4502  0.4433
 3758TIP3    H211239   4.798   4.467   5.333  0.8352  1.8320 -0.5218
 3759TIP3   OH211240   0.835   5.661   0.131 -0.1366 -0.7323 -0.8360
 3759TIP3    H111241   0.815   5.582   0.081  0.9086 -0.8419 -1.0941
 3759TIP3    H211242   0.931   5.665   0.133 -0.1530 -0.3774  0.5936
 3760TIP3   OH211243   7.231   5.381   0.030 -0.1481  0.2784 -0.0754
 3760TIP3    H111244   7.220   5.331   0.111  0.4297  1.1645  0.5765
 3760TIP3    H211245   7.142   5.402   0.002 -0.3955 -0.9754 -0.2940
 3761TIP3   OH211246   2.267   6.489   2.401 -0.0124  0.2276 -0.1411
 3761TIP3    H111247   2.312   6.570   2.423 -0.7676  0.2661  1.4775
 3761TIP3    H211248   2.175   6.515   2.389 -0.0697 -0.2244 -0.7363
 3762TIP3   OH211249   4.931   6.542   2.428  0.1359  0.0345 -0.7098
 3762TIP3    H111250   4.902   6.603   2.360  1.2277  0.0679 -1.1775
 3762TIP3    H211251   4.938   6.596   2.507 -0.5803  0.1260 -0.7103
 3763TIP3   OH211252   7.173   2.320   0.672 -0.2711  0.6071  0.6895
 3763TIP3    H111253   7.119   2.381   0.622  0.1355 -0.1530 -0.7208
 3763TIP3    H211254   7.244   2.373   0.707 -0.7033  1.1955  0.6919
 3764TIP3   OH211255  -0.012   2.298   1.615  0.8037  0.3726  0.1482
 3764TIP3    H111256   0.069   2.336   1.580  0.8808 -0.8789 -1.1113
 3764TIP3    H211257  -0.016   2.329   1.706  2.4880  0.7584  0.1179
 3765TIP3   OH211258   3.801   4.972   5.623  0.1961 -0.0019 -0.1463
 3765TIP3    H111259   3.741   5.045   5.608 -1.5112 -1.2070  0.4773
 3765TIP3    H211260   3.762   4.924   5.696  2.1614 -0.6260  0.5371
 3766TIP3   OH211261   2.779   2.571   4.751  0.1581  0.0627 -0.3756
 3766TIP3    H111262   2.723   2.588   4.827  0.7882  0.0877  0.0858
 3766TIP3    H211263   2.814   2.657   4.727  0.3834 -0.0252 -0.3636
 3767TIP3   OH211264   6.872   4.581   4.840 -0.0029 -0.7749 -0.4011
 3767TIP3    H111265   6.861   4.656   4.781  0.2845 -0.1403  0.3324
 3767TIP3    H211266   6.957   4.596   4.882 -0.5671 -0.7724  0.7746
 3768TIP3   OH211267   6.647   2.207   4.993 -0.1571 -0.3187 -0.1849
 3768TIP3    H111268   6.681   2.118   5.006  3.5481  0.8717 -0.5388
 3768TIP3    H211269   6.601   2.203   4.909  0.2323 -1.8436 -0.3562
 3769TIP3   OH211270   4.590   0.257   0.169 -0.1909  0.1916 -0.6364
 3769TIP3    H111271   4.578   0.322   0.238 -1.5694 -0.0759 -0.5941
 3769TIP3    H211272   4.663   0.203   0.199 -0.2596  0.5632  0.2251
 3770TIP3   OH211273   4.483   5.517   5.712 -0.0877 -0.4076  0.5826
 3770TIP3    H111274   4.456   5.607   5.694  0.9200 -0.2050  0.0174
 3770TIP3    H211275   4.535   5.522   5.792  1.5687 -0.1554 -0.4523
 3771TIP3   OH211276   6.977   1.273   3.420  0.5461  0.3723  0.0059
 3771TIP3    H111277   6.884   1.269   3.444  0.7169 -0.2600  0.5644
 3771TIP3    H211278   7.022   1.300   3.500  0.9330 -0.1331 -0.0346
 3772TIP3   OH211279   1.974   2.669   0.402  0.0682 -0.7492 -0.3919
 3772TIP3    H111280   2.056   2.705   0.435  0.2522  0.3088 -1.8978
 3772TIP3    H211281   1.961   2.588   0.452 -1.4529  2.2329  4.6813
 3773TIP3   OH211282   3.972   4.124   4.594 -0.4285  0.3232 -0.3925
 3773TIP3    H111283   3.914   4.055   4.627 -1.3015  0.9759 -0.5368
 3773TIP3    H211284   3.970   4.114   4.499  2.6562 -2.0201 -0.3584
 3774TIP3   OH211285   6.483   1.660   2.989 -0.0049 -0.3830 -0.2220
 3774TIP3    H111286   6.575   1.643   3.010 -0.0751  0.4507  0.9188
 3774TIP3    H211287   6.478   1.756   2.982 -0.9477 -0.3508  0.6537
 3775TIP3   OH211288   7.002   6.412   0.356  0.2469  0.5396 -0.6995
 3775TIP3    H111289   6.966   6.456   0.433  1.4119 -0.5970  0.5335
 3775TIP3    H211290   7.088   6.382   0.383  0.7120  0.1518 -2.4842
 3776TIP3   OH211291   2.632   5.294   5.776 -0.2012  0.4810 -0.2626
 3776TIP3    H111292   2.587   5.264   5.697  0.2850  0.2942 -0.4730
 3776TIP3    H211293   2.599   5.237   5.846 -0.6127  0.6303 -0.3344
 3777TIP3   OH211294   1.653   4.535   4.375  0.3648  0.3679  0.0303
 3777TIP3    H111295   1.584   4.583   4.420 -0.5096 -1.8463  1.1964
 3777TIP3    H211296   1.710   4.504   4.445  0.2113 -1.3074 -0.5507
 3778TIP3   OH211297   7.008   1.583   3.081  0.2640 -0.2677 -0.4067
 3778TIP3    H111298   7.080   1.582   3.018  0.6907 -1.4339  0.0824
 3778TIP3    H211299   7.047   1.620   3.161 -0.3661  1.5458 -0.8950
 3779TIP3   OH211300   3.531   6.684   5.157 -0.8687 -0.3622 -0.1919
 3779TIP3    H111301   3.516   6.716   5.247  0.9109 -1.4346  0.5350
 3779TIP3    H211302   3.521   6.589   5.163 -0.2814 -0.4856 -1.0386
 3780TIP3   OH211303   3.424   3.035   2.098 -0.3190 -0.2515  0.2815
 3780TIP3    H111304   3.463   3.056   2.183  1.4439 -1.9358 -0.0460
 3780TIP3    H211305   3.494   3.054   2.034 -1.1528 -0.2703 -0.6607
 3781TIP3   OH211306   6.101   0.096   1.360 -0.1889 -0.2131  0.4594
 3781TIP3    H111307   6.072   0.053   1.441  0.1236 -0.5420  0.3944
 3781TIP3    H211308   6.122   0.025   1.301 -2.6499 -0.0426 -0.7634
 3782TIP3   OH211309   1.285   3.197   3.980 -0.8461  0.1812 -0.4486
 3782TIP3    H111310   1.191   3.192   3.999 -0.8567  1.0531 -0.2067
 3782TIP3    H211311   1.311   3.107   3.963 -1.0212 -0.6482  2.8878
 3783TIP3   OH211312   0.997   1.137   2.300  0.9201  0.3434  0.1373
 3783TIP3    H111313   1.008   1.231   2.309 -2.9585  0.7637  2.1912
 3783TIP3    H211314   0.948   1.126   2.218 -0.7080  0.4054  1.0674
 3784TIP3   OH211315   6.663   3.653   0.596  0.1002  0.2774  0.6169
 3784TIP3    H111316   6.690   3.584   0.536 -1.0712  0.8115 -0.5708
 3784TIP3    H211317   6.743   3.702   0.614  0.9007 -1.1790  1.2582
 3785TIP3   OH211318   5.982   0.194   4.628  0.6283 -0.3984  0.2266
 3785TIP3    H111319   5.943   0.107   4.639 -0.9930 -0.0568 -2.0809
 3785TIP3    H211320   5.972   0.235   4.714 -3.3263 -0.7454  0.1501
 3786TIP3   OH211321   3.091   6.072   5.005 -0.4454 -0.0391  0.4439
 3786TIP3    H111322   3.052   6.133   5.067  2.5145  0.7552  1.6753
 3786TIP3    H211323   3.079   5.986   5.046  1.9411  0.5135  2.5805
 3787TIP3   OH211324   3.730   2.472   3.965 -0.4010  0.3017 -0.4427
 3787TIP3    H111325   3.637   2.456   3.985 -0.3349 -0.4211 -0.7088
 3787TIP3    H211326   3.744   2.433   3.879  0.2205  0.1607 -0.2837
 3788TIP3   OH211327   1.922   0.286   1.066 -0.4888  0.0245  0.4474
 3788TIP3    H111328   2.011   0.320   1.051 -0.5123  1.0571  2.3262
 3788TIP3    H211329   1.865   0.363   1.058 -1.0931 -0.4290  0.3275
 3789TIP3   OH211330   5.826   4.147   1.961 -0.1031  0.1408  0.4283
 3789TIP3    H111331   5.871   4.139   1.876  0.3584  1.3009  0.5329
 3789TIP3    H211332   5.878   4.212   2.008 -1.1405  0.5159  1.0806
 3790TIP3   OH211333   6.484   3.018   4.312 -0.0583  0.5494 -0.0990
 3790TIP3    H111334   6.528   2.934   4.310  2.1846  1.6433 -2.0025
 3790TIP3    H211335   6.393   2.998   4.333  0.8549 -2.0648  1.7299
 3791TIP3   OH211336   7.135   6.060   0.327 -0.5212  0.2265  0.5195
 3791TIP3    H111337   7.174   6.130   0.275 -0.3487  0.9460  1.5800
 3791TIP3    H211338   7.210   6.020   0.373 -0.7077 -0.1802  0.4789
 3792TIP3   OH211339   3.832   5.650   1.590 -0.0498 -0.0351  0.1458
 3792TIP3    H111340   3.784   5.670   1.671 -0.9459 -0.3283 -0.2967
 3792TIP3    H211341   3.893   5.581   1.616 -1.0360 -0.8561  0.3684
 3793TIP3   OH211342   5.859   6.369   1.455 -0.2189 -0.7744  0.0570
 3793TIP3    H111343   5.904   6.335   1.378 -1.9595 -0.9254 -0.9294
 3793TIP3    H211344   5.824   6.292   1.499 -0.3376 -0.5911  0.2887
 3794TIP3   OH211345   2.164   3.487   3.902  0.3530 -0.0386 -0.5776
 3794TIP3    H111346   2.103   3.424   3.864 -1.6752  1.1991  0.4529
 3794TIP3    H211347   2.202   3.533   3.827 -2.0772  1.0206 -1.2518
 3795TIP3   OH211348   3.555   5.239   3.946 -0.6603 -0.8631  0.2795
 3795TIP3    H111349   3.592   5.168   3.893 -0.3430 -1.0372  0.7311
 3795TIP3    H211350   3.547   5.201   4.034  2.4953  0.5932  1.3467
 3796TIP3   OH211351   5.933   0.210   0.887 -0.2037 -0.4153 -0.1717
 3796TIP3    H111352   5.869   0.276   0.911  0.1821  0.2315 -0.8878
 3796TIP3    H211353   5.943   0.218   0.792  0.8884 -0.5423 -0.0892
 3797TIP3   OH211354   3.030   2.076   5.577  0.4609  0.4348 -0.1258
 3797TIP3    H111355   3.105   2.097   5.522 -0.5456 -0.5207 -1.9440
 3797TIP3    H211356   2.977   2.016   5.524  0.1522 -1.7491  2.4293
 3798TIP3   OH211357   5.788   2.488   0.052  0.2521 -0.2236  0.1090
 3798TIP3    H111358   5.736   2.531   0.120  0.4581 -1.0480  0.8021
 3798TIP3    H211359   5.740   2.505  -0.029 -2.0168 -2.3459  0.9005
 3799TIP3   OH211360   1.693   4.816   2.763 -0.1636 -0.0589  0.0021
 3799TIP3    H111361   1.621   4.807   2.700 -1.2110 -0.3974  1.2022
 3799TIP3    H211362   1.713   4.726   2.789  0.3618  0.0701  0.0516
 3800TIP3   OH211363   1.548   2.684   1.315  0.1170 -0.3830 -0.1118
 3800TIP3    H111364   1.543   2.622   1.243 -1.1216 -0.4792  0.0471
 3800TIP3    H211365   1.622   2.653   1.369  1.1248 -0.2470 -1.3629
 3801TIP3   OH211366   2.898   0.631   3.827 -0.6403 -0.5330 -0.1160
 3801TIP3    H111367   2.816   0.595   3.860 -1.0718  0.9896  0.5895
 3801TIP3    H211368   2.938   0.674   3.903 -2.1487  3.9832 -1.5192
 3802TIP3   OH211369   5.482   6.215   4.049  0.4351  0.0958  0.4212
 3802TIP3    H111370   5.415   6.153   4.020  0.4887 -0.4811  1.4673
 3802TIP3    H211371   5.435   6.298   4.059  0.3667  0.2460 -1.0069
 3803TIP3   OH211372   5.084   5.196   0.076 -0.4516 -0.3856 -0.5172
 3803TIP3    H111373   4.998   5.165   0.049 -0.9222 -1.4831  1.9764
 3803TIP3    H211374   5.143   5.167   0.006 -2.0600  0.4772 -2.3237
 3804TIP3   OH211375   3.035   0.262   5.782  0.1115  0.5512  0.9729
 3804TIP3    H111376   2.966   0.243   5.845 -1.1112  1.4904 -0.0330
 3804TIP3    H211377   3.037   0.357   5.776 -1.4725  0.5200 -2.0861
 3805TIP3   OH211378   0.301   4.613   1.979 -0.2711 -0.5166 -0.1214
 3805TIP3    H111379   0.251   4.695   1.974  1.6131  0.6178 -1.7098
 3805TIP3    H211380   0.255   4.553   1.920 -0.7195 -0.0516 -0.2545
 3806TIP3   OH211381   5.694   4.284   3.656 -0.0781 -0.2893  0.1537
 3806TIP3    H111382   5.696   4.227   3.579  3.0899  0.0363 -0.1150
 3806TIP3    H211383   5.698   4.373   3.620  0.7042 -0.1101  0.6577
 3807TIP3   OH211384   1.125   6.175   1.291 -0.4344 -0.4428 -0.1764
 3807TIP3    H111385   1.172   6.242   1.340 -0.9718 -0.9927  1.1387
 3807TIP3    H211386   1.045   6.218   1.262  0.1961  0.0842 -1.2020
 3808TIP3   OH211387   5.497   3.300   0.282 -0.0917  0.6587  0.2543
 3808TIP3    H111388   5.561   3.240   0.318 -0.9410  0.0320  0.7500
 3808TIP3    H211389   5.504   3.378   0.337  3.0598  2.2929 -2.1151
 3809TIP3   OH211390   6.453   1.615   1.349  0.2206 -0.0079 -0.4746
 3809TIP3    H111391   6.510   1.634   1.275  1.2787 -0.3093  0.2451
 3809TIP3    H211392   6.380   1.566   1.311 -0.8021  2.4150 -1.7890
 3810TIP3   OH211393   0.782   0.178   3.941 -0.0495 -0.2987 -0.4357
 3810TIP3    H111394   0.822   0.245   3.885 -1.5248  1.1115  0.1220
 3810TIP3    H211395   0.816   0.197   4.028  0.3053 -0.9245 -0.4337
 3811TIP3   OH211396   1.222   1.930   0.603  0.0405 -0.5389  0.3389
 3811TIP3    H111397   1.224   1.951   0.509  1.0938 -1.6703  0.0665
 3811TIP3    H211398   1.262   1.843   0.608 -0.6688 -0.8067  1.7738
 3812TIP3   OH211399   1.640   0.431   0.191 -0.3523  0.3804  0.1436
 3812TIP3    H111400   1.683   0.352   0.157 -0.2335  0.3447  0.3727
 3812TIP3    H211401   1.613   0.407   0.279  0.5460  0.9032  0.5735
 3813TIP3   OH211402   2.977   4.193   2.342 -0.0669 -0.0784 -0.0480
 3813TIP3    H111403   3.060   4.167   2.304  0.5030  1.3326  0.1946
 3813TIP3    H211404   2.915   4.188   2.270  0.7566  1.3823 -0.8883
 3814TIP3   OH211405   6.387   0.019   3.360 -0.0921  0.1117  0.0272
 3814TIP3    H111406   6.377   0.037   3.267 -0.8553 -2.9954 -0.6093
 3814TIP3    H211407   6.481   0.018   3.374  0.0822 -0.7280 -1.0597
 3815TIP3   OH211408   4.096   5.555   1.566  0.4189  0.7820  0.3191
 3815TIP3    H111409   4.115   5.472   1.609  2.2172  0.4824 -0.9708
 3815TIP3    H211410   4.163   5.615   1.598  0.8425  0.9618 -0.8714
 3816TIP3   OH211411   7.057   0.809   4.972  0.3833 -0.2778  0.2974
 3816TIP3    H111412   6.986   0.754   5.004 -0.3691  0.5259  0.0219
 3816TIP3    H211413   7.121   0.747   4.937 -1.4760 -0.9469 -2.1513
 3817TIP3   OH211414   0.620   5.492   4.760 -0.4464 -0.1018  0.3165
 3817TIP3    H111415   0.704   5.478   4.716 -0.4338 -0.6719  0.5155
 3817TIP3    H211416   0.598   5.584   4.742  0.5871  0.2707  0.9152
 3818TIP3   OH211417   2.410   6.655   2.870 -0.1862  0.5613  0.0843
 3818TIP3    H111418   2.411   6.744   2.834  0.9142 -0.2876 -2.2405
 3818TIP3    H211419   2.338   6.612   2.824  0.5542 -0.2635 -0.3346
 3819TIP3   OH211420   6.572   3.869   4.492  0.7842  0.3382 -0.0207
 3819TIP3    H111421   6.544   3.892   4.404  1.4518 -0.5196 -0.4738
 3819TIP3    H211422   6.549   3.944   4.546 -2.3704 -0.2561 -0.3574
 3820TIP3   OH211423   3.507   0.728   0.653  0.2254 -0.5548 -0.6276
 3820TIP3    H111424   3.518   0.657   0.716  3.8412 -0.3353 -0.8368
 3820TIP3    H211425   3.494   0.684   0.569 -0.9333 -0.8674 -0.3104
 3821TIP3   OH211426   0.538   0.761   1.217 -0.0148  0.2719  0.3016
 3821TIP3    H111427   0.541   0.849   1.181 -1.2890  0.3233  0.2678
 3821TIP3    H211428   0.495   0.771   1.302 -1.0478 -0.4095 -0.1083
 3822TIP3   OH211429   2.508   2.024   1.493 -0.7680 -0.2417  0.1101
 3822TIP3    H111430   2.549   2.070   1.567  0.1721  1.1400 -1.2074
 3822TIP3    H211431   2.581   2.002   1.435 -1.4728 -1.4481 -0.3506
 3823TIP3   OH211432   2.445   3.016   4.180  0.0424  0.2483 -0.2560
 3823TIP3    H111433   2.381   3.018   4.251  1.5933 -1.2449  1.2994
 3823TIP3    H211434   2.433   3.099   4.135 -2.4299  0.3476  0.4267
 3824TIP3   OH211435   0.098   5.963   2.551  0.4241  0.2379 -0.2525
 3824TIP3    H111436   0.149   5.958   2.470 -0.0717 -0.2929 -0.5394
 3824TIP3    H211437   0.090   5.872   2.580  1.4375  0.4983  0.9417
 3825TIP3   OH211438   6.470   3.923   3.455 -0.1652  0.5594  0.8041
 3825TIP3    H111439   6.527   3.867   3.401 -2.4095 -0.6627 -0.4578
 3825TIP3    H211440   6.505   4.011   3.442 -0.6910  0.3846 -2.9803
 3826TIP3   OH211441   3.519   1.152   0.779 -0.3691 -0.0716 -0.0675
 3826TIP3    H111442   3.572   1.075   0.760 -0.0452  0.0486  0.3309
 3826TIP3    H211443   3.572   1.225   0.749  0.2804  0.1455  1.4813
 3827TIP3   OH211444   4.628   2.027   1.909 -0.2258  0.0920 -0.2420
 3827TIP3    H111445   4.722   2.043   1.917 -0.2088  0.0810 -0.4127
 3827TIP3    H211446   4.600   2.088   1.841 -0.0789 -0.9205 -1.2332
 3828TIP3   OH211447   2.183   4.168   0.884  0.2383  0.1260  0.2730
 3828TIP3    H111448   2.154   4.119   0.961  4.2027  0.5871  2.3610
 3828TIP3    H211449   2.114   4.155   0.820 -3.0588 -0.8381  3.6324
 3829TIP3   OH211450   5.144   6.576   4.769 -0.6274 -0.0483 -0.1265
 3829TIP3    H111451   5.056   6.563   4.804  0.0862 -0.2263  1.6775
 3829TIP3    H211452   5.196   6.608   4.843  0.6453  0.8969 -1.3589
 3830TIP3   OH211453   4.455   2.798   3.571 -0.3017 -0.1819 -0.4911
 3830TIP3    H111454   4.382   2.779   3.629 -0.5552  1.5679 -0.1936
 3830TIP3    H211455   4.462   2.893   3.571  2.3500 -0.3003 -0.0377
 3831TIP3   OH211456   2.320   4.186   3.473  0.0237  0.8144  0.2410
 3831TIP3    H111457   2.358   4.183   3.385 -1.6017  0.7422 -0.5104
 3831TIP3    H211458   2.342   4.102   3.512  0.7910  0.8558 -0.0850
 3832TIP3   OH211459   2.727   3.009   2.179  0.3259 -0.3612 -0.1114
 3832TIP3    H111460   2.806   2.969   2.144 -0.4788 -1.4430 -0.7450
 3832TIP3    H211461   2.731   3.100   2.150  0.5967 -0.7769 -1.4349
 3833TIP3   OH211462   5.034   1.907   2.082  0.4144 -0.1553  0.0608
 3833TIP3    H111463   5.070   1.977   2.136 -0.7432 -0.5673  1.4296
 3833TIP3    H211464   4.970   1.864   2.138  0.4726 -1.7677 -1.0415
 3834TIP3   OH211465   4.812   3.666   2.021  0.0678  0.3519 -0.3184
 3834TIP3    H111466   4.843   3.603   1.956  0.0892 -1.9385  1.7788
 3834TIP3    H211467   4.882   3.731   2.027  1.2142 -0.7955 -0.7811
 3835TIP3   OH211468   4.545   3.257   3.559  0.5724 -0.0418  0.3164
 3835TIP3    H111469   4.565   3.170   3.593 -0.4934 -0.6249 -0.5181
 3835TIP3    H211470   4.563   3.251   3.465 -0.5423  0.3147  0.0698
 3836TIP3   OH211471   1.607   2.806   0.131 -0.1632  0.3701  0.1197
 3836TIP3    H111472   1.687   2.757   0.144 -0.2985  0.0512 -0.2420
 3836TIP3    H211473   1.636   2.890   0.095  0.0140  0.2642  0.0120
 3837TIP3   OH211474   4.988   5.072   0.380 -0.5933  0.3073  0.0748
 3837TIP3    H111475   5.038   5.117   0.312 -1.8890  0.8096 -0.5794
 3837TIP3    H211476   5.045   5.073   0.456 -1.1563  4.7392  0.6982
 3838TIP3   OH211477   0.920   2.354   1.816  0.3483  0.4259 -0.4409
 3838TIP3    H111478   0.835   2.310   1.821  1.2877 -1.4809 -0.4717
 3838TIP3    H211479   0.972   2.299   1.758  2.3354  0.2365  1.4100
 3839TIP3   OH211480   6.902   5.479   3.670  0.0181 -0.4586  0.1292
 3839TIP3    H111481   6.941   5.550   3.619 -0.3597 -0.1301  0.2974
 3839TIP3    H211482   6.808   5.486   3.653 -0.0440 -0.7639  0.3443
 3840TIP3   OH211483   5.654   5.868   3.994 -0.1520 -1.3380 -0.2698
 3840TIP3    H111484   5.591   5.800   4.017  0.6848 -1.6896  1.0409
 3840TIP3    H211485   5.625   5.945   4.044 -0.0323 -1.2503 -0.3360
 3841TIP3   OH211486   5.977   5.581   4.451  0.2657  0.0986  0.6486
 3841TIP3    H111487   5.987   5.568   4.357  0.4705 -2.2786  0.9249
 3841TIP3    H211488   6.030   5.512   4.490 -1.1809 -0.0550  2.4817
 3842TIP3   OH211489   4.174   0.567   2.879 -0.2940 -0.5383  0.1894
 3842TIP3    H111490   4.120   0.498   2.840 -0.0819  0.0545 -1.2162
 3842TIP3    H211491   4.262   0.551   2.847 -0.0596 -0.1705  0.6302
 3843TIP3   OH211492   3.711   0.881   0.086  0.2657  0.1039  0.5968
 3843TIP3    H111493   3.793   0.898   0.040 -0.0839 -0.5603 -0.3016
 3843TIP3    H211494   3.660   0.961   0.074  1.4007  1.2124  2.6273
 3844TIP3   OH211495   5.291   1.086   1.805 -0.2149 -0.1731 -0.6149
 3844TIP3    H111496   5.351   1.157   1.783  0.1744  0.2397  1.5034
 3844TIP3    H211497   5.345   1.025   1.855 -1.6116  0.4983  1.8747
 3845TIP3   OH211498   4.068   3.238   2.069  0.0345  0.4086  0.7007
 3845TIP3    H111499   4.067   3.144   2.087 -0.1728  0.2271 -0.1673
 3845TIP3    H211500   4.097   3.278   2.150 -0.9927 -0.3211  1.4541
 3846TIP3   OH211501   2.839   1.603   0.774  0.2585 -0.0490 -0.0060
 3846TIP3    H111502   2.867   1.667   0.710  0.5097 -0.2316 -0.0811
 3846TIP3    H211503   2.900   1.614   0.847  1.6225 -1.5965 -0.8564
 3847TIP3   OH211504   5.347   6.660   1.601 -0.3131  0.3217  0.2110
 3847TIP3    H111505   5.257   6.661   1.568 -0.2512 -1.8364 -0.1258
 3847TIP3    H211506   5.345   6.717   1.678 -1.6887  1.1957 -0.4227
 3848TIP3   OH211507   3.493   6.059   1.863  0.3944  0.1132 -0.3869
 3848TIP3    H111508   3.445   6.127   1.910 -0.7771 -0.8627 -0.1163
 3848TIP3    H211509   3.507   5.990   1.928  0.4557 -0.4319 -0.9677
 3849TIP3   OH211510   6.275   3.338   3.721 -0.2070 -0.2964  0.2713
 3849TIP3    H111511   6.284   3.243   3.714 -1.3018 -0.4015  0.0664
 3849TIP3    H211512   6.304   3.371   3.636  2.8894 -0.1714  1.2383
 3850TIP3   OH211513   0.732   0.379   3.139 -0.4018  0.2314  0.2632
 3850TIP3    H111514   0.701   0.443   3.202 -1.9865  0.8649 -1.0736
 3850TIP3    H211515   0.678   0.394   3.061 -0.7767 -2.6257 -0.1464
 3851TIP3   OH211516   5.983   4.152   2.351 -0.3345 -0.1437  0.1197
 3851TIP3    H111517   5.901   4.137   2.397 -0.5905  1.4346  0.2445
 3851TIP3    H211518   6.011   4.065   2.322 -0.6007 -1.0756  2.4636
 3852TIP3   OH211519   3.689   4.928   3.248 -0.3106  0.2538  0.3404
 3852TIP3    H111520   3.696   4.956   3.157  1.2847 -1.8596 -0.2742
 3852TIP3    H211521   3.597   4.939   3.269 -0.5011  1.9169 -1.1171
 3853TIP3   OH211522   4.243   3.662   2.347 -0.0490  0.6268  0.7638
 3853TIP3    H111523   4.158   3.621   2.367 -0.3839  1.3530  0.8705
 3853TIP3    H211524   4.234   3.693   2.257  0.3962 -0.0105  0.4990
 3854TIP3   OH211525   4.856   0.473   3.679  0.5249  0.1378 -0.1778
 3854TIP3    H111526   4.788   0.405   3.678  0.4827  0.1526  0.7942
 3854TIP3    H211527   4.851   0.513   3.592 -0.1103 -0.4522 -0.4245
 3855TIP3   OH211528   0.009   5.784   1.039  0.4714  0.1445  0.0746
 3855TIP3    H111529   0.064   5.861   1.022 -0.4766  0.8231 -0.0262
 3855TIP3    H211530  -0.033   5.766   0.955  0.1038 -0.0149  0.2936
 3856TIP3   OH211531   6.699   2.911   0.825  0.1646  0.4076 -0.6249
 3856TIP3    H111532   6.670   2.825   0.855  0.2134  0.9560  1.1149
 3856TIP3    H211533   6.699   2.905   0.729 -0.4074 -1.3205 -0.5425
 3857TIP3   OH211534   2.541   1.144   5.728 -0.0381 -0.2097 -0.1532
 3857TIP3    H111535   2.544   1.050   5.708 -0.3159  0.0005 -1.2680
 3857TIP3    H211536   2.631   1.173   5.718 -0.0485 -0.2540 -0.3991
 3858TIP3   OH211537   5.996   3.410   2.066 -0.1459  0.3665 -0.4821
 3858TIP3    H111538   6.031   3.497   2.048  0.9804 -0.2853 -1.6101
 3858TIP3    H211539   6.072   3.357   2.091 -1.0395  0.0703  1.8552
 3859TIP3   OH211540   0.074   5.386   1.639 -0.2466 -0.1637  0.1974
 3859TIP3    H111541   0.109   5.475   1.634  0.2565 -0.2997  1.1161
 3859TIP3    H211542   0.017   5.378   1.562  0.7827  0.4721 -0.6533
 3860TIP3   OH211543   6.529   2.959   5.716 -0.0958 -0.6587 -0.1818
 3860TIP3    H111544   6.581   3.037   5.735 -2.4221  0.6581  1.3481
 3860TIP3    H211545   6.541   2.902   5.792 -0.4258 -0.6059 -0.0878
 3861TIP3   OH211546   1.191   5.177   2.428 -0.0796  0.4712 -0.0741
 3861TIP3    H111547   1.149   5.209   2.508  0.1437 -0.7190  0.5421
 3861TIP3    H211548   1.204   5.083   2.443 -1.3583 -0.0960 -2.0925
 3862TIP3   OH211549   6.667   6.718   4.440 -0.2876  0.0894 -0.3149
 3862TIP3    H111550   6.761   6.734   4.429 -0.4116  0.9648 -0.1821
 3862TIP3    H211551   6.653   6.720   4.534 -0.0499 -2.4730 -0.1747
 3863TIP3   OH211552   3.868   0.468   5.744  0.3833  0.4951 -0.1442
 3863TIP3    H111553   3.944   0.524   5.752  1.4516 -1.0873  2.0930
 3863TIP3    H211554   3.884   0.398   5.808 -2.5744 -0.3167 -0.1566
 3864TIP3   OH211555   3.635   6.413   0.371 -0.0146 -0.2680 -0.0159
 3864TIP3    H111556   3.589   6.451   0.297  0.1562  1.8209  0.8842
 3864TIP3    H211557   3.573   6.418   0.444  0.5020 -0.4659  0.4493
 3865TIP3   OH211558   4.931   4.348   2.226  0.0822 -0.2793  0.0239
 3865TIP3    H111559   4.922   4.348   2.321  0.1522  0.1799  0.0341
 3865TIP3    H211560   5.009   4.295   2.209  0.7279  0.5438  0.3029
 3866TIP3   OH211561   4.249   0.958   3.451 -0.3730  0.3282  0.2472
 3866TIP3    H111562   4.299   0.944   3.531 -0.1650  2.4650  0.5465
 3866TIP3    H211563   4.162   0.985   3.481 -0.8972 -0.7395 -0.2704
 3867TIP3   OH211564   4.780   2.648   5.723  0.2538 -0.0089 -0.0577
 3867TIP3    H111565   4.858   2.594   5.712  0.5563  0.2519  0.7339
 3867TIP3    H211566   4.782   2.708   5.648  2.0677  1.5006  1.1068
 3868TIP3   OH211567   1.816   1.628   4.906 -0.3731  0.0747  0.6907
 3868TIP3    H111568   1.871   1.583   4.970 -1.1499 -0.3561  1.0794
 3868TIP3    H211569   1.735   1.648   4.954 -1.6003 -1.6334 -0.5464
 3869TIP3   OH211570   2.710   1.770   1.808  0.2572  0.0893 -0.5121
 3869TIP3    H111571   2.669   1.684   1.808  0.9357 -0.2508  0.6713
 3869TIP3    H211572   2.763   1.771   1.728  0.6375 -0.7830 -0.2804
 3870TIP3   OH211573   3.520   0.219   5.561  0.1996 -0.1515  0.1912
 3870TIP3    H111574   3.488   0.133   5.587 -3.2628  0.5969 -0.9266
 3870TIP3    H211575   3.536   0.211   5.467  1.5237  0.0193  0.3892
 3871TIP3   OH211576   2.585   5.904   4.172 -0.5055 -0.2736  0.0403
 3871TIP3    H111577   2.661   5.948   4.134 -0.2040 -1.5067 -0.8489
 3871TIP3    H211578   2.531   5.878   4.097 -1.7549  0.4531  0.6533
 3872TIP3   OH211579   6.524   1.359   2.275 -0.8556 -0.3908 -0.1284
 3872TIP3    H111580   6.482   1.280   2.240  0.9459 -1.7348  0.5351
 3872TIP3    H211581   6.466   1.431   2.250 -0.6869 -1.4252 -4.2653
 3873TIP3   OH211582   4.639   4.524   2.594  0.2252 -0.4124  0.0143
 3873TIP3    H111583   4.561   4.516   2.648 -0.2151 -1.2435 -0.7174
 3873TIP3    H211584   4.677   4.436   2.593  1.3945  0.0509  0.6560
 3874TIP3   OH211585   1.941   4.732   2.645 -0.2783 -0.2998  0.0801
 3874TIP3    H111586   1.927   4.695   2.558 -0.7846  2.0349 -0.9055
 3874TIP3    H211587   1.879   4.805   2.650 -0.0226 -0.1697  2.2897
 3875TIP3   OH211588   3.082   1.311   3.698 -0.0132 -0.1959  0.3064
 3875TIP3    H111589   3.087   1.257   3.778 -0.6541 -2.0125 -0.8189
 3875TIP3    H211590   3.171   1.346   3.688  0.3522 -0.8035  1.2374
 3876TIP3   OH211591   2.588   5.363   4.063  0.2948 -0.2207  0.3116
 3876TIP3    H111592   2.518   5.354   4.128 -0.6252 -2.9613 -0.9211
 3876TIP3    H211593   2.544   5.357   3.979  1.7265  1.1549 -0.5941
 3877TIP3   OH211594   6.389   6.427   4.703 -0.0934 -0.2522 -0.2197
 3877TIP3    H111595   6.332   6.504   4.699  2.0860  1.4556 -0.9129
 3877TIP3    H211596   6.362   6.374   4.629 -1.1869  0.1848 -0.1592
 3878TIP3   OH211597   5.702   1.522   0.115 -0.0657 -0.4799 -0.0901
 3878TIP3    H111598   5.666   1.560   0.195  0.0750  0.3293 -0.4080
 3878TIP3    H211599   5.730   1.597   0.063  2.2566 -1.0825  0.2025
 3879TIP3   OH211600   2.649   6.804   1.910 -0.3591 -0.0668  0.3204
 3879TIP3    H111601   2.585   6.733   1.905 -1.4280  0.9344 -1.4194
 3879TIP3    H211602   2.656   6.836   1.820  0.2341  1.9056  1.0114
 3880TIP3   OH211603   2.985   6.473   4.789  0.2547  0.1221 -0.1298
 3880TIP3    H111604   2.924   6.502   4.857 -1.3844 -1.0062 -1.0463
 3880TIP3    H211605   3.038   6.550   4.768 -2.2647  1.7657 -0.7668
 3881TIP3   OH211606   6.214   4.752   0.808  0.5391 -1.1279  0.1100
 3881TIP3    H111607   6.193   4.755   0.714  1.5348  0.1929 -0.0943
 3881TIP3    H211608   6.130   4.731   0.850 -0.0714 -1.0728 -1.0178
 3882TIP3   OH211609   6.911   5.036   0.891  0.0124 -0.3836  0.1845
 3882TIP3    H111610   6.921   5.111   0.949  0.7580 -0.5728  0.3160
 3882TIP3    H211611   6.829   4.995   0.918 -0.2077  0.1651  0.3608
 3883TIP3   OH211612   1.150   4.363   1.878  0.2847  0.2881 -0.4271
 3883TIP3    H111613   1.084   4.356   1.947 -1.3918  0.6482 -1.8996
 3883TIP3    H211614   1.201   4.440   1.901 -0.1196  0.2918  0.4966
 3884TIP3   OH211615   1.300   3.190   0.734 -0.0059  0.1116 -0.0704
 3884TIP3    H111616   1.279   3.114   0.788  0.1701  0.0437 -0.0956
 3884TIP3    H211617   1.389   3.214   0.760  0.0665  0.0992 -0.3035
 3885TIP3   OH211618   7.136   4.740   3.174  0.0512 -0.0469 -0.0748
 3885TIP3    H111619   7.189   4.771   3.101 -1.2913  0.4732 -0.8712
 3885TIP3    H211620   7.154   4.646   3.179  1.5183  0.2257  0.1081
 3886TIP3   OH211621   5.650   5.152   5.018  0.1177  0.6614  0.4905
 3886TIP3    H111622   5.625   5.065   5.048  1.0285  0.2082 -0.0230
 3886TIP3    H211623   5.567   5.195   4.998 -0.2902 -0.8317 -1.2596
 3887TIP3   OH211624   3.438   5.900   2.317  0.2207 -0.1236 -0.1975
 3887TIP3    H111625   3.489   5.897   2.398  0.1187  1.0783 -0.0620
 3887TIP3    H211626   3.415   5.992   2.307 -1.9089 -0.6118 -0.2697
 3888TIP3   OH211627   6.233   5.351   5.826 -0.5371  0.5806 -0.1177
 3888TIP3    H111628   6.318   5.384   5.799  0.0176  0.2735  1.1688
 3888TIP3    H211629   6.183   5.429   5.851  0.5817  0.5757  2.4008
 3889TIP3   OH211630   5.160   3.483   3.631 -0.4304  0.3870 -0.0313
 3889TIP3    H111631   5.251   3.480   3.660  0.0056  0.3461 -1.3439
 3889TIP3    H211632   5.147   3.400   3.586 -1.2865  0.1776  0.5766
 3890TIP3   OH211633   3.998   2.468   4.505  0.5269 -0.3696  0.0226
 3890TIP3    H111634   3.945   2.531   4.457  1.5848 -0.2999 -1.1114
 3890TIP3    H211635   4.071   2.520   4.540 -0.3717 -0.3574  2.0151
 3891TIP3   OH211636   3.865   5.556   0.187 -0.2382 -0.3127 -0.2964
 3891TIP3    H111637   3.773   5.534   0.201 -1.1093  3.0137  0.1246
 3891TIP3    H211638   3.905   5.550   0.274 -0.5467  0.1298 -0.1215
 3892TIP3   OH211639   0.321   5.142   1.125 -0.1946 -0.7539  0.5293
 3892TIP3    H111640   0.383   5.076   1.155 -1.5055 -3.1525 -1.6534
 3892TIP3    H211641   0.372   5.199   1.068  1.1774  0.8804  3.1789
 3893TIP3   OH211642   0.038   6.227   4.587  0.3471  0.3751  0.0663
 3893TIP3    H111643  -0.034   6.224   4.524 -1.6064 -0.3565  2.1969
 3893TIP3    H211644   0.091   6.151   4.566 -0.1758  0.2366 -0.8093
 3894TIP3   OH211645   4.158   2.188   0.342 -0.0928  0.1814 -0.4825
 3894TIP3    H111646   4.090   2.241   0.300  0.5649  0.7028 -0.9209
 3894TIP3    H211647   4.171   2.229   0.427  1.1895  1.4431 -1.2448
 3895TIP3   OH211648   5.290   6.109   4.283  0.0642 -0.3455 -0.1341
 3895TIP3    H111649   5.222   6.100   4.350  0.2796 -0.6857  0.0438
 3895TIP3    H211650   5.327   6.196   4.297 -1.0429  0.2730 -0.9073
 3896TIP3   OH211651   5.409   3.772   4.155  0.1884 -0.3685 -0.4277
 3896TIP3    H111652   5.315   3.782   4.144  0.1579 -0.9119 -0.7015
 3896TIP3    H211653   5.428   3.814   4.239 -0.1674  0.4718 -0.7616
 3897TIP3   OH211654   1.033   4.909   4.914  0.0210  0.0756 -0.1473
 3897TIP3    H111655   1.024   4.999   4.883 -0.8066  0.2372  0.5368
 3897TIP3    H211656   0.973   4.858   4.860 -1.1652  0.3029  0.9095
 3898TIP3   OH211657   0.471   2.490   0.763  1.1242 -0.5724 -0.3167
 3898TIP3    H111658   0.458   2.491   0.668 -1.9742  1.3841 -0.0125
 3898TIP3    H211659   0.526   2.566   0.781 -1.4569  1.4646 -0.3783
 3899TIP3   OH211660   0.020   6.209   4.885 -0.2831  0.1765 -0.1413
 3899TIP3    H111661   0.020   6.251   4.798 -1.2586  2.0094  0.6732
 3899TIP3    H211662  -0.033   6.130   4.873  0.4293 -0.1442 -1.4226
 3900TIP3   OH211663   6.786   2.290   0.908  0.8779  0.3205  1.0808
 3900TIP3    H111664   6.833   2.231   0.967  2.2673  0.1121 -0.1566
 3900TIP3    H211665   6.717   2.237   0.870  1.2338 -0.1037  1.0224
 3901TIP3   OH211666   1.084   5.050   1.122  0.1289  0.7072 -0.3265
 3901TIP3    H111667   1.106   4.957   1.127  0.9052  0.8913 -0.1902
 3901TIP3    H211668   1.147   5.093   1.180  0.2436  1.3859 -0.9355
 3902TIP3   OH211669   3.876   2.442   5.289  0.1902 -0.2950  0.1979
 3902TIP3    H111670   3.875   2.528   5.245  1.7863 -0.6790 -0.6712
 3902TIP3    H211671   3.860   2.463   5.381 -0.0234  0.8736 -0.0764
 3903TIP3   OH211672   6.434   3.254   1.505  0.0092  0.6754 -0.0347
 3903TIP3    H111673   6.394   3.169   1.488  0.1917  0.1827  1.8493
 3903TIP3    H211674   6.361   3.313   1.518 -0.1103  0.4770  0.1869
 3904TIP3   OH211675   5.591   3.929   4.002 -0.3704  0.8394 -0.0433
 3904TIP3    H111676   5.531   3.981   3.948  0.0881 -0.0086 -1.4439
 3904TIP3    H211677   5.534   3.877   4.058 -0.9736  0.2889 -1.1175
 3905TIP3   OH211678   1.391   5.711   1.950 -0.7902  0.3542  0.4618
 3905TIP3    H111679   1.464   5.717   1.889 -0.6734 -0.4931  0.5049
 3905TIP3    H211680   1.369   5.618   1.952 -1.8257  0.5889  0.5040
 3906TIP3   OH211681   1.950   6.087   1.091  0.1987  0.2193 -0.0388
 3906TIP3    H111682   1.984   6.094   1.002  1.5283 -1.5448  0.2639
 3906TIP3    H211683   1.995   6.156   1.140  2.0279 -0.8891 -0.0625
 3907TIP3   OH211684   6.638   3.921   1.845 -0.1318  0.0191 -0.5503
 3907TIP3    H111685   6.550   3.960   1.849  0.1604  0.7146 -0.7981
 3907TIP3    H211686   6.669   3.921   1.935 -0.5999 -0.7496 -0.3748
 3908TIP3   OH211687   1.398   4.771   2.687 -0.0723 -0.4045  0.4382
 3908TIP3    H111688   1.308   4.781   2.719 -1.1459  1.0941 -2.6498
 3908TIP3    H211689   1.395   4.693   2.631  0.5924 -0.4219  0.4217
 3909TIP3   OH211690   3.413   4.113   0.510 -0.2098  0.7839 -0.2543
 3909TIP3    H111691   3.445   4.138   0.596 -1.7556  1.5175  0.1465
 3909TIP3    H211692   3.484   4.135   0.450  1.5370 -1.1879  0.9432
 3910TIP3   OH211693   5.859   0.136   3.187 -0.3911  0.1258 -0.3760
 3910TIP3    H111694   5.943   0.182   3.179  0.3857 -1.0459  0.6985
 3910TIP3    H211695   5.874   0.052   3.145 -1.0911 -0.0232 -0.3387
 3911TIP3   OH211696   2.389   0.247   4.265 -0.0821 -0.7109 -0.4304
 3911TIP3    H111697   2.310   0.193   4.252 -0.4037 -0.7705  1.4322
 3911TIP3    H211698   2.360   0.336   4.247 -0.1410 -0.9065 -1.3362
 3912TIP3   OH211699   0.320   5.615   1.476 -0.2017 -0.5187  0.8138
 3912TIP3    H111700   0.330   5.532   1.429 -0.0927 -0.2280  0.3154
 3912TIP3    H211701   0.263   5.667   1.420 -1.6082 -0.8435  1.8998
 3913TIP3   OH211702   0.473   0.574   4.282 -0.0692  0.5019  0.2439
 3913TIP3    H111703   0.407   0.514   4.250 -1.4083  1.2601  1.4808
 3913TIP3    H211704   0.451   0.658   4.241  1.4903  0.3294 -1.0832
 3914TIP3   OH211705   2.019   2.233   5.105  0.1610  0.0331 -0.3042
 3914TIP3    H111706   2.002   2.299   5.037 -0.6158 -0.8848 -1.0333
 3914TIP3    H211707   1.941   2.178   5.104  0.5911 -0.6083  0.6299
 3915TIP3   OH211708   4.491   5.884   0.475  0.4189  0.0645 -0.2851
 3915TIP3    H111709   4.523   5.899   0.564  0.4941 -1.5241 -0.0061
 3915TIP3    H211710   4.424   5.815   0.485  0.9516 -0.6677 -1.5251
 3916TIP3   OH211711   2.404   2.460   0.240 -0.1947  0.8036 -0.6116
 3916TIP3    H111712   2.368   2.432   0.324 -0.8593  0.2876 -1.0540
 3916TIP3    H211713   2.362   2.544   0.223 -0.9246  0.3824 -0.9460
 3917TIP3   OH211714   5.725   3.501   2.070  0.3606  0.2708  0.1387
 3917TIP3    H111715   5.715   3.468   1.981 -1.3575 -0.5742  0.6090
 3917TIP3    H211716   5.816   3.482   2.093  0.8261  0.5340 -1.4286
 3918TIP3   OH211717   6.507   3.546   3.276 -0.3697  0.3057 -0.1344
 3918TIP3    H111718   6.563   3.624   3.272 -0.2689  0.3000  0.8691
 3918TIP3    H211719   6.566   3.473   3.255  0.0129  0.3067  0.8608
 3919TIP3   OH211720   5.016   2.578   2.565  0.0426  0.3380  0.1618
 3919TIP3    H111721   5.067   2.502   2.536  1.0817  0.7405  0.8904
 3919TIP3    H211722   5.002   2.629   2.485  0.1651 -0.1330 -0.1650
 3920TIP3   OH211723   2.686   4.531   1.560  0.3732 -0.1926 -0.7485
 3920TIP3    H111724   2.638   4.500   1.483 -0.0079 -1.0976 -0.1686
 3920TIP3    H211725   2.658   4.621   1.571 -1.3201 -0.7346 -0.3591
 3921TIP3   OH211726   4.084   1.180   0.713  1.0198  0.4005  0.6459
 3921TIP3    H111727   4.095   1.275   0.715  2.4301  0.2857 -0.4208
 3921TIP3    H211728   4.167   1.147   0.678  0.4427 -1.2115  0.7302
 3922TIP3   OH211729   1.020   4.402   0.538  0.1459 -0.1753  0.1512
 3922TIP3    H111730   1.054   4.373   0.453 -1.1573  0.1174 -0.4896
 3922TIP3    H211731   1.037   4.496   0.539 -1.3810  0.1255 -0.5456
 3923TIP3   OH211732   4.306   4.548   3.559 -0.1745  0.4659  0.0403
 3923TIP3    H111733   4.243   4.542   3.630  0.1200  1.9949  0.4726
 3923TIP3    H211734   4.286   4.475   3.501 -0.2458 -0.9862  1.8318
 3924TIP3   OH211735   6.714   2.225   5.583 -0.3509 -0.0389 -0.0391
 3924TIP3    H111736   6.675   2.138   5.581  1.4775 -0.8905 -0.0256
 3924TIP3    H211737   6.779   2.224   5.513 -0.1878  1.2634  0.0726
 3925TIP3   OH211738   4.558   3.664   2.675  0.7813  0.1913 -0.0311
 3925TIP3    H111739   4.581   3.745   2.721  2.0672  0.6504 -1.3861
 3925TIP3    H211740   4.503   3.693   2.602  0.4590 -0.2731  0.0261
 3926TIP3   OH211741   0.489   4.460   0.568 -0.1274  0.3183 -0.1140
 3926TIP3    H111742   0.437   4.473   0.489  0.4265  0.5611 -0.4400
 3926TIP3    H211743   0.495   4.546   0.608 -1.5538 -0.0153  0.9416
 3927TIP3   OH211744   2.133   5.625   1.754  0.1558  0.2136 -0.1874
 3927TIP3    H111745   2.037   5.626   1.757  0.1729 -0.1857  0.6945
 3927TIP3    H211746   2.154   5.612   1.662 -0.7069 -3.9753  0.0199
 3928TIP3   OH211747   6.058   5.139   3.276  0.2582  0.0143 -0.0208
 3928TIP3    H111748   5.982   5.190   3.303  2.1745  1.9366  2.2637
 3928TIP3    H211749   6.052   5.058   3.327 -0.7030 -0.2596 -0.5506
 3929TIP3   OH211750   6.927   1.157   1.487 -0.2196  0.3799  0.0041
 3929TIP3    H111751   6.996   1.176   1.550  3.9374 -1.7490 -3.4151
 3929TIP3    H211752   6.929   1.230   1.425 -1.4275  0.5210  0.1103
 3930TIP3   OH211753   5.800   6.396   5.602  0.6589 -0.7401  0.2023
 3930TIP3    H111754   5.842   6.479   5.626 -1.9921  0.3003  1.6494
 3930TIP3    H211755   5.781   6.405   5.509  1.7444 -0.3841  0.0041
 3931TIP3   OH211756   0.097   1.547   3.096 -0.0446  0.1630 -0.0336
 3931TIP3    H111757   0.047   1.516   3.172  0.5557 -0.9458 -0.0684
 3931TIP3    H211758   0.149   1.619   3.130 -1.7834  1.5016 -0.0456
 3932TIP3   OH211759   7.214   1.741   1.612 -0.1349  0.3906  0.2789
 3932TIP3    H111760   7.139   1.780   1.569  1.2066  0.8555 -1.7690
 3932TIP3    H211761   7.233   1.800   1.685 -1.2920  0.6590  0.3797
 3933TIP3   OH211762   2.878   2.383   1.571 -0.0027 -0.7029 -0.0833
 3933TIP3    H111763   2.939   2.323   1.616  0.2591 -0.2486  0.1829
 3933TIP3    H211764   2.929   2.419   1.499 -0.6257 -1.9338 -1.1910
 3934TIP3   OH211765   1.149   0.928   4.300  0.3614 -0.4805 -0.1148
 3934TIP3    H111766   1.152   0.835   4.279 -0.7909 -0.6908  0.5756
 3934TIP3    H211767   1.184   0.971   4.222  0.9878 -1.4863 -0.4049
 3935TIP3   OH211768   3.882   3.082   4.949 -0.6765  0.0450  0.1453
 3935TIP3    H111769   3.881   3.117   5.038  0.9080  0.2322  0.1215
 3935TIP3    H211770   3.917   2.993   4.959  1.0703  0.6170 -0.4108
 3936TIP3   OH211771   0.437   3.182   2.129  0.1054  0.1000  0.1541
 3936TIP3    H111772   0.513   3.128   2.153 -0.5780 -0.2894  1.5674
 3936TIP3    H211773   0.427   3.169   2.035  2.8278  1.5466 -0.4150
 3937TIP3   OH211774   3.957   5.810   1.839 -0.1261  0.4128  0.1495
 3937TIP3    H111775   3.967   5.790   1.746  0.6205  1.9749 -0.1336
 3937TIP3    H211776   4.044   5.838   1.867 -0.4767  0.4935  1.1874
 3938TIP3   OH211777   3.230   0.863   5.256 -0.1342  0.2685 -0.2266
 3938TIP3    H111778   3.174   0.826   5.188  0.5571 -0.1399 -0.5703
 3938TIP3    H211779   3.171   0.922   5.305 -1.4314 -1.7060  0.7310
 3939TIP3   OH211780   3.747   2.750   3.954 -0.4895 -0.3654  0.7104
 3939TIP3    H111781   3.837   2.775   3.935 -0.6056  0.5738  1.3065
 3939TIP3    H211782   3.752   2.658   3.979  0.3242 -0.2885  0.8546
 3940TIP3   OH211783   2.541   1.554   1.760 -0.4798  0.6847  0.4168
 3940TIP3    H111784   2.469   1.578   1.818  0.1968 -0.3333  1.7398
 3940TIP3    H211785   2.501   1.547   1.674 -1.7759  1.0463  0.9632
 3941TIP3   OH211786   1.328   4.679   0.670 -0.1650 -0.0715 -0.2053
 3941TIP3    H111787   1.304   4.652   0.759  0.4564  0.4173  0.1221
 3941TIP3    H211788   1.372   4.763   0.682 -0.7542  0.3795 -1.0552
 3942TIP3   OH211789   3.342   3.718   5.795 -0.7761 -0.2667  0.0590
 3942TIP3    H111790   3.249   3.740   5.785 -0.4237  2.0734  1.2819
 3942TIP3    H211791   3.383   3.745   5.713 -0.9880 -0.2527 -0.0423
 3943TIP3   OH211792   2.969   5.135   0.420 -0.1850  0.2936  0.1177
 3943TIP3    H111793   2.989   5.132   0.326  2.1119  1.2550  0.5191
 3943TIP3    H211794   3.052   5.113   0.463 -0.5549  2.2264  1.9532
 3944TIP3   OH211795   7.164   0.985   3.137  0.5144  0.2972  0.2678
 3944TIP3    H111796   7.199   0.901   3.165  1.7995  0.5147 -0.5938
 3944TIP3    H211797   7.086   0.998   3.191  0.1984 -1.5003  0.3112
 3945TIP3   OH211798   5.760   1.262   0.049 -0.0498 -0.3035  0.2197
 3945TIP3    H111799   5.762   1.354   0.077 -0.7010 -0.2762  0.1986
 3945TIP3    H211800   5.759   1.212   0.130 -0.4968 -0.2633  0.2443
 3946TIP3   OH211801   5.441   5.445   0.633  0.0211 -0.1030  0.3604
 3946TIP3    H111802   5.531   5.426   0.609 -0.6764 -2.2524 -0.8212
 3946TIP3    H211803   5.405   5.493   0.559  0.4205  1.7119  1.2769
 3947TIP3   OH211804   5.028   1.540   5.446  0.0209  0.4642  0.9739
 3947TIP3    H111805   5.033   1.631   5.475  0.2967  0.3079  1.4319
 3947TIP3    H211806   5.007   1.545   5.353 -1.4142  0.9741  1.2966
 3948TIP3   OH211807   0.848   4.999   2.996 -0.0746 -0.0824 -0.4368
 3948TIP3    H111808   0.941   5.009   3.015 -0.3432 -1.8745  2.1749
 3948TIP3    H211809   0.846   4.955   2.911  1.5499 -1.5398  0.2171
 3949TIP3   OH211810   5.144   3.998   3.695 -0.4444 -0.6441  0.1141
 3949TIP3    H111811   5.136   4.085   3.656  0.9471 -0.2014  0.7770
 3949TIP3    H211812   5.068   3.950   3.661 -0.9171  0.6385 -0.7180
 3950TIP3   OH211813   1.164   6.603   1.854 -0.1855  0.0035  0.3739
 3950TIP3    H111814   1.157   6.581   1.947  0.6769 -0.2168  0.3995
 3950TIP3    H211815   1.074   6.618   1.826 -0.5547 -0.9136  1.0120
 3951TIP3   OH211816   4.013   1.457   2.274  0.4140  0.3121  0.0779
 3951TIP3    H111817   4.066   1.397   2.326  0.0128  0.9091  1.2167
 3951TIP3    H211818   3.925   1.419   2.276  0.9774 -1.5324 -3.1143
 3952TIP3   OH211819   7.167   2.182   2.069 -0.5356  0.8881 -0.0190
 3952TIP3    H111820   7.231   2.155   2.135 -0.3751  2.2548  0.4192
 3952TIP3    H211821   7.094   2.218   2.120 -1.9062 -1.0780 -0.4906
 3953TIP3   OH211822   2.055   0.243   2.206  0.2771 -0.5861  0.2288
 3953TIP3    H111823   2.071   0.209   2.294 -0.7284  0.2708  0.7575
 3953TIP3    H211824   2.134   0.219   2.157  1.6596  0.4616  1.8175
 3954TIP3   OH211825   5.518   1.866   0.688  0.2793 -0.1493  0.1598
 3954TIP3    H111826   5.465   1.850   0.610 -0.0528  1.4238  0.0318
 3954TIP3    H211827   5.454   1.867   0.760  0.5444 -1.2833  0.4261
 3955TIP3   OH211828   5.485   1.928   4.141  0.0077  0.5079  0.6093
 3955TIP3    H111829   5.488   1.980   4.061 -0.5688 -0.5155 -0.1059
 3955TIP3    H211830   5.394   1.929   4.168  0.0753  0.2753  0.8625
 3956TIP3   OH211831   6.813   2.142   0.558 -0.0478 -0.0828 -0.5655
 3956TIP3    H111832   6.859   2.061   0.581  0.6163  0.5320  0.3517
 3956TIP3    H211833   6.723   2.114   0.541 -0.4087 -0.7548  2.0070
 3957TIP3   OH211834   4.383   3.665   4.141  0.5702 -0.3255  0.5644
 3957TIP3    H111835   4.446   3.596   4.162 -0.8793 -0.9701  3.1165
 3957TIP3    H211836   4.397   3.732   4.208  0.4637  0.8811 -0.5810
 3958TIP3   OH211837   5.013   5.835   2.156 -0.4400 -0.4850 -0.1929
 3958TIP3    H111838   5.051   5.875   2.234 -0.3784 -1.2662  0.1891
 3958TIP3    H211839   4.949   5.898   2.125 -1.3428 -0.6874  1.1906
 3959TIP3   OH211840   3.225   4.502   2.402  0.3659 -0.5657  0.1934
 3959TIP3    H111841   3.184   4.441   2.464  0.1850 -0.5759  0.0673
 3959TIP3    H211842   3.278   4.560   2.456  0.6335 -0.9113  0.3018
 3960TIP3   OH211843   5.209   0.124   2.397 -0.0205  0.0269  0.5305
 3960TIP3    H111844   5.303   0.112   2.378 -0.6232 -4.6672 -0.7787
 3960TIP3    H211845   5.205   0.137   2.492  1.9437 -1.2391  0.8499
 3961TIP3   OH211846   6.379   6.279   4.953  0.2722 -0.1326 -0.0829
 3961TIP3    H111847   6.294   6.234   4.949 -1.2115  2.4053  0.5783
 3961TIP3    H211848   6.366   6.358   4.902  2.9653 -0.6116 -1.6818
 3962TIP3   OH211849   2.230   1.852   1.154  0.8409  0.2239 -0.4178
 3962TIP3    H111850   2.230   1.947   1.140 -0.3487  0.1195 -1.3737
 3962TIP3    H211851   2.216   1.842   1.248 -1.8531  1.0480 -0.6393
 3963TIP3   OH211852   6.491   1.391   1.861 -0.3713 -0.3025 -0.5844
 3963TIP3    H111853   6.503   1.437   1.778 -0.9884  1.6697  0.3593
 3963TIP3    H211854   6.399   1.364   1.862 -0.4937  0.1201 -0.3324
 3964TIP3   OH211855   5.549   0.290   3.690 -0.0092 -0.1707  0.7042
 3964TIP3    H111856   5.634   0.247   3.698 -0.3674 -1.3027 -1.0946
 3964TIP3    H211857   5.570   0.381   3.668  0.7359 -0.5069 -0.0033
 3965TIP3   OH211858   7.129   4.903   4.851 -0.5176  0.6409 -0.2387
 3965TIP3    H111859   7.173   4.966   4.794 -0.6170 -0.3520 -1.4707
 3965TIP3    H211860   7.038   4.903   4.820 -0.7175  0.5445  0.3454
 3966TIP3   OH211861   2.613   3.555   3.078 -0.1012 -0.0580  0.0731
 3966TIP3    H111862   2.706   3.533   3.069 -0.4805 -1.3821 -0.8475
 3966TIP3    H211863   2.580   3.560   2.989 -1.2826 -1.3361  0.3994
 3967TIP3   OH211864   4.428   6.118   1.960 -0.1407 -0.0386  0.2019
 3967TIP3    H111865   4.474   6.200   1.941 -0.9406  0.4171  0.2151
 3967TIP3    H211866   4.396   6.088   1.876 -0.7445  0.2108  0.3368
 3968TIP3   OH211867   5.269   5.121   0.979 -0.1540  0.0155  0.2414
 3968TIP3    H111868   5.191   5.097   0.929 -0.0517  0.8454 -0.3486
 3968TIP3    H211869   5.333   5.146   0.912  0.2201  0.4651  0.7553
 3969TIP3   OH211870   0.415   1.672   5.198 -0.7762  0.1373  0.1110
 3969TIP3    H111871   0.326   1.657   5.167 -0.8719  1.5558 -0.3516
 3969TIP3    H211872   0.409   1.667   5.294 -1.0833 -1.0608  0.0457
 3970TIP3   OH211873   4.881   1.549   1.725  0.1887  1.3670  0.4180
 3970TIP3    H111874   4.917   1.471   1.683 -2.3405  0.4206 -0.1838
 3970TIP3    H211875   4.945   1.572   1.792  1.5491 -0.5639 -0.1260
 3971TIP3   OH211876   6.998   6.703   1.003 -0.6143  0.1400 -0.0042
 3971TIP3    H111877   7.034   6.615   1.011 -2.0725 -0.4492  0.4126
 3971TIP3    H211878   7.072   6.757   0.974  0.2220 -1.2708 -0.5892
 3972TIP3   OH211879   0.957   6.062   1.587  0.5209 -0.0816  0.2376
 3972TIP3    H111880   0.986   6.003   1.657  0.3323 -0.9339 -0.3803
 3972TIP3    H211881   0.866   6.036   1.570  1.0468 -1.0198 -1.4220
 3973TIP3   OH211882   4.304   2.656   0.561 -0.1673 -0.0434  0.2565
 3973TIP3    H111883   4.337   2.624   0.644  1.1339 -0.5618 -0.4320
 3973TIP3    H211884   4.247   2.586   0.529 -1.3367  0.4973  1.0484
 3974TIP3   OH211885   3.568   1.415   1.421  0.0024 -0.3398  0.6094
 3974TIP3    H111886   3.494   1.475   1.413  0.5710  0.2420 -0.5628
 3974TIP3    H211887   3.551   1.347   1.355  0.0265 -0.7482  1.0175
 3975TIP3   OH211888   2.396   0.100   3.916  0.6224  0.1275  0.7785
 3975TIP3    H111889   2.396   0.052   3.999  1.2730  0.4977  1.0020
 3975TIP3    H211890   2.309   0.085   3.880  0.3594 -0.1116  1.4881
 3976TIP3   OH211891   6.564   3.584   0.825 -0.0278 -0.2267  0.3551
 3976TIP3    H111892   6.471   3.600   0.814 -0.2556 -2.3543 -1.5008
 3976TIP3    H211893   6.604   3.614   0.743  0.5955 -1.4155  0.2056
 3977TIP3   OH211894   1.463   5.289   5.474 -0.0496 -0.4809  0.5523
 3977TIP3    H111895   1.422   5.208   5.444 -1.3499 -0.3411  1.8434
 3977TIP3    H211896   1.506   5.266   5.556  1.4068 -0.3230 -0.1435
 3978TIP3   OH211897   1.310   2.152   0.751  0.5126  0.4675 -0.8959
 3978TIP3    H111898   1.260   2.078   0.716 -1.6628 -0.2795  3.1965
 3978TIP3    H211899   1.271   2.229   0.709  0.3212 -0.4651 -2.5128
 3979TIP3   OH211900   3.530   2.410   4.466 -0.6457  0.4476  0.0180
 3979TIP3    H111901   3.547   2.488   4.414 -0.1526  1.3373  1.4332
 3979TIP3    H211902   3.616   2.384   4.499 -1.0467  0.5429  1.2031
 3980TIP3   OH211903   2.939   3.152   0.174 -0.2091  0.0980 -0.4497
 3980TIP3    H111904   2.973   3.176   0.260 -0.5463 -1.2391  0.0684
 3980TIP3    H211905   2.900   3.066   0.186 -2.6254  0.9708 -1.3226
 3981TIP3   OH211906   5.092   0.712   1.195  0.7967  0.6138 -0.0852
 3981TIP3    H111907   5.104   0.727   1.289 -1.0227 -1.5992  0.5959
 3981TIP3    H211908   5.159   0.647   1.173 -0.3135 -0.6954  0.2920
 3982TIP3   OH211909   5.983   6.793   1.685 -0.6634 -0.2656  0.1456
 3982TIP3    H111910   5.923   6.852   1.731 -0.1524  0.8674 -0.5842
 3982TIP3    H211911   5.938   6.709   1.684 -2.6431  0.7269 -1.0623
 3983TIP3   OH211912   5.738   5.794   1.636 -0.0053 -0.1831  0.0644
 3983TIP3    H111913   5.799   5.737   1.682  4.0496  0.9314 -3.3406
 3983TIP3    H211914   5.703   5.740   1.566 -1.8451 -0.3267  1.0161
 3984TIP3   OH211915   2.739   2.076   0.373  0.2660 -0.3678 -0.3423
 3984TIP3    H111916   2.720   1.982   0.377 -1.1685 -0.1072 -0.4246
 3984TIP3    H211917   2.828   2.081   0.338  0.2399 -1.6807 -0.6530
 3985TIP3   OH211918   1.107   4.107   0.472 -0.1489  0.0022 -0.0761
 3985TIP3    H111919   1.066   4.079   0.554 -0.4728  1.6057  0.3487
 3985TIP3    H211920   1.036   4.103   0.407 -0.4219  0.6052  0.1710
 3986TIP3   OH211921   3.740   5.203   1.085 -0.4764  0.2661 -0.1247
 3986TIP3    H111922   3.808   5.257   1.126 -0.3811  0.0102  0.0619
 3986TIP3    H211923   3.670   5.265   1.064 -0.0483  0.5866 -0.6289
 3987TIP3   OH211924   0.449   4.485   3.500  0.0542  0.1679 -0.1153
 3987TIP3    H111925   0.482   4.427   3.431 -0.6013 -1.0721  0.5645
 3987TIP3    H211926   0.417   4.562   3.454 -1.0410 -0.9355 -1.2906
 3988TIP3   OH211927   0.421   5.714   4.321 -0.6902 -0.0065  0.7704
 3988TIP3    H111928   0.478   5.743   4.392  0.8379  0.4584 -0.5903
 3988TIP3    H211929   0.370   5.791   4.298  0.6689  0.6177 -0.3156
 3989TIP3   OH211930   7.124   2.626   5.501  0.2692 -0.3490 -0.0061
 3989TIP3    H111931   7.197   2.636   5.562  0.5077 -1.0476 -0.1678
 3989TIP3    H211932   7.046   2.631   5.556  0.4587 -0.1475  0.2437
 3990TIP3   OH211933   0.998   0.914   2.924 -0.1066  0.6063 -0.2561
 3990TIP3    H111934   0.937   0.980   2.958  0.9477  1.2337  0.5128
 3990TIP3    H211935   1.084   0.958   2.928  0.3762 -0.2006 -1.4243
 3991TIP3   OH211936   6.043   2.368   3.663  0.5634  0.2152 -0.2393
 3991TIP3    H111937   6.054   2.387   3.756 -0.1398 -0.7828  0.0699
 3991TIP3    H211938   5.995   2.285   3.662 -0.2728  0.6912 -1.4903
 3992TIP3   OH211939   3.021   5.203   2.737  0.1772 -0.1195 -0.2174
 3992TIP3    H111940   3.008   5.150   2.658  0.6538  1.2927 -1.2890
 3992TIP3    H211941   2.954   5.173   2.797 -0.1071 -1.3392 -1.0975
 3993TIP3   OH211942   4.804   3.681   2.948  0.2365  0.6474  0.2869
 3993TIP3    H111943   4.868   3.616   2.978  0.0452 -0.4964 -1.6080
 3993TIP3    H211944   4.841   3.715   2.867 -1.7233 -0.4556 -1.1794
 3994TIP3   OH211945   3.654   2.869   5.663 -0.1894  0.0258  0.3863
 3994TIP3    H111946   3.640   2.959   5.634  2.0303  0.2146 -0.2752
 3994TIP3    H211947   3.694   2.825   5.588  3.0510 -0.2380  2.0696
 3995TIP3   OH211948   1.487   2.224   3.484  0.4263  0.1108 -0.0551
 3995TIP3    H111949   1.516   2.306   3.524  0.0240 -0.8770  2.4590
 3995TIP3    H211950   1.564   2.191   3.438  0.7582  1.5965 -0.6076
 3996TIP3   OH211951   0.339   5.922   2.903  0.1064  0.1935 -0.5640
 3996TIP3    H111952   0.312   5.839   2.943  0.1268 -0.5580 -2.0629
 3996TIP3    H211953   0.257   5.963   2.875  0.2407 -0.6155 -2.2611
 3997TIP3   OH211954   2.838   3.562   0.482 -0.6645 -0.5360 -0.7161
 3997TIP3    H111955   2.905   3.538   0.546  1.6682  0.5446 -2.6160
 3997TIP3    H211956   2.778   3.618   0.531  0.7274 -0.1709  0.6591
 3998TIP3   OH211957   2.974   2.098   3.087  0.9123 -0.5365  0.0711
 3998TIP3    H111958   2.972   2.191   3.065 -0.9449 -0.5642 -0.0280
 3998TIP3    H211959   2.923   2.056   3.017 -0.3528 -1.3109  1.4035
 3999TIP3   OH211960   5.554   3.955   1.585  0.6305  0.6988  0.0527
 3999TIP3    H111961   5.590   4.043   1.599 -0.3938  1.2055 -0.4121
 3999TIP3    H211962   5.460   3.969   1.573  0.5092 -0.4248 -0.4241
 4000TIP3   OH211963   4.378   6.059   1.176  0.2960  0.0477 -0.3723
 4000TIP3    H111964   4.309   6.002   1.210  1.7221 -1.8689 -0.5073
 4000TIP3    H211965   4.454   6.041   1.233  0.8740  1.6004 -0.6198
 4001TIP3   OH211966   6.026   5.041   0.827 -0.0385  0.2681 -0.0317
 4001TIP3    H111967   5.984   5.116   0.785  0.4386  0.8322  0.4819
 4001TIP3    H211968   6.110   5.032   0.782  0.2088  0.4848  0.3906
 4002TIP3   OH211969   1.065   1.650   0.063 -0.5004 -0.0132  0.7891
 4002TIP3    H111970   1.105   1.628   0.147 -0.2453  0.7647  0.8889
 4002TIP3    H211971   1.106   1.591  -0.001 -1.1525 -1.0375  1.2923
 4003TIP3   OH211972   5.704   0.574   1.383  0.0924  0.1966 -0.5319
 4003TIP3    H111973   5.662   0.650   1.423  0.7605  1.2247 -1.7204
 4003TIP3    H211974   5.790   0.605   1.357 -0.0160 -0.6481 -1.9938
 4004TIP3   OH211975   3.453   5.450   0.682  0.5845 -0.8350 -0.1816
 4004TIP3    H111976   3.469   5.482   0.593  0.4424  2.3377  0.7976
 4004TIP3    H211977   3.366   5.409   0.677 -1.3043  2.7882 -0.8738
 4005TIP3   OH211978   0.786   1.555   3.875  0.4227 -0.2626 -0.0867
 4005TIP3    H111979   0.789   1.613   3.951 -0.5955  0.6745 -0.7253
 4005TIP3    H211980   0.834   1.602   3.807 -0.0902 -0.3228 -0.5025
 4006TIP3   OH211981   2.910   3.770   0.791  0.3633 -0.2177 -0.3323
 4006TIP3    H111982   2.898   3.791   0.699 -0.3580  0.6094 -0.0657
 4006TIP3    H211983   2.831   3.802   0.834  0.2014 -1.5461  0.4331
 4007TIP3   OH211984   3.420   3.459   5.733 -0.3578  0.1017 -0.1702
 4007TIP3    H111985   3.388   3.424   5.816  1.3969 -0.4097  0.3135
 4007TIP3    H211986   3.428   3.553   5.749  2.1536 -0.2321  1.0764
 4008TIP3   OH211987   2.609   6.294   3.673  0.5461  0.7215 -0.1597
 4008TIP3    H111988   2.542   6.277   3.739  1.9594  1.4811  1.5567
 4008TIP3    H211989   2.662   6.365   3.709  2.0103  0.4656 -1.6438
 4009TIP3   OH211990   6.928   3.451   4.184 -0.1396  0.0987 -0.4462
 4009TIP3    H111991   6.977   3.529   4.161 -1.6107  0.8160 -1.2542
 4009TIP3    H211992   6.917   3.404   4.102 -0.5224 -0.2137 -0.2221
 4010TIP3   OH211993   4.194   1.807   2.676  0.6523  0.1464  0.0206
 4010TIP3    H111994   4.162   1.896   2.664 -0.5137 -0.4406 -1.6194
 4010TIP3    H211995   4.288   1.816   2.688  0.6505  1.5555 -0.8533
 4011TIP3   OH211996   0.866   2.690   5.277 -0.2730 -0.2957  0.2913
 4011TIP3    H111997   0.772   2.674   5.277 -0.6206  1.1837 -2.1171
 4011TIP3    H211998   0.901   2.627   5.214 -0.0741  0.8397 -0.7772
 4012TIP3   OH211999   1.818   4.105   4.922 -0.3479  0.0332  0.2137
 4012TIP3    H112000   1.768   4.032   4.959 -1.5872  1.2546  1.0781
 4012TIP3    H212001   1.909   4.081   4.934 -0.6667 -0.0784  3.3387
 4013TIP3   OH212002   2.328   6.586   5.482  0.1209  0.6112  0.1685
 4013TIP3    H112003   2.279   6.660   5.446 -0.7870  0.3601  0.8562
 4013TIP3    H212004   2.410   6.586   5.433 -0.4781  1.1644 -0.8714
 4014TIP3   OH212005   6.951   4.746   0.652  0.1050  0.1653  0.2848
 4014TIP3    H112006   7.029   4.795   0.678  0.4913  0.3436 -1.0956
 4014TIP3    H212007   6.894   4.747   0.729  1.9442 -0.9815  1.7363
 4015TIP3   OH212008   2.745   6.633   0.627 -0.0451 -0.0934  0.1069
 4015TIP3    H112009   2.718   6.581   0.703  0.7030  0.0410  0.4709
 4015TIP3    H212010   2.672   6.691   0.610 -1.4136 -2.0174 -1.0106
 4016TIP3   OH212011   3.013   3.532   0.708  0.3260 -0.0280 -0.3749
 4016TIP3    H112012   3.015   3.623   0.738 -0.5085  0.4274 -1.6220
 4016TIP3    H212013   3.103   3.512   0.685  0.6329  0.2587  0.5410
 4017TIP3   OH212014   3.273   0.821   3.178  0.8348  0.3413 -0.6503
 4017TIP3    H112015   3.247   0.730   3.169 -0.3579  0.6651 -0.7009
 4017TIP3    H212016   3.342   0.821   3.245 -1.5322 -0.2325  1.9728
 4018TIP3   OH212017   4.596   1.143   2.152  0.0552  0.2910 -0.1671
 4018TIP3    H112018   4.549   1.113   2.231 -0.3282  0.0342 -0.4887
 4018TIP3    H212019   4.528   1.152   2.086  0.4108  0.2825 -0.5359
 4019TIP3   OH212020   2.436   2.741   1.999  0.2444 -0.3978  1.0645
 4019TIP3    H112021   2.457   2.649   2.015 -0.2820 -0.4102  1.7557
 4019TIP3    H212022   2.367   2.761   2.062 -2.1500 -0.4927 -1.3376
 4020TIP3   OH212023   5.249   5.956   5.450 -0.5443  0.0014  0.5678
 4020TIP3    H112024   5.279   5.897   5.519 -1.4510 -0.8238  0.2882
 4020TIP3    H212025   5.321   5.958   5.387 -0.2350 -0.2813  0.9069
 4021TIP3   OH212026   0.600   4.106   2.102  0.1011 -0.2802  0.1131
 4021TIP3    H112027   0.552   4.028   2.129 -0.4821 -0.1751 -0.5939
 4021TIP3    H212028   0.670   4.115   2.167  0.5819 -1.7567 -0.1713
 4022TIP3   OH212029   6.143   1.139   1.283 -0.0977  0.4131 -0.2517
 4022TIP3    H112030   6.102   1.145   1.369  0.6300 -3.0373  0.5210
 4022TIP3    H212031   6.069   1.127   1.223 -0.5075  0.3515  0.2504
 4023TIP3   OH212032   0.671   5.558   2.357  0.7700  0.7894  0.2586
 4023TIP3    H112033   0.747   5.617   2.361  2.2488 -1.0425  0.5185
 4023TIP3    H212034   0.703   5.482   2.310 -1.0435  0.1036  0.0859
 4024TIP3   OH212035   5.648   3.536   5.235  0.0629  0.2964  0.1720
 4024TIP3    H112036   5.621   3.446   5.252 -0.3852  0.8688  2.9337
 4024TIP3    H212037   5.567   3.587   5.242  0.5505  1.0742  0.2314
 4025TIP3   OH212038   1.992   6.522   2.379 -0.4232  0.2592  0.2906
 4025TIP3    H112039   1.913   6.534   2.432  0.1220 -0.5726  1.3329
 4025TIP3    H212040   1.971   6.448   2.323 -0.2527 -0.2393  0.8677
 4026TIP3   OH212041   1.253   0.766   1.995  0.2287 -0.1314 -0.1193
 4026TIP3    H112042   1.274   0.836   2.056  1.3607 -0.2279 -0.3765
 4026TIP3    H212043   1.268   0.686   2.045  1.1951 -0.2107 -0.5178
 4027TIP3   OH212044   4.545   2.125   2.502 -0.3387 -0.2865 -0.4151
 4027TIP3    H112045   4.629   2.152   2.538 -0.7781 -0.6684  0.9257
 4027TIP3    H212046   4.535   2.179   2.423  1.4906 -0.7609 -1.0355
 4028TIP3   OH212047   5.800   6.815   4.655  0.2638  0.1847 -0.1101
 4028TIP3    H112048   5.852   6.763   4.594 -1.0266 -0.1353 -0.9673
 4028TIP3    H212049   5.709   6.800   4.628 -0.2887  0.6696  1.3892
 4029TIP3   OH212050   2.889   1.008   4.643 -0.2022 -0.0299 -0.3984
 4029TIP3    H112051   2.856   0.990   4.731 -0.4123  1.3613 -0.1686
 4029TIP3    H212052   2.961   0.946   4.631  1.4260  1.3055  1.6993
 4030TIP3   OH212053   3.380   5.149   1.835 -0.3224 -0.4632 -0.0545
 4030TIP3    H112054   3.344   5.066   1.867  0.7736 -0.9967 -0.1407
 4030TIP3    H212055   3.423   5.187   1.912  2.7621 -1.9889 -0.8775
 4031TIP3   OH212056   5.830   5.400   2.625 -0.2331  0.3190  0.4958
 4031TIP3    H112057   5.842   5.370   2.535  1.7603  1.5076  0.2896
 4031TIP3    H212058   5.827   5.496   2.618  1.3065  0.5138  1.7700
 4032TIP3   OH212059   4.767   3.093   0.558 -0.3373 -0.0707 -0.0900
 4032TIP3    H112060   4.756   3.184   0.587 -0.2427  0.0999 -0.5823
 4032TIP3    H212061   4.737   3.040   0.632  1.9656  0.3105  1.2047
 4033TIP3   OH212062   3.480   0.514   0.832 -0.7076  0.4516 -0.8751
 4033TIP3    H112063   3.440   0.537   0.915 -1.7559  1.6566 -1.6690
 4033TIP3    H212064   3.431   0.438   0.801 -0.7974  0.4512 -0.7339
 4034TIP3   OH212065   6.337   5.222   4.735 -0.3227 -0.3971  0.1172
 4034TIP3    H112066   6.373   5.133   4.743  0.5754  0.0096  0.6341
 4034TIP3    H212067   6.314   5.247   4.824 -0.6237 -0.1196 -0.0364
 4035TIP3   OH212068   3.736   4.652   3.400 -0.4855 -0.3266 -0.3761
 4035TIP3    H112069   3.766   4.629   3.312  0.0174 -0.7760 -0.0891
 4035TIP3    H212070   3.702   4.742   3.391 -0.1598 -0.2591 -0.9580
 4036TIP3   OH212071   5.582   3.067   4.563  0.4863 -0.2113  0.2964
 4036TIP3    H112072   5.557   3.143   4.616  2.0973 -0.0983  0.9464
 4036TIP3    H212073   5.556   2.991   4.615  1.0257 -0.1014  0.7271
 4037TIP3   OH212074   5.711   4.121   2.425  0.7539 -0.5897 -0.0414
 4037TIP3    H112075   5.639   4.097   2.483  0.9238  0.7715  0.7803
 4037TIP3    H212076   5.687   4.084   2.340 -1.0668  0.0969  0.1353
 4038TIP3   OH212077   6.006   3.462   5.228  0.0101  0.0592 -0.2018
 4038TIP3    H112078   6.019   3.422   5.314 -1.1092  1.1417  0.5136
 4038TIP3    H212079   5.970   3.548   5.247 -0.1632  0.3631 -1.7594
 4039TIP3   OH212080   2.263   1.194   0.784  0.1133 -0.0465 -0.4003
 4039TIP3    H112081   2.341   1.236   0.749  0.0870  0.2430 -0.1187
 4039TIP3    H212082   2.248   1.119   0.727  0.0198  0.4654 -1.0625
 4040TIP3   OH212083   5.405   4.864   5.810  0.3572 -0.6336 -0.1400
 4040TIP3    H112084   5.330   4.820   5.770  0.2698 -0.7683  0.1718
 4040TIP3    H212085   5.416   4.821   5.895  0.3553 -0.1433  0.1115
 4041TIP3   OH212086   0.713   4.750   5.071  0.0916  0.5899  0.2410
 4041TIP3    H112087   0.698   4.800   4.991 -0.3817  3.0774  1.7695
 4041TIP3    H212088   0.626   4.722   5.099  0.3457 -1.1509 -0.5612
 4042TIP3   OH212089   5.466   6.489   2.283 -0.1563  0.4446 -0.5843
 4042TIP3    H112090   5.493   6.539   2.206 -0.9853 -0.6043 -1.5926
 4042TIP3    H212091   5.412   6.550   2.334 -0.8724  0.7043 -1.6226
 4043TIP3   OH212092   6.306   1.331   4.135 -0.1848  0.2969  0.5673
 4043TIP3    H112093   6.296   1.238   4.156 -1.8464  0.5694  1.1417
 4043TIP3    H212094   6.309   1.374   4.221 -0.1189  0.8186  0.3029
 4044TIP3   OH212095   2.535   4.114   3.711 -0.2605  0.3043  0.7206
 4044TIP3    H112096   2.585   4.085   3.636  0.3526  1.8096  0.5097
 4044TIP3    H212097   2.598   4.160   3.766 -1.3086  1.9602  0.6102
 4045TIP3   OH212098   0.860   3.480   0.281  0.4673 -0.5660  0.4850
 4045TIP3    H112099   0.943   3.445   0.247  0.8512  0.6457  0.1324
 4045TIP3    H212100   0.816   3.516   0.205 -0.2730 -0.9589  0.7213
 4046TIP3   OH212101   3.140   4.373   0.496 -0.6061  0.2997 -0.0442
 4046TIP3    H112102   3.083   4.395   0.570 -0.3483 -0.7714  0.4877
 4046TIP3    H212103   3.118   4.438   0.430 -1.0154  1.1334  0.8806
 4047TIP3   OH212104   3.802   0.966   2.192  0.1994 -0.1905  0.3065
 4047TIP3    H112105   3.713   0.990   2.218  0.6658  2.1276  0.0209
 4047TIP3    H212106   3.859   1.012   2.254  1.2163  0.6299 -1.1539
 4048TIP3   OH212107   5.553   2.888   3.982 -0.2229  0.3357 -0.1272
 4048TIP3    H112108   5.469   2.910   4.020  0.4920  0.4249  1.4657
 4048TIP3    H212109   5.532   2.826   3.912 -1.4856 -0.9364  1.2998
 4049TIP3   OH212110   0.783   1.359   3.260  0.5900 -0.1833  0.1138
 4049TIP3    H112111   0.778   1.350   3.165  1.9347 -1.9708  0.1555
 4049TIP3    H212112   0.743   1.279   3.294 -0.5445  0.7634  1.1153
 4050TIP3   OH212113   3.446   0.021   5.831  0.1221  0.6304 -0.5397
 4050TIP3    H112114   3.520   0.070   5.868 -0.2627  0.1946  0.8932
 4050TIP3    H212115   3.372   0.080   5.839  0.1086  0.6769 -0.9940
 4051TIP3   OH212116   1.483   3.054   2.569  0.0316  0.1034  0.5035
 4051TIP3    H112117   1.465   2.961   2.552 -0.3678  0.4498 -1.1985
 4051TIP3    H212118   1.418   3.080   2.634 -0.2719 -0.6639  0.5132
 4052TIP3   OH212119   1.001   4.723   2.956  0.3567  0.1656 -0.4054
 4052TIP3    H112120   0.938   4.669   3.003  0.1233  0.6544 -0.1611
 4052TIP3    H212121   1.067   4.745   3.022  0.2433  0.5091 -0.4047
 4053TIP3   OH212122   3.988   1.998   0.980 -0.2539 -0.2004  0.7914
 4053TIP3    H112123   3.929   1.945   1.035 -1.0578  0.9543  1.0891
 4053TIP3    H212124   4.002   1.945   0.902  0.7990 -1.8271  2.0149
 4054TIP3   OH212125   6.311   4.602   3.259  0.3887 -0.2444  0.2207
 4054TIP3    H112126   6.292   4.693   3.238  2.4394  0.2632  0.3282
 4054TIP3    H212127   6.305   4.556   3.176 -0.9432 -0.0903  0.2119
 4055TIP3   OH212128   4.618   1.176   3.061 -0.1216  0.6214 -0.0178
 4055TIP3    H112129   4.620   1.168   3.156 -2.0530 -0.3516 -0.0057
 4055TIP3    H212130   4.622   1.086   3.029  1.1431  0.9746 -0.8944
 4056TIP3   OH212131   4.250   1.501   1.814 -0.6080  0.2436  0.0449
 4056TIP3    H112132   4.240   1.424   1.870  3.4534 -0.5749 -0.0833
 4056TIP3    H212133   4.288   1.567   1.872  0.7048  0.4296 -1.0055
 4057TIP3   OH212134   4.452   0.367   2.383  0.1043 -0.3799  0.0847
 4057TIP3    H112135   4.480   0.297   2.323  1.2213 -1.5034  1.8369
 4057TIP3    H212136   4.528   0.424   2.390 -0.8673  1.2532 -1.5054
 4058TIP3   OH212137   0.323   0.220   0.587  0.5135  0.1947 -0.6238
 4058TIP3    H112138   0.369   0.287   0.639 -0.5831 -0.1458  0.8432
 4058TIP3    H212139   0.310   0.147   0.648 -1.8045  0.2143 -1.0308
 4059TIP3   OH212140   4.154   4.322   2.224  0.8975 -0.4722 -0.2852
 4059TIP3    H112141   4.204   4.403   2.223  1.4840 -0.7893  1.2070
 4059TIP3    H212142   4.219   4.253   2.215  0.6109 -0.8433  0.4466
 4060TIP3   OH212143   6.190   2.970   3.380 -0.0595  0.4565  0.7688
 4060TIP3    H112144   6.110   3.023   3.370 -0.5942 -0.5302 -0.3932
 4060TIP3    H212145   6.159   2.885   3.411  0.1898 -0.7838 -2.0788
 4061TIP3   OH212146   5.942   0.761   1.638 -0.1350 -0.1313  0.0365
 4061TIP3    H112147   6.037   0.749   1.641 -0.1796 -0.2693  1.5095
 4061TIP3    H212148   5.908   0.695   1.698 -1.1548  0.0667 -0.3105
 4062TIP3   OH212149   2.730   1.088   3.701  0.4977  0.5377 -0.3937
 4062TIP3    H112150   2.678   1.111   3.624 -0.4906 -1.3419 -0.3732
 4062TIP3    H212151   2.665   1.075   3.770  1.2561  0.9049  0.4024
 4063TIP3   OH212152   2.125   0.214   5.581  0.4298  0.1666 -0.3532
 4063TIP3    H112153   2.094   0.240   5.494 -1.2255  0.5327  0.3147
 4063TIP3    H212154   2.151   0.122   5.571 -0.7555 -0.1119 -0.9831
 4064TIP3   OH212155   2.094  -0.010   0.636  0.0537 -0.8788  0.3317
 4064TIP3    H112156   2.102   0.083   0.614  1.7977 -1.4079 -1.5612
 4064TIP3    H212157   2.030  -0.012   0.707  1.9835  2.0439  2.3813
 4065TIP3   OH212158   3.811   3.466   0.579  0.1132 -0.8171 -0.2336
 4065TIP3    H112159   3.795   3.398   0.644 -0.3458 -0.0261  0.4940
 4065TIP3    H212160   3.786   3.426   0.496 -2.1671 -0.8740  0.4153
 4066TIP3   OH212161   4.837   0.031   5.645 -0.6018  0.0505  0.1885
 4066TIP3    H112162   4.920   0.078   5.640 -1.2929  1.2051 -0.8963
 4066TIP3    H212163   4.856  -0.046   5.699  0.5341  1.6154  2.1593
 4067TIP3   OH212164   5.806   6.097   1.511 -0.8209 -0.2626 -0.3123
 4067TIP3    H112165   5.881   6.038   1.517 -0.5544  0.1212  0.2891
 4067TIP3    H212166   5.736   6.044   1.475 -0.3129 -0.6799 -0.7023
 4068TIP3   OH212167   1.767   1.181   1.720 -0.1677 -0.0624 -0.5785
 4068TIP3    H112168   1.799   1.267   1.690 -1.9528  0.9664  0.3055
 4068TIP3    H212169   1.846   1.126   1.723  1.2729  1.9018  0.0259
 4069TIP3   OH212170   1.570   4.112   0.982 -0.3770 -0.6880 -0.8372
 4069TIP3    H112171   1.521   4.031   0.995  0.6881 -1.1976  0.2504
 4069TIP3    H212172   1.644   4.086   0.927 -0.1039 -0.4289 -0.5946
 4070TIP3   OH212173   0.652   4.079   4.744  0.8382 -0.6065  0.3629
 4070TIP3    H112174   0.744   4.082   4.769  0.7661 -1.1096  0.6838
 4070TIP3    H212175   0.605   4.112   4.820  0.6592 -1.6219  0.7076
 4071TIP3   OH212176   0.309   5.587   1.823  0.1021  0.2900  0.2764
 4071TIP3    H112177   0.263   5.552   1.747  1.1154 -0.8378  0.1585
 4071TIP3    H212178   0.268   5.672   1.839 -1.3033 -0.2295 -0.4458
 4072TIP3   OH212179   5.667   1.387   3.784 -0.1547  0.4584  0.1491
 4072TIP3    H112180   5.681   1.482   3.780 -0.2944  0.5393  1.2865
 4072TIP3    H212181   5.608   1.369   3.711 -0.9584  1.4154  0.5385
 4073TIP3   OH212182   5.452   5.095   0.490 -0.2815  0.1053  0.1735
 4073TIP3    H112183   5.394   5.107   0.415  1.0734 -0.7839 -1.0562
 4073TIP3    H212184   5.484   5.006   0.482  0.2997  0.1592  1.5400
 4074TIP3   OH212185   0.643   3.399   1.103  0.7371 -0.0477 -0.0559
 4074TIP3    H112186   0.729   3.432   1.075  0.1030 -0.4614 -2.7659
 4074TIP3    H212187   0.634   3.429   1.193  3.0736  1.3236 -0.2015
 4075TIP3   OH212188   4.433   1.044   5.580  0.0894 -0.3656 -0.9845
 4075TIP3    H112189   4.432   1.072   5.489 -2.5255  0.5223 -0.7684
 4075TIP3    H212190   4.427   1.125   5.630  0.3604 -0.9127 -0.0339
 4076TIP3   OH212191   4.447   4.665   4.140  0.2129 -0.2628 -0.2788
 4076TIP3    H112192   4.443   4.749   4.094  1.9901  0.1595  0.2920
 4076TIP3    H212193   4.524   4.621   4.104  0.5878 -0.6956  0.9947
 4077TIP3   OH212194   2.411   0.635   2.076  0.5839  0.1068 -0.0023
 4077TIP3    H112195   2.498   0.608   2.106  0.8045  0.1366 -0.6033
 4077TIP3    H212196   2.354   0.617   2.150  0.8655 -1.2203 -0.0808
 4078TIP3   OH212197   4.483   2.287   2.256  0.4858  0.3798  0.7825
 4078TIP3    H112198   4.479   2.382   2.252 -2.0304  0.4212  2.0418
 4078TIP3    H212199   4.398   2.258   2.223  0.5321 -1.3018  1.9917
 4079TIP3   OH212200   7.125   5.793   5.684  0.3946 -0.4269 -0.2324
 4079TIP3    H112201   7.084   5.727   5.740 -0.1614 -0.6683 -0.9013
 4079TIP3    H212202   7.138   5.869   5.741 -0.2593 -0.6290  0.1999
 4080TIP3   OH212203   6.172   3.025   0.173  0.3417 -0.8527  0.2158
 4080TIP3    H112204   6.264   3.000   0.166 -0.0087 -1.7362 -2.5620
 4080TIP3    H212205   6.165   3.067   0.259  2.9550 -2.1696  1.1784
 4081TIP3   OH212206   1.736   3.588   5.629 -0.0304 -0.1431 -0.2352
 4081TIP3    H112207   1.736   3.670   5.580 -0.1843 -0.1631 -0.2709
 4081TIP3    H212208   1.645   3.558   5.625  0.2868 -0.9911 -1.3450
 4082TIP3   OH212209   3.112   3.724   3.696 -0.4144 -0.1936 -0.4900
 4082TIP3    H112210   3.107   3.747   3.789 -0.9454 -1.8120 -0.0942
 4082TIP3    H212211   3.205   3.712   3.679 -0.2396  0.8974 -0.3931
 4083TIP3   OH212212   6.472   4.904   1.934 -0.0379  0.2513  0.6682
 4083TIP3    H112213   6.403   4.841   1.910  2.0816 -1.3615 -1.8534
 4083TIP3    H212214   6.432   4.990   1.923 -1.3781 -0.6013 -2.0379
 4084TIP3   OH212215   4.886   3.482   3.651  0.3317 -0.1756 -0.6678
 4084TIP3    H112216   4.964   3.528   3.683 -0.2110  0.6820 -0.5824
 4084TIP3    H212217   4.922   3.410   3.597  1.1913 -0.1842 -0.1061
 4085TIP3   OH212218   4.136   3.006   2.392  0.1346 -0.3746  0.0696
 4085TIP3    H112219   4.206   3.071   2.389  0.3835 -0.5275  1.5095
 4085TIP3    H212220   4.066   3.050   2.440 -0.9399 -0.0872 -1.6769
 4086TIP3   OH212221   5.483   1.431   3.037  0.5930  0.0851 -0.7358
 4086TIP3    H112222   5.544   1.362   3.064  0.5737  0.0722 -0.7253
 4086TIP3    H212223   5.510   1.454   2.948  1.3141  0.8559 -0.3254
 4087TIP3   OH212224   6.472   0.297   1.162 -0.8328  0.9215 -0.0423
 4087TIP3    H112225   6.468   0.281   1.068 -1.5083  0.5989  0.0340
 4087TIP3    H212226   6.434   0.385   1.173 -1.1402  0.7910 -0.0362
 4088TIP3   OH212227   4.953   2.516   0.914  0.5086  0.5493 -0.3577
 4088TIP3    H112228   4.964   2.580   0.984  1.7513 -1.5759  1.5232
 4088TIP3    H212229   4.879   2.462   0.943  0.6372  0.0253 -0.9946
 4089TIP3   OH212230   4.869   6.690   0.010  0.2112  0.2297  0.0945
 4089TIP3    H112231   4.862   6.761   0.074 -1.5537 -0.8798  1.2144
 4089TIP3    H212232   4.790   6.638   0.023  1.0886 -1.5354 -1.2091
 4090TIP3   OH212233   7.153   0.503   4.171  0.9851  0.0397  0.0221
 4090TIP3    H112234   7.162   0.408   4.176 -1.8597 -0.2956  0.6459
 4090TIP3    H212235   7.092   0.517   4.098  0.0447  1.2299  0.9884
 4091TIP3   OH212236   3.658   6.556   3.634  0.6842 -0.4215 -0.1240
 4091TIP3    H112237   3.685   6.538   3.545  0.7212 -1.1656  0.0335
 4091TIP3    H212238   3.739   6.574   3.681  0.6222  0.5196 -0.3500
 4092TIP3   OH212239   3.911   3.870   4.040 -0.0129  0.0074  0.0767
 4092TIP3    H112240   3.921   3.933   3.969  0.2369  1.5890  1.4264
 4092TIP3    H212241   3.999   3.861   4.076 -0.4748  1.0176  1.5679
 4093TIP3   OH212242   3.696   4.079   4.237 -0.4344 -0.0955 -0.4732
 4093TIP3    H112243   3.767   4.131   4.276 -0.2907  0.8005 -1.8421
 4093TIP3    H212244   3.717   3.989   4.259  0.0405  0.3081  0.8408
 4094TIP3   OH212245   3.202   6.065   3.942  0.0326  0.2436 -0.0411
 4094TIP3    H112246   3.295   6.054   3.918  0.0324 -1.7008  0.6662
 4094TIP3    H212247   3.200   6.050   4.036 -1.4404 -4.1394 -0.5148
 4095TIP3   OH212248   4.091   6.620   1.134 -0.3091  0.1090 -0.8034
 4095TIP3    H112249   4.089   6.685   1.204  2.2023  1.8124 -2.1651
 4095TIP3    H212250   4.041   6.660   1.063  0.8832  0.4312 -1.4962
 4096TIP3   OH212251   0.093   3.532   2.959  0.0852 -0.0628 -0.1381
 4096TIP3    H112252   0.004   3.567   2.951  0.2264 -0.1672 -3.9003
 4096TIP3    H212253   0.087   3.444   2.922  1.3954 -0.9038  1.5285
 4097TIP3   OH212254   6.409   5.496   5.349 -0.4024  0.4362 -0.2275
 4097TIP3    H112255   6.471   5.569   5.348 -0.8793  0.8845  0.9349
 4097TIP3    H212256   6.324   5.536   5.331 -0.5123 -0.0181 -0.7626
 4098TIP3   OH212257   2.907   5.783   4.187 -0.0740  0.6000 -0.0197
 4098TIP3    H112258   2.834   5.740   4.143  0.4575 -0.8204  0.4251
 4098TIP3    H212259   2.978   5.782   4.122  0.2950 -0.2661  0.3880
 4099TIP3   OH212260   3.343   2.972   4.856  0.3117 -0.0044  0.2222
 4099TIP3    H112261   3.353   3.041   4.790  0.0553  1.2020  1.4126
 4099TIP3    H212262   3.374   2.893   4.812 -2.3041  0.2023 -2.2734
 4100TIP3   OH212263   5.073   0.280   0.997  0.0293  0.2095  0.3856
 4100TIP3    H112264   5.076   0.259   0.904  2.2482  0.8916  0.2598
 4100TIP3    H212265   5.060   0.374   1.001  1.0169  0.3460  0.7197
 4101TIP3   OH212266   0.729   4.281   5.574  0.2627  0.1406 -0.1930
 4101TIP3    H112267   0.694   4.194   5.592 -0.2347  0.4378  0.3241
 4101TIP3    H212268   0.776   4.305   5.654  0.9577  0.0784 -0.5812
 4102TIP3   OH212269   1.692   6.618   0.830  0.4865 -0.4861 -0.2745
 4102TIP3    H112270   1.621   6.597   0.769  1.3402 -1.1332 -1.0718
 4102TIP3    H212271   1.766   6.566   0.799  1.2073 -0.1044  0.7667
 4103TIP3   OH212272   6.560   3.163   5.418  0.5189 -0.2268 -0.0403
 4103TIP3    H112273   6.633   3.104   5.436  1.2486  0.0030 -1.9484
 4103TIP3    H212274   6.579   3.197   5.330 -1.0098  1.1622  0.1325
 4104TIP3   OH212275   6.316   5.170   2.817  0.0361  0.5161 -0.2911
 4104TIP3    H112276   6.331   5.254   2.861 -1.0259  1.3414 -1.4501
 4104TIP3    H212277   6.238   5.184   2.764 -0.7853 -1.5280  0.2661
 4105TIP3   OH212278   4.640   1.777   0.367 -0.2922  0.3720 -0.1242
 4105TIP3    H112279   4.628   1.755   0.274  0.5003  1.0889 -0.4078
 4105TIP3    H212280   4.596   1.706   0.414  1.1781 -1.1954 -1.0023
 4106TIP3   OH212281   2.780   3.285   4.683 -0.0459  0.1660 -0.2382
 4106TIP3    H112282   2.727   3.236   4.746 -0.0784 -1.2595 -1.3291
 4106TIP3    H212283   2.795   3.370   4.725 -0.3253 -0.6242  1.5466
 4107TIP3   OH212284   6.334   5.137   3.164 -0.1406 -0.2027 -0.8727
 4107TIP3    H112285   6.249   5.158   3.203  0.5558  0.9209  0.1016
 4107TIP3    H212286   6.394   5.134   3.237  1.2981  2.3859 -1.8320
 4108TIP3   OH212287   2.272   2.504   2.037  0.2296 -0.7813 -0.0730
 4108TIP3    H112288   2.331   2.452   2.092  1.2227  1.0318  0.6598
 4108TIP3    H212289   2.237   2.571   2.096 -0.8621 -0.4699 -1.0330
 4109TIP3   OH212290   0.923   0.837   0.506  0.2408  0.0643 -0.0810
 4109TIP3    H112291   0.985   0.811   0.575  0.4936 -2.0531 -1.0284
 4109TIP3    H212292   0.919   0.932   0.512  1.8529  0.0846  1.4916
 4110TIP3   OH212293   1.398   0.894   5.490 -0.2772  0.3475 -0.1946
 4110TIP3    H112294   1.310   0.873   5.457  0.0084  0.2872 -0.9193
 4110TIP3    H212295   1.445   0.811   5.484 -0.2206  0.3312  0.3851
 4111TIP3   OH212296   5.345   1.510   4.653 -0.1432  0.0026  0.4849
 4111TIP3    H112297   5.282   1.557   4.598 -0.1598  0.6464  1.0435
 4111TIP3    H212298   5.333   1.418   4.630 -0.9178  0.1670  0.2050
 4112TIP3   OH212299   0.840   4.504   3.074  0.1493  0.4239  0.6491
 4112TIP3    H112300   0.759   4.470   3.036  0.3358  2.0297 -1.3346
 4112TIP3    H212301   0.904   4.434   3.063 -0.2466  0.2331 -0.4790
 4113TIP3   OH212302   2.935   0.045   1.480 -0.1445 -0.3760 -0.2630
 4113TIP3    H112303   2.882   0.078   1.408 -0.3939 -1.5402 -0.6303
 4113TIP3    H212304   2.871   0.021   1.547  0.0554  0.1855  0.1370
 4114TIP3   OH212305   4.703   3.193   2.354  0.2973 -0.4530 -0.4800
 4114TIP3    H112306   4.661   3.191   2.440 -0.0844 -0.9633 -0.6723
 4114TIP3    H212307   4.696   3.103   2.322  2.8186 -0.9603  0.1079
 4115TIP3   OH212308   3.468   6.348   0.595 -0.2929  0.4679  0.3470
 4115TIP3    H112309   3.393   6.401   0.621 -0.8737  0.3566 -1.0466
 4115TIP3    H212310   3.451   6.262   0.633 -0.5964  0.5902  0.4878
 4116TIP3   OH212311   5.115   0.734   4.207 -0.2376 -0.0189  0.1659
 4116TIP3    H112312   5.051   0.663   4.210 -3.9323  2.8529 -2.4098
 4116TIP3    H212313   5.174   0.710   4.136 -1.1078 -0.7788 -0.3235
 4117TIP3   OH212314   1.109   2.572   2.653  0.5866  0.1639 -0.1107
 4117TIP3    H112315   1.067   2.652   2.622 -0.5572 -0.6431 -0.7575
 4117TIP3    H212316   1.167   2.546   2.581  0.9962  0.4372  0.1203
 4118TIP3   OH212317   5.758   3.489   2.432 -0.0397 -0.3146 -0.0679
 4118TIP3    H112318   5.686   3.552   2.424  0.3011  0.4961  2.3598
 4118TIP3    H212319   5.737   3.439   2.511  2.2486  0.3034  1.0311
 4119TIP3   OH212320   1.093   0.461   4.819  0.8076  0.2190  0.5746
 4119TIP3    H112321   1.033   0.449   4.893 -0.3686  0.8637 -0.2437
 4119TIP3    H212322   1.036   0.463   4.742  1.9195  0.5052 -0.2638
 4120TIP3   OH212323   5.810   4.366   3.290  0.1877 -0.1719  0.0175
 4120TIP3    H112324   5.789   4.419   3.367 -0.7076 -0.3254 -0.1071
 4120TIP3    H212325   5.781   4.419   3.216 -2.2414 -1.4422 -0.0502
 4121TIP3   OH212326   4.936   5.318   4.994 -0.6032 -0.2176  0.1688
 4121TIP3    H112327   4.891   5.394   4.958 -1.0614 -0.3459  0.4616
 4121TIP3    H212328   4.881   5.291   5.068 -2.1895 -2.7194 -1.7691
 4122TIP3   OH212329   4.211   4.393   1.652 -0.1031  0.6781 -0.0381
 4122TIP3    H112330   4.178   4.304   1.664  4.8585 -1.3497  0.9385
 4122TIP3    H212331   4.226   4.401   1.558  0.4818  0.0011 -0.0114
 4123TIP3   OH212332   2.985   5.087   2.501  0.3138  0.2401  0.5880
 4123TIP3    H112333   3.046   5.015   2.515 -0.0506 -0.0139  0.8649
 4123TIP3    H212334   2.948   5.071   2.414  2.1715  1.5268 -0.5389
 4124TIP3   OH212335   3.980   0.822   3.238  0.5489 -0.0463 -0.3983
 4124TIP3    H112336   4.051   0.884   3.256 -0.7695  1.6658 -0.7570
 4124TIP3    H212337   3.904   0.860   3.282 -0.2080 -1.7392 -0.1754
 4125TIP3   OH212338   5.929   4.773   0.385  0.2357  0.0195 -0.1502
 4125TIP3    H112339   5.963   4.685   0.399  0.6888 -0.1436 -1.9721
 4125TIP3    H212340   5.971   4.802   0.303  0.3490  2.0543  0.5756
 4126TIP3   OH212341   4.956   0.440   1.539  0.2609  0.1283 -0.7586
 4126TIP3    H112342   4.869   0.425   1.575  0.5413 -0.8175 -0.4329
 4126TIP3    H212343   4.987   0.520   1.583 -0.6381  0.7908 -1.2934
 4127TIP3   OH212344   3.395   0.819   3.696  0.5878  0.4573 -0.0596
 4127TIP3    H112345   3.380   0.912   3.714 -1.2026  0.5315 -1.5641
 4127TIP3    H212346   3.327   0.796   3.632  1.1785 -1.8183  0.0399
 4128TIP3   OH212347   0.921   1.464   4.257 -0.0069  0.6815 -0.0357
 4128TIP3    H112348   0.982   1.428   4.192  0.4666  0.2932  0.6151
 4128TIP3    H212349   0.973   1.474   4.336 -0.1356  2.7771 -0.1623
 4129TIP3   OH212350   2.918   1.322   5.767  0.2450  0.5666  0.0769
 4129TIP3    H112351   2.867   1.319   5.686 -1.5583  0.5397  1.1609
 4129TIP3    H212352   2.973   1.244   5.764 -0.1246  0.3265 -0.9214
 4130TIP3   OH212353   3.375   4.817   1.550 -0.0008  0.4744 -0.5987
 4130TIP3    H112354   3.380   4.763   1.471  1.3564 -0.9621  0.3911
 4130TIP3    H212355   3.399   4.905   1.521 -1.1906  0.3430 -2.0653
 4131TIP3   OH212356   5.913   2.324   2.289  0.3667  0.5953 -0.8513
 4131TIP3    H112357   5.977   2.393   2.271  0.6598  0.5206 -0.1349
 4131TIP3    H212358   5.943   2.284   2.370 -1.3137  1.4497  0.2608
 4132TIP3   OH212359   6.440   2.970   3.515 -0.1640  0.0900  0.2187
 4132TIP3    H112360   6.374   2.963   3.446 -1.1388 -1.2938  1.2478
 4132TIP3    H212361   6.391   2.964   3.597  1.0552  0.8509  1.0555
 4133TIP3   OH212362   3.789   6.597   0.752 -0.3291 -0.3654 -0.2044
 4133TIP3    H112363   3.778   6.510   0.715 -0.5942 -1.3929  2.0772
 4133TIP3    H212364   3.724   6.602   0.823  1.3625  0.6700  1.3897
 4134TIP3   OH212365   4.533   5.930   1.617 -0.8156  0.0384 -0.2349
 4134TIP3    H112366   4.615   5.912   1.572  0.9541  0.8859  2.4254
 4134TIP3    H212367   4.501   5.843   1.643 -1.5155 -0.4007 -2.3702
 4135TIP3   OH212368   5.312   2.263   4.890  0.4155  0.2767 -0.1518
 4135TIP3    H112369   5.243   2.197   4.898 -1.3581  2.0880  0.3496
 4135TIP3    H212370   5.328   2.292   4.980 -1.6367  3.1564 -0.5746
 4136TIP3   OH212371   7.090   5.627   3.122  0.0225 -0.4700 -0.1344
 4136TIP3    H112372   6.997   5.650   3.114  0.0822 -0.3562 -0.5572
 4136TIP3    H212373   7.096   5.581   3.205 -0.1394  0.8604  0.6477
 4137TIP3   OH212374   2.608   4.605   5.163  0.4747  0.4556  0.1422
 4137TIP3    H112375   2.673   4.597   5.094 -0.5751 -1.1180 -0.7452
 4137TIP3    H212376   2.566   4.689   5.146  1.9126  1.2476  0.4216
 4138TIP3   OH212377   0.064   1.480   1.653  0.1883  0.1370  0.0425
 4138TIP3    H112378  -0.016   1.441   1.689 -0.1328  0.1100 -0.6783
 4138TIP3    H212379   0.041   1.571   1.635 -0.0166 -0.1302 -1.1353
 4139TIP3   OH212380   3.920   5.890   5.838 -0.3626  0.5143  0.0121
 4139TIP3    H112381   3.944   5.901   5.745  1.5244  0.1082  0.4053
 4139TIP3    H212382   3.872   5.969   5.860  1.3628  1.8170 -0.6865
 4140TIP3   OH212383   3.089   5.771   3.179 -0.6047  0.0523 -0.4690
 4140TIP3    H112384   3.037   5.710   3.126  0.7293 -1.0891 -0.4942
 4140TIP3    H212385   3.142   5.715   3.235 -0.2475  1.2252  0.3881
 4141TIP3   OH212386   0.846   4.425   1.069 -0.3462 -0.4816 -0.1467
 4141TIP3    H112387   0.764   4.472   1.082  1.0017  3.0910 -2.8384
 4141TIP3    H212388   0.901   4.452   1.142 -0.8675 -1.3129  0.5779
 4142TIP3   OH212389   6.182   1.838   1.607  0.4230  0.3169 -0.1225
 4142TIP3    H112390   6.173   1.836   1.512 -0.1537  0.9007 -0.0821
 4142TIP3    H212391   6.097   1.867   1.639  0.7807  0.6534  0.5442
 4143TIP3   OH212392   0.633   0.528   1.357 -0.2452 -0.3003 -0.2393
 4143TIP3    H112393   0.645   0.604   1.300 -0.9269 -0.2257 -0.3027
 4143TIP3    H212394   0.539   0.528   1.376 -0.3933 -1.5653 -0.8618
 4144TIP3   OH212395   0.366   5.903   5.130  0.0131  0.0402  0.0679
 4144TIP3    H112396   0.301   5.961   5.091 -1.3337 -0.9735  0.6916
 4144TIP3    H212397   0.423   5.960   5.180 -0.2645  0.9916 -0.6828
 4145TIP3   OH212398   5.563   2.454   4.265 -0.7134  0.5776 -0.2171
 4145TIP3    H112399   5.642   2.508   4.262 -0.8983  0.8009 -2.1478
 4145TIP3    H212400   5.585   2.375   4.216 -1.1625 -0.1311  0.6844
 4146TIP3   OH212401   7.134   3.810   2.591 -0.0007 -0.2417  0.1697
 4146TIP3    H112402   7.058   3.809   2.649  0.9708 -0.6865  1.5023
 4146TIP3    H212403   7.125   3.891   2.541 -1.1408 -0.1016  0.5786
 4147TIP3   OH212404   4.113   1.968   1.982 -0.1610  0.6733  0.0495
 4147TIP3    H112405   4.018   1.971   1.969 -0.2712 -0.2686  0.5347
 4147TIP3    H212406   4.149   2.001   1.899 -0.9039  2.1804  0.2988
 4148TIP3   OH212407   2.575   0.522   3.245 -0.4486  0.0713 -0.0836
 4148TIP3    H112408   2.556   0.444   3.194 -2.1658  0.2002  0.2926
 4148TIP3    H212409   2.661   0.506   3.284 -0.7589 -1.6225 -0.0355
 4149TIP3   OH212410   5.890   4.312   1.171 -0.1362  0.3565 -0.0348
 4149TIP3    H112411   5.942   4.384   1.208 -0.4681  0.4599  0.2390
 4149TIP3    H212412   5.799   4.336   1.191 -0.2698  0.0380 -0.2612
 4150TIP3   OH212413   0.951   5.996   0.357 -0.3527 -0.0535  0.4983
 4150TIP3    H112414   1.014   6.068   0.365 -1.3495  1.0346 -1.0329
 4150TIP3    H212415   0.892   6.023   0.286 -0.9026 -2.2780  0.0492
 4151TIP3   OH212416   5.776   3.821   5.000 -0.4857 -0.1925  0.4453
 4151TIP3    H112417   5.845   3.809   5.066 -0.3752 -1.6088  0.1173
 4151TIP3    H212418   5.808   3.772   4.924 -1.1606  0.4265 -0.2441
 4152TIP3   OH212419   3.444   6.644   0.524 -0.3967 -0.2015 -0.2190
 4152TIP3    H112420   3.476   6.607   0.606 -0.5634  0.1953  0.0255
 4152TIP3    H212421   3.374   6.703   0.550  0.8678  1.4774 -0.4482
 4153TIP3   OH212422   0.404   0.129   1.498  0.3382  0.5469  0.5414
 4153TIP3    H112423   0.373   0.051   1.544  0.9402  0.0279  0.0951
 4153TIP3    H212424   0.359   0.128   1.414  1.3244 -0.0537  0.0072
 4154TIP3   OH212425   3.354   1.799   3.384 -0.1853  0.3024 -0.2322
 4154TIP3    H112426   3.341   1.793   3.478 -0.1728  1.3082 -0.1653
 4154TIP3    H212427   3.404   1.879   3.370  1.1823 -0.6320 -0.9696
 4155TIP3   OH212428   2.548   3.615   0.643 -0.6083  0.5219 -0.8111
 4155TIP3    H112429   2.601   3.688   0.610  1.1556 -0.1737  0.3344
 4155TIP3    H212430   2.497   3.654   0.715 -1.3705  1.1052 -1.6495
 4156TIP3   OH212431   0.410   5.118   0.680 -0.1432  0.1106 -0.4146
 4156TIP3    H112432   0.473   5.189   0.690  0.2311 -0.0391 -1.5501
 4156TIP3    H212433   0.383   5.097   0.769 -0.3253  1.7182 -0.0551
 4157TIP3   OH212434   5.487   3.852   5.007  0.2300 -0.4101  0.9858
 4157TIP3    H112435   5.583   3.861   5.003  0.0834  2.1348 -3.1043
 4157TIP3    H212436   5.465   3.798   4.931 -1.6349 -0.7114  1.6951
 4158TIP3   OH212437   2.984   2.061   0.261  0.3909  0.1003 -0.2702
 4158TIP3    H112438   3.046   2.134   0.251  0.1655  0.2335 -0.7509
 4158TIP3    H212439   3.012   1.996   0.197  1.1931 -0.6821  0.8413
 4159TIP3   OH212440   0.968   4.683   3.287 -0.0040 -0.4054  0.1912
 4159TIP3    H112441   0.927   4.633   3.216 -1.9105  2.2062 -0.7261
 4159TIP3    H212442   1.033   4.737   3.244 -1.1418  1.1679  0.3583
 4160TIP3   OH212443   4.657   3.274   2.727 -0.1997 -0.2914 -0.1605
 4160TIP3    H112444   4.718   3.216   2.771 -1.0172 -0.5951  0.6244
 4160TIP3    H212445   4.570   3.244   2.755 -0.6432  1.7313  0.8852
 4161TIP3   OH212446   3.656   3.659   4.750  0.2029  0.0505 -0.4144
 4161TIP3    H112447   3.592   3.650   4.680  0.6655  1.0401 -0.9866
 4161TIP3    H212448   3.616   3.720   4.812  1.1472  1.8605 -1.5015
 4162TIP3   OH212449   0.166   1.274   0.123 -0.4001 -0.2427 -0.6023
 4162TIP3    H112450   0.231   1.295   0.055  0.5532 -0.7413  0.1339
 4162TIP3    H212451   0.087   1.251   0.074  0.0916 -0.0052 -1.5294
 4163TIP3   OH212452   6.405   4.110   4.552  0.2395  0.6103  0.1078
 4163TIP3    H112453   6.436   4.077   4.636 -2.4031  0.1883  0.9980
 4163TIP3    H212454   6.381   4.031   4.503 -0.2042  0.9424 -0.2128
 4164TIP3   OH212455   0.330   1.296   4.043 -0.8137  0.6345  0.1440
 4164TIP3    H112456   0.408   1.314   4.095 -0.8982 -0.2787  0.6021
 4164TIP3    H212457   0.332   1.362   3.974  0.0388  0.9947  0.4948
 4165TIP3   OH212458   1.663   4.956   5.373  0.6365 -0.1440  0.1813
 4165TIP3    H112459   1.646   4.994   5.287  1.8750 -0.8635 -0.4189
 4165TIP3    H212460   1.702   4.870   5.353  1.4260 -0.1010  1.4438
 4166TIP3   OH212461   5.508   0.296   5.734 -0.3017 -0.9273 -0.0445
 4166TIP3    H112462   5.578   0.237   5.705 -1.3136 -2.6311  0.8400
 4166TIP3    H212463   5.546   0.342   5.809  0.7457  0.1613 -1.1757
 4167TIP3   OH212464   0.067   6.286   3.675 -0.0195  0.4738  0.2131
 4167TIP3    H112465   0.056   6.194   3.652  0.4853  0.6371 -0.7406
 4167TIP3    H212466   0.161   6.303   3.662 -0.4918  1.7321 -2.1155
 4168TIP3   OH212467   0.062   2.496   3.051  0.6301  0.4776  0.0833
 4168TIP3    H112468   0.067   2.536   3.138  0.9838  0.5020  0.0548
 4168TIP3    H212469  -0.000   2.550   3.003 -1.7476 -1.1392  1.1542
 4169TIP3   OH212470   4.589   3.149   5.739  0.0231 -0.2605  0.0961
 4169TIP3    H112471   4.579   3.122   5.831 -0.0881 -2.7455 -0.5670
 4169TIP3    H212472   4.500   3.169   5.711  0.0082  0.1584  0.4377
 4170TIP3   OH212473   4.689   6.115   4.935  0.3254  0.1394  0.2137
 4170TIP3    H112474   4.627   6.132   4.864  0.4807  3.0511  0.6742
 4170TIP3    H212475   4.645   6.051   4.990 -0.5781 -0.7979 -1.4971
 4171TIP3   OH212476   5.166   2.683   0.788 -0.4590  0.4667 -0.2212
 4171TIP3    H112477   5.149   2.732   0.868 -1.2061  2.1876 -1.3668
 4171TIP3    H212478   5.089   2.628   0.776 -0.1243 -0.1734  0.4718
 4172TIP3   OH212479   6.860   6.718   1.821 -0.3026  0.1141 -0.0558
 4172TIP3    H112480   6.899   6.680   1.742 -0.8849  0.0982 -0.3439
 4172TIP3    H212481   6.892   6.808   1.822  0.6781 -0.2310  0.3561
 4173TIP3   OH212482   1.221   2.321   4.781  0.4566 -0.8391  0.4723
 4173TIP3    H112483   1.200   2.399   4.833  0.7120 -0.3607 -0.1340
 4173TIP3    H212484   1.238   2.253   4.846  1.0260 -0.1813  1.0276
 4174TIP3   OH212485   0.795   3.186   2.059 -0.4047 -0.3872 -0.1649
 4174TIP3    H112486   0.738   3.261   2.074 -0.7311 -0.6542 -0.0451
 4174TIP3    H212487   0.778   3.160   1.969 -0.8514 -0.7727  0.0226
 4175TIP3   OH212488   4.331   5.320   0.924  0.4438 -0.6996 -0.5034
 4175TIP3    H112489   4.344   5.405   0.967  0.6079 -0.4839 -0.9640
 4175TIP3    H212490   4.351   5.255   0.991 -2.6854 -0.4367  0.8339
 4176TIP3   OH212491   4.046   2.014   4.274  0.1202 -0.0012 -0.3029
 4176TIP3    H112492   4.000   2.061   4.204  0.9351 -0.4844 -1.1937
 4176TIP3    H212493   4.056   1.924   4.240  1.2317 -0.0411  0.0757
 4177TIP3   OH212494   1.283   2.098   2.167  0.0752  0.3122 -0.4362
 4177TIP3    H112495   1.323   2.028   2.115  1.2495  0.5421  0.1290
 4177TIP3    H212496   1.238   2.053   2.238 -0.1598  0.0796 -0.7289
 4178TIP3   OH212497   0.891   6.322   1.846  0.0669 -0.4950  0.0694
 4178TIP3    H112498   0.835   6.246   1.831  0.4517 -0.8701  0.4654
 4178TIP3    H212499   0.977   6.295   1.812 -0.0174  0.1256 -0.6688
 4179TIP3   OH212500   4.529   3.062   5.449 -0.2708 -0.3595  0.0922
 4179TIP3    H112501   4.536   3.065   5.544  1.9798 -1.2165  0.0193
 4179TIP3    H212502   4.575   3.141   5.419  0.6019 -0.9926 -0.2871
 4180TIP3   OH212503   3.294   3.270   4.171  0.4099 -0.8014  0.2242
 4180TIP3    H112504   3.224   3.212   4.203 -0.6331  0.3008  0.0235
 4180TIP3    H212505   3.352   3.212   4.121 -0.1419 -1.8154  0.7198
 4181TIP3   OH212506   1.702   4.549   2.855 -0.2722  0.1250 -0.0591
 4181TIP3    H112507   1.792   4.515   2.861  0.1107  1.0757 -0.1924
 4181TIP3    H212508   1.656   4.485   2.800 -0.7314 -2.4556  3.0247
 4182TIP3   OH212509   1.034   2.376   4.216  0.1951 -0.1474  0.1457
 4182TIP3    H112510   0.997   2.365   4.304  0.4670 -0.2997  0.2394
 4182TIP3    H212511   1.091   2.301   4.204  0.6672  0.2171  0.0923
 4183TIP3   OH212512   6.163   4.682   0.153  0.2301 -0.5134  0.2991
 4183TIP3    H112513   6.248   4.712   0.121 -0.3263 -0.5385 -1.3165
 4183TIP3    H212514   6.108   4.760   0.151 -0.5328 -1.0338 -1.4761
 4184TIP3   OH212515   5.630   4.787   3.524  0.1379  0.0312  0.0291
 4184TIP3    H112516   5.619   4.808   3.617 -1.7662  1.3155 -0.4461
 4184TIP3    H212517   5.612   4.869   3.478  1.5376 -0.4545 -1.4948
 4185TIP3   OH212518   2.194   0.971   3.789 -0.7093  0.5093  0.3974
 4185TIP3    H112519   2.236   0.942   3.870  1.4575  2.4925  0.0576
 4185TIP3    H212520   2.201   0.895   3.731  0.6634  0.1422  1.0020
 4186TIP3   OH212521   2.091   5.352   2.052  0.8003  0.3153 -0.2047
 4186TIP3    H112522   2.185   5.345   2.069  0.9937 -0.0516 -1.3364
 4186TIP3    H212523   2.079   5.441   2.019  0.8493  0.1965 -0.5556
 4187TIP3   OH212524   2.391   6.284   3.059 -0.0671 -0.1080 -0.1117
 4187TIP3    H112525   2.338   6.304   3.137  0.9869 -1.4400  0.9945
 4187TIP3    H212526   2.458   6.352   3.058 -2.3753  2.4100 -2.2716
 4188TIP3   OH212527   6.250   2.581   4.006  0.3073 -0.1952 -0.0753
 4188TIP3    H112528   6.200   2.657   3.979  0.9256 -0.1485 -1.1713
 4188TIP3    H212529   6.339   2.615   4.021  0.7462 -0.7724 -1.2037
 4189TIP3   OH212530   0.806   3.103   1.791 -0.3886 -0.0837 -0.1051
 4189TIP3    H112531   0.781   3.186   1.752  0.1697 -0.5159 -1.4278
 4189TIP3    H212532   0.738   3.041   1.762 -0.2907 -0.2857  0.0916
 4190TIP3   OH212533   6.672   6.480   2.272 -0.5134  0.1768  0.9241
 4190TIP3    H112534   6.674   6.510   2.181 -0.2979 -2.0131  0.1524
 4190TIP3    H212535   6.578   6.471   2.291 -0.5433  0.0378  0.7167
 4191TIP3   OH212536   1.937   2.092   3.634  0.5946 -0.2759 -0.3121
 4191TIP3    H112537   2.002   2.028   3.663 -0.8091 -1.7998 -0.3510
 4191TIP3    H212538   1.971   2.176   3.664  0.9847 -1.3522  2.6041
 4192TIP3   OH212539   4.896   4.873   1.991  0.3912  0.1115  0.3264
 4192TIP3    H112540   4.965   4.916   2.041 -0.1877 -1.3737  2.5793
 4192TIP3    H212541   4.857   4.942   1.938  0.1574  2.1889  2.9845
 4193TIP3   OH212542   4.192   6.788   3.067  0.9471 -0.4185 -0.1340
 4193TIP3    H112543   4.188   6.749   2.980 -2.1896  0.1217 -0.3377
 4193TIP3    H212544   4.110   6.837   3.076  2.3036  1.7013  2.1638
 4194TIP3   OH212545   6.566   3.825   5.307 -0.3327  0.3163  0.9270
 4194TIP3    H112546   6.590   3.783   5.390  0.9240  1.8197  1.3676
 4194TIP3    H212547   6.517   3.903   5.333 -1.9441 -0.3876  0.1468
 4195TIP3   OH212548   2.938   4.265   0.169  0.0138  0.5027 -0.0182
 4195TIP3    H112549   2.865   4.249   0.110  0.2788  1.1826 -0.5345
 4195TIP3    H212550   2.906   4.332   0.229  0.6416  1.7761 -1.0655
 4196TIP3   OH212551   2.381   3.923   0.054 -0.5233  0.4294 -0.2058
 4196TIP3    H112552   2.408   4.015   0.046  0.3701  0.1905 -0.0341
 4196TIP3    H212553   2.295   3.920   0.012 -0.0921  1.1260 -1.1732
 4197TIP3   OH212554   2.307   5.565   4.751  0.2994 -0.3178  0.2007
 4197TIP3    H112555   2.401   5.556   4.735 -0.0258 -1.5514 -1.2114
 4197TIP3    H212556   2.271   5.597   4.668 -0.5040  0.3608  0.7942
 4198TIP3   OH212557   2.622   5.020   3.984  0.5335  0.4193 -0.3402
 4198TIP3    H112558   2.565   5.065   3.922  0.7772 -0.0949 -0.9443
 4198TIP3    H212559   2.601   5.059   4.069 -1.1813 -0.2058 -0.4421
 4199TIP3   OH212560   2.305   2.557   0.990  0.4894 -0.8840 -0.2852
 4199TIP3    H112561   2.241   2.601   0.935  1.3701  0.6299 -0.1431
 4199TIP3    H212562   2.388   2.600   0.970  0.9299 -0.6550  1.8378
 4200TIP3   OH212563   2.097   1.267   2.758 -0.2377 -0.2874  0.1312
 4200TIP3    H112564   2.141   1.238   2.838  0.6525  1.3607  0.2757
 4200TIP3    H212565   2.154   1.335   2.722 -1.6543  0.4725 -0.7729
 4201TIP3   OH212566   0.160   3.107   0.364  0.1446 -0.0095  0.1268
 4201TIP3    H112567   0.150   3.139   0.454 -1.2722  0.6629 -0.2403
 4201TIP3    H212568   0.232   3.158   0.329 -0.4376  1.0045  0.3507
 4202TIP3   OH212569   0.233   4.339   3.905  0.2689  0.2575  0.4112
 4202TIP3    H112570   0.155   4.369   3.858  0.9594 -1.2021 -1.7882
 4202TIP3    H212571   0.201   4.269   3.963 -0.0054 -0.7827 -0.9558
 4203TIP3   OH212572   4.825   5.374   4.321  0.1928  0.0342  0.0341
 4203TIP3    H112573   4.771   5.425   4.260 -0.7029  0.0426  0.8120
 4203TIP3    H212574   4.831   5.429   4.399  1.2415 -0.0242  0.0122
 4204TIP3   OH212575   3.241   1.989   1.981 -0.1556 -0.2270 -0.1158
 4204TIP3    H112576   3.326   1.945   1.985 -0.0384 -0.0296 -0.4486
 4204TIP3    H212577   3.228   2.022   2.070  0.3889  0.2546 -0.2094
 4205TIP3   OH212578   1.836   4.026   5.768 -0.4852 -0.3621 -0.0006
 4205TIP3    H112579   1.926   4.059   5.759 -1.5073  2.4184 -1.3088
 4205TIP3    H212580   1.827   3.961   5.699  0.6513 -1.0699  0.4928
 4206TIP3   OH212581   2.891   6.446   5.047  0.1358  0.5769 -0.2287
 4206TIP3    H112582   2.960   6.496   5.090 -1.5306  1.4039  1.6716
 4206TIP3    H212583   2.919   6.355   5.054  2.2557  1.0369 -1.9230
 4207TIP3   OH212584   1.856   1.838   5.223  0.8338 -0.2765 -0.4844
 4207TIP3    H112585   1.884   1.884   5.302  0.5077 -0.7526 -0.0869
 4207TIP3    H212586   1.855   1.906   5.155  2.6722 -0.1708 -0.4717
 4208TIP3   OH212587   6.550   4.228   0.332 -0.4832 -0.1096 -0.7579
 4208TIP3    H112588   6.596   4.251   0.251 -0.2861  1.0598 -0.3254
 4208TIP3    H212589   6.599   4.273   0.401 -2.4491  1.4494 -0.3028
 4209TIP3   OH212590   5.723   1.438   3.426 -0.1004  0.2420 -0.2714
 4209TIP3    H112591   5.640   1.396   3.450  0.8751 -1.9160 -0.4369
 4209TIP3    H212592   5.761   1.379   3.361  1.7232  1.0067  0.0460
 4210TIP3   OH212593   6.547   5.484   5.841 -0.1213  0.5848  0.3491
 4210TIP3    H112594   6.596   5.559   5.808  1.2323  0.4533  1.9435
 4210TIP3    H212595   6.586   5.465   5.926 -0.6623 -1.7043  0.1614
 4211TIP3   OH212596   0.145   3.896   2.870  0.0124  0.1429 -0.0858
 4211TIP3    H112597   0.179   3.807   2.885 -0.8659 -0.0721  0.7537
 4211TIP3    H212598   0.108   3.893   2.782  1.5518  0.2057 -0.7763
 4212TIP3   OH212599   1.122   1.067   1.313 -0.2535  0.0137  0.2042
 4212TIP3    H112600   1.130   1.160   1.292 -1.5301  0.3044  0.9174
 4212TIP3    H212601   1.189   1.052   1.380  0.5501  0.1978 -0.5396
 4213TIP3   OH212602   1.875   1.149   5.087 -0.3648 -0.2828 -0.3638
 4213TIP3    H112603   1.968   1.154   5.067 -0.3924  0.0794 -0.4182
 4213TIP3    H212604   1.867   1.074   5.146  0.1676  0.5119  0.7589
 4214TIP3   OH212605   0.097   3.613   5.102  0.0270  0.3292  0.4661
 4214TIP3    H112606   0.006   3.613   5.133 -0.3942 -1.2390 -0.6685
 4214TIP3    H212607   0.126   3.523   5.113  0.7781  0.3640 -1.0346
 4215TIP3   OH212608   4.014   0.790   2.365 -0.1513 -0.1854  0.4277
 4215TIP3    H112609   3.974   0.840   2.436 -1.4178  0.6924 -0.8599
 4215TIP3    H212610   4.064   0.722   2.410 -2.0002 -0.5097  2.1643
 4216TIP3   OH212611   4.763   6.305   2.332 -0.1948  0.2938 -0.7098
 4216TIP3    H112612   4.723   6.273   2.413 -1.4811 -0.3115 -1.5523
 4216TIP3    H212613   4.810   6.384   2.359 -0.0762 -0.2256  0.7313
 4217TIP3   OH212614   4.096   5.374   5.266  0.2954 -0.0201 -0.2741
 4217TIP3    H112615   4.186   5.365   5.297 -0.2057  1.4106  1.8070
 4217TIP3    H212616   4.049   5.303   5.310  0.3952 -0.9026 -1.5307
 4218TIP3   OH212617   6.944   2.307   0.364 -0.3273  0.0887 -0.2474
 4218TIP3    H112618   6.903   2.251   0.430  1.7820 -0.6396  0.5144
 4218TIP3    H212619   6.897   2.286   0.283  1.7519 -4.6444 -0.5547
 4219TIP3   OH212620   0.914   4.989   0.817  0.3429 -0.0228 -0.0666
 4219TIP3    H112621   0.984   5.053   0.808  0.0837  0.1073 -1.3480
 4219TIP3    H212622   0.843   5.023   0.763 -0.5746 -0.3498  0.8946
 4220TIP3   OH212623   3.965   0.924   5.181 -0.1269  0.3596  0.0967
 4220TIP3    H112624   3.988   0.939   5.273  0.0667 -1.2728  0.3365
 4220TIP3    H212625   3.869   0.919   5.182 -0.0886 -0.4242  0.3453
 4221TIP3   OH212626   0.630   3.587   0.519  0.4496 -0.4601  0.4378
 4221TIP3    H112627   0.612   3.503   0.562 -4.7598  0.6302  0.9961
 4221TIP3    H212628   0.578   3.584   0.439  2.4328  1.2706 -1.0250
 4222TIP3   OH212629   7.027   2.090   1.533  0.4530  0.3738 -0.2792
 4222TIP3    H112630   6.951   2.148   1.538  0.2944  0.1069  3.4597
 4222TIP3    H212631   7.093   2.132   1.589  1.3568 -1.5961  0.2333
 4223TIP3   OH212632   2.414   5.223   1.932 -0.3917 -0.4048 -0.7856
 4223TIP3    H112633   2.444   5.303   1.889 -0.7225  0.3484  0.3097
 4223TIP3    H212634   2.469   5.154   1.896  0.9226  0.5433 -0.6884
 4224TIP3   OH212635   3.504   5.253   3.551  0.1069 -0.0407 -0.4416
 4224TIP3    H112636   3.480   5.304   3.629 -1.4805  0.2164 -1.0475
 4224TIP3    H212637   3.594   5.226   3.566 -0.3043 -0.4003  1.6990
 4225TIP3   OH212638   1.114   3.675   3.425  0.3126  0.7190  0.4034
 4225TIP3    H112639   1.170   3.597   3.434 -2.7139 -1.8557 -0.9330
 4225TIP3    H212640   1.133   3.727   3.502  3.8759 -0.3472  0.4229
 4226TIP3   OH212641   0.065   1.528   0.211 -0.4753  0.3820  0.1342
 4226TIP3    H112642   0.123   1.603   0.202  0.6616 -0.6578 -2.4725
 4226TIP3    H212643   0.124   1.452   0.211 -1.6910 -0.6046  0.2391
 4227TIP3   OH212644   5.942   2.476   0.707 -0.1655 -0.3861 -0.4528
 4227TIP3    H112645   5.871   2.415   0.687 -0.8317  0.1181  0.3286
 4227TIP3    H212646   5.994   2.478   0.627  0.1839 -2.3805 -0.3171
 4228TIP3   OH212647   1.287   4.150   3.697  0.3725  0.3742 -0.0225
 4228TIP3    H112648   1.357   4.139   3.761  2.4682  1.9016 -1.8834
 4228TIP3    H212649   1.253   4.238   3.714  0.6676  0.6280 -0.7167
 4229TIP3   OH212650   5.105   6.275   4.062  0.3050 -0.0941 -0.0144
 4229TIP3    H112651   5.155   6.197   4.088  1.3007  0.9700  1.4252
 4229TIP3    H212652   5.056   6.247   3.984  0.5365 -2.1792  0.5235
 4230TIP3   OH212653   1.827   2.595   4.088  0.0025  0.1617  0.2958
 4230TIP3    H112654   1.878   2.536   4.145  0.8301  2.6438  2.2896
 4230TIP3    H212655   1.789   2.659   4.147 -1.7591  1.0546 -1.6724
 4231TIP3   OH212656   4.159   4.140   0.484 -0.1144  0.3209  0.2129
 4231TIP3    H112657   4.070   4.170   0.464 -0.4867 -1.1690 -0.4756
 4231TIP3    H212658   4.167   4.153   0.579 -1.1633  0.2079  0.3356
 4232TIP3   OH212659   1.863   5.503   4.594  0.0505  0.0291  0.0408
 4232TIP3    H112660   1.945   5.491   4.642  0.3387  1.6681  0.0188
 4232TIP3    H212661   1.890   5.523   4.504 -0.4252 -0.5245 -0.2392
 4233TIP3   OH212662   7.046   2.699   2.719  0.2075 -0.0475 -0.4433
 4233TIP3    H112663   7.061   2.769   2.655  2.3049  0.8208  0.8934
 4233TIP3    H212664   7.122   2.641   2.708 -1.5049 -2.2509 -1.5617
 4234TIP3   OH212665   4.614   5.576   3.852 -0.0544  0.8685 -0.0021
 4234TIP3    H112666   4.649   5.623   3.927  1.8808  0.8832 -0.8433
 4234TIP3    H212667   4.660   5.613   3.777  1.1639 -1.9274 -0.7767
 4235TIP3   OH212668   6.245   6.444   1.882 -0.3693 -0.0982  0.4421
 4235TIP3    H112669   6.275   6.390   1.955  0.9703  1.3370  1.0083
 4235TIP3    H212670   6.165   6.401   1.852  0.4151 -2.1504  1.1037
 4236TIP3   OH212671   3.597   1.387   3.331  0.5273 -0.3153 -0.0900
 4236TIP3    H112672   3.522   1.447   3.334  1.1203  0.4607 -0.4716
 4236TIP3    H212673   3.560   1.303   3.302 -0.1951  0.0504 -0.2477
 4237TIP3   OH212674   3.394   4.035   3.672  0.1376  0.0138 -0.2441
 4237TIP3    H112675   3.374   3.944   3.696 -1.5685  0.3892 -0.1209
 4237TIP3    H212676   3.466   4.060   3.730  0.5898 -1.2275 -0.2406
 4238TIP3   OH212677   6.076   5.672   4.834  0.5476  0.1877  0.0119
 4238TIP3    H112678   5.982   5.660   4.843  0.6586 -0.5577  0.2482
 4238TIP3    H212679   6.086   5.723   4.754 -0.0814  0.7480  0.2795
 4239TIP3   OH212680   6.577   3.568   5.254  0.4326 -0.6280 -0.4432
 4239TIP3    H112681   6.592   3.660   5.274  0.6824 -0.5187 -1.1271
 4239TIP3    H212682   6.539   3.568   5.167  2.8499 -1.3104 -1.5670
 4240TIP3   OH212683   0.968   5.149   3.670 -0.5026 -0.3195  0.2012
 4240TIP3    H112684   0.955   5.242   3.690 -0.0562 -0.4573  1.2338
 4240TIP3    H212685   0.893   5.125   3.616 -1.8337  0.0958  1.7863
 4241TIP3   OH212686   2.318   6.141   5.548  0.1884 -0.4386  0.4586
 4241TIP3    H112687   2.401   6.176   5.518 -0.7255  1.7066  0.2362
 4241TIP3    H212688   2.274   6.216   5.589 -1.8132 -1.3894  0.1681
 4242TIP3   OH212689   4.046   4.943   4.852  0.3168 -0.3028  0.2998
 4242TIP3    H112690   4.042   4.999   4.929 -0.7983  0.8893 -0.5988
 4242TIP3    H212691   3.972   4.969   4.798  1.8929 -0.0432 -1.8979
 4243TIP3   OH212692   5.559   4.568   5.117 -0.8179  0.0131  0.0713
 4243TIP3    H112693   5.520   4.645   5.159  0.0683  1.1053 -1.0414
 4243TIP3    H212694   5.594   4.517   5.190 -0.7204  1.0651  0.7888
 4244TIP3   OH212695   1.475   6.410   3.896 -0.3201 -0.2789  0.1076
 4244TIP3    H112696   1.460   6.483   3.835 -1.7200  0.5152  1.3427
 4244TIP3    H212697   1.569   6.391   3.887  0.9461  3.8903  2.0544
 4245TIP3   OH212698   2.304   1.585   3.292 -0.1700  0.1784  0.3016
 4245TIP3    H112699   2.361   1.633   3.232 -0.4762 -1.8314 -1.7316
 4245TIP3    H212700   2.264   1.653   3.347  1.2941  1.9668 -0.7424
 4246TIP3   OH212701   4.454   0.386   3.186 -0.2441 -0.2342 -0.0576
 4246TIP3    H112702   4.525   0.350   3.133 -0.3644 -0.9762  0.2710
 4246TIP3    H212703   4.402   0.309   3.212  0.3707 -0.0273  1.9654
 4247TIP3   OH212704   4.048   6.515   0.833  0.9349 -0.0143 -0.1386
 4247TIP3    H112705   3.967   6.560   0.810  1.9376  1.1503 -1.6228
 4247TIP3    H212706   4.021   6.446   0.893 -1.0890  0.5935 -0.2717
 4248TIP3   OH212707   1.712   1.829   1.043 -0.0398  0.3998 -0.1530
 4248TIP3    H112708   1.634   1.811   1.097  0.3061  1.4997  0.7455
 4248TIP3    H212709   1.721   1.924   1.045  1.0350  0.3227 -0.6800
 4249TIP3   OH212710   0.318   3.030   4.435  0.0208 -0.3960 -0.2731
 4249TIP3    H112711   0.363   3.109   4.406 -0.3892 -0.6659 -1.7154
 4249TIP3    H212712   0.388   2.974   4.469  0.0468  1.7332  3.9004
 4250TIP3   OH212713   2.734   1.373   2.987  0.0504 -0.5611  0.3840
 4250TIP3    H112714   2.799   1.328   2.933 -0.1674 -0.4318  0.0124
 4250TIP3    H212715   2.760   1.352   3.077  0.7208 -0.3535  0.2467
 4251TIP3   OH212716   6.357   0.189   3.825 -0.2305 -0.2990 -0.1997
 4251TIP3    H112717   6.298   0.126   3.783  0.8173 -0.7895 -0.9547
 4251TIP3    H212718   6.336   0.272   3.783 -1.5963 -0.1053  0.7783
 4252TIP3   OH212719   3.169   4.881   2.773 -0.5057  0.6037  0.0255
 4252TIP3    H112720   3.216   4.951   2.817  0.5741  0.3194 -0.6347
 4252TIP3    H212721   3.200   4.884   2.682 -1.5321  0.1993 -0.3638
 4253TIP3   OH212722   1.315   1.538   1.975 -0.3379  0.4070 -0.3945
 4253TIP3    H112723   1.322   1.617   1.921  0.7203 -0.0231 -0.9193
 4253TIP3    H212724   1.399   1.532   2.020  0.1526 -1.1514 -1.4194
 4254TIP3   OH212725   0.840   0.335   4.695 -0.4143 -0.2089  0.1362
 4254TIP3    H112726   0.837   0.350   4.600 -1.0178  0.5023  0.2595
 4254TIP3    H212727   0.909   0.269   4.707 -0.9306 -0.9719 -0.8839
 4255TIP3   OH212728   3.080   1.642   3.539  0.5995  0.3411  0.4372
 4255TIP3    H112729   3.026   1.718   3.560 -1.4678 -1.0347  0.4054
 4255TIP3    H212730   3.032   1.597   3.470  1.5977 -1.1586  0.6700
 4256TIP3   OH212731   5.855   2.059   2.414  0.2484  0.9004  0.1034
 4256TIP3    H112732   5.885   2.019   2.332 -0.1486  0.5627  0.1201
 4256TIP3    H212733   5.761   2.045   2.413  0.2612  0.7804  0.6819
 4257TIP3   OH212734   3.020   4.449   5.036  0.1694 -0.4133 -0.3340
 4257TIP3    H112735   3.045   4.359   5.058  1.3207 -0.5390 -1.9404
 4257TIP3    H212736   3.066   4.503   5.100  0.7307 -0.9040 -0.3143
 4258TIP3   OH212737   5.616   2.466   0.557  0.1142  0.6392 -0.2582
 4258TIP3    H112738   5.557   2.391   0.565 -0.6133  1.1329 -0.8560
 4258TIP3    H212739   5.576   2.534   0.611  1.2274  0.3524  0.9880
 4259TIP3   OH212740   2.686   2.552   3.653 -0.5004 -0.7232 -0.4246
 4259TIP3    H112741   2.759   2.611   3.633  0.0025 -1.2369 -0.1420
 4259TIP3    H212742   2.635   2.599   3.718  1.0896 -1.4523  1.4569
 4260TIP3   OH212743   0.692   4.167   2.383 -0.2187  0.2699  0.4937
 4260TIP3    H112744   0.713   4.255   2.350 -0.3295  0.4328  0.8530
 4260TIP3    H212745   0.774   4.118   2.375 -0.6469 -0.2111 -1.6257
 4261TIP3   OH212746   5.017   2.416   3.245  0.1077 -0.2625  0.5860
 4261TIP3    H112747   5.025   2.510   3.261 -0.6385 -0.6252  3.6938
 4261TIP3    H212748   4.934   2.406   3.197  1.0253  0.7276 -1.3070
 4262TIP3   OH212749   1.977   0.257   3.066  0.2476  0.4335 -0.1169
 4262TIP3    H112750   2.025   0.177   3.047  0.7874  0.4779  0.9639
 4262TIP3    H212751   2.045   0.326   3.065 -0.2325  0.9171 -1.1968
 4263TIP3   OH212752   1.432   0.030   1.526 -0.2326 -0.7577  0.0405
 4263TIP3    H112753   1.523   0.008   1.506 -0.5218  0.2629 -2.9094
 4263TIP3    H212754   1.382  -0.009   1.454 -1.6623  1.9506 -0.5593
 4264TIP3   OH212755   4.931   5.294   1.567  0.1482 -0.3370  0.3175
 4264TIP3    H112756   4.960   5.299   1.658  0.1120  1.8294  0.2630
 4264TIP3    H212757   4.974   5.369   1.525 -1.6731  0.0747 -0.8955
 4265TIP3   OH212758   3.547   6.729   4.384  0.2860  0.5418  0.5658
 4265TIP3    H112759   3.618   6.793   4.394  0.6759  0.0816  0.7801
 4265TIP3    H212760   3.542   6.687   4.470  0.3154 -0.0119  0.2942
 4266TIP3   OH212761   3.650   5.686   1.848 -0.0294 -0.4627  0.2949
 4266TIP3    H112762   3.602   5.609   1.818  0.0099  0.4588 -2.3950
 4266TIP3    H212763   3.587   5.758   1.838  0.5377  0.1327  0.9222
 4267TIP3   OH212764   3.984   1.919   0.437 -0.1738  0.4826 -0.5587
 4267TIP3    H112765   3.958   1.986   0.375  0.2223  0.7593 -0.4321
 4267TIP3    H212766   4.057   1.958   0.485  1.3924 -0.7155 -1.8081
 4268TIP3   OH212767   4.978   0.653   4.514  0.1697 -0.2447 -0.0686
 4268TIP3    H112768   5.018   0.738   4.531 -0.0616 -0.1525  0.0257
 4268TIP3    H212769   5.049   0.591   4.522  0.0808 -0.2152  1.2844
 4269TIP3   OH212770   0.297   5.925   5.816  0.5212  0.4429 -0.2087
 4269TIP3    H112771   0.274   5.989   5.749 -3.2484 -0.0321  0.4166
 4269TIP3    H212772   0.253   5.955   5.895  0.4870 -1.7183  0.6751
 4270TIP3   OH212773   1.062   2.760   4.669 -0.0385  0.1144  0.7278
 4270TIP3    H112774   1.142   2.811   4.675 -1.5561  2.5919  1.4703
 4270TIP3    H212775   1.076   2.701   4.595  3.4182 -1.5088  2.4380
 4271TIP3   OH212776   2.011   4.143   4.397 -0.2770  0.3222  0.1148
 4271TIP3    H112777   2.095   4.188   4.387 -0.3455  0.4634  0.1600
 4271TIP3    H212778   1.973   4.180   4.478  0.4085 -1.0310  1.0900
 4272TIP3   OH212779   0.976   2.747   3.618 -0.2453  0.2415 -0.2617
 4272TIP3    H112780   0.977   2.679   3.551 -0.3363 -1.1348  1.0753
 4272TIP3    H212781   0.941   2.825   3.574  0.7126 -0.3069 -2.0642
 4273TIP3   OH212782   1.832   2.040   5.057  1.0228 -0.0440  0.1401
 4273TIP3    H112783   1.828   1.982   4.981  1.5203 -0.2639  0.2760
 4273TIP3    H212784   1.752   2.093   5.052  1.0075 -0.1239 -0.4788
 4274TIP3   OH212785   3.578   6.068   3.100  0.0699 -0.1394 -0.2146
 4274TIP3    H112786   3.660   6.031   3.069  0.1060 -1.9374  1.7805
 4274TIP3    H212787   3.555   6.015   3.177 -2.3430  1.0670  0.0023
 4275TIP3   OH212788   5.223   4.437   4.688  1.0309 -0.8191  0.0906
 4275TIP3    H112789   5.265   4.411   4.606  1.1049  0.6725 -0.3710
 4275TIP3    H212790   5.288   4.493   4.731  0.0987  0.3685  0.0175
 4276TIP3   OH212791   6.656   4.546   0.608 -0.2197  0.2383  0.3213
 4276TIP3    H112792   6.591   4.565   0.540 -0.2844 -0.8092  0.0652
 4276TIP3    H212793   6.609   4.490   0.670 -0.0854  0.9819  1.1049
 4277TIP3   OH212794   6.459   1.973   5.735 -0.5156  0.1606 -0.0818
 4277TIP3    H112795   6.417   2.017   5.661 -2.5557 -0.1245  0.8405
 4277TIP3    H212796   6.453   1.880   5.714  0.9242  0.1401 -0.5436
 4278TIP3   OH212797   4.330   3.001   1.887 -0.1780  0.0817 -0.0525
 4278TIP3    H112798   4.333   2.915   1.929  1.2240 -0.1382 -0.5474
 4278TIP3    H212799   4.237   3.021   1.881 -0.6290 -1.9471 -0.9966
 4279TIP3   OH212800   0.542   0.273   4.182  0.3363  0.2347 -0.2231
 4279TIP3    H112801   0.479   0.251   4.250  1.4282 -0.9885  0.4300
 4279TIP3    H212802   0.496   0.258   4.099 -0.4043 -0.0483  0.2396
 4280TIP3   OH212803   0.230   5.814   3.131  0.5238  1.1368  0.0164
 4280TIP3    H112804   0.293   5.864   3.183  0.4447  0.0959  1.1554
 4280TIP3    H212805   0.181   5.762   3.195  0.0609  0.2080 -1.0435
 4281TIP3   OH212806   0.600   2.731   5.201  0.5150  0.1262 -0.9945
 4281TIP3    H112807   0.553   2.726   5.118 -0.2194 -0.0664 -0.5753
 4281TIP3    H212808   0.540   2.693   5.265  0.5369  1.4783 -0.1410
 4282TIP3   OH212809   3.838   6.433   1.420 -0.1294 -0.3366 -0.4605
 4282TIP3    H112810   3.799   6.397   1.499 -1.5344 -0.1754 -1.0484
 4282TIP3    H212811   3.905   6.494   1.452 -0.5754 -0.3817  0.5930
 4283TIP3   OH212812   6.370   4.616   2.615  0.1944  0.2452 -0.3703
 4283TIP3    H112813   6.403   4.611   2.525  1.4646  1.2486  0.0046
 4283TIP3    H212814   6.335   4.528   2.633  0.4662 -0.1424 -1.6362
 4284TIP3   OH212815   3.219   5.780   3.627  0.7295  0.0642 -0.1043
 4284TIP3    H112816   3.159   5.754   3.697  1.6776 -3.9522 -0.5411
 4284TIP3    H212817   3.298   5.808   3.672  0.1303  0.9916  0.4057
 4285TIP3   OH212818   2.156   4.157   0.417  0.2685 -0.0581  0.8646
 4285TIP3    H112819   2.170   4.064   0.401 -1.6128 -0.1128 -0.9187
 4285TIP3    H212820   2.222   4.201   0.363 -0.7075 -0.3883 -0.6854
 4286TIP3   OH212821   0.545   6.715   4.216  0.4301  0.3530  0.5298
 4286TIP3    H112822   0.551   6.756   4.129  2.6614 -0.7445  0.0734
 4286TIP3    H212823   0.494   6.635   4.201 -0.4677  0.9132  0.5601
 4287TIP3   OH212824   7.064   3.713   4.177 -0.3961  0.0778 -0.1219
 4287TIP3    H112825   7.078   3.715   4.083  0.1445  0.9813 -0.0333
 4287TIP3    H212826   7.020   3.795   4.197  2.2977  1.4381  0.7896
 4288TIP3   OH212827   5.638   5.101   3.656  0.0425 -0.2845 -0.5254
 4288TIP3    H112828   5.545   5.112   3.633 -0.3157  0.9258  1.2517
 4288TIP3    H212829   5.684   5.162   3.599 -0.5313  0.7791  0.1140
 4289TIP3   OH212830   0.398   4.974   5.807 -0.4334 -0.4715 -0.1928
 4289TIP3    H112831   0.481   5.012   5.837 -1.2996  1.6215 -0.2874
 4289TIP3    H212832   0.398   4.988   5.712 -0.8147 -0.6683 -0.2242
 4290TIP3   OH212833   3.558   5.341   2.439  0.0009 -0.2897 -0.2268
 4290TIP3    H112834   3.638   5.318   2.392  1.0077 -4.9119  3.0863
 4290TIP3    H212835   3.584   5.409   2.501  0.3068  0.9272 -1.6348
 4291TIP3   OH212836   0.931   3.379   5.338  0.8717  0.0909  0.1676
 4291TIP3    H112837   0.911   3.402   5.248 -0.1028  0.2991  0.4229
 4291TIP3    H212838   0.924   3.284   5.341  1.1509  0.0620 -0.0236
 4292TIP3   OH212839   4.366   2.474   1.062 -0.0952 -0.0969  0.0333
 4292TIP3    H112840   4.407   2.405   1.011 -0.4781 -0.3225  0.0262
 4292TIP3    H212841   4.283   2.436   1.091  0.2009 -0.0334  0.9808
 4293TIP3   OH212842   3.274   6.614   4.354  0.5199 -0.2579  0.0609
 4293TIP3    H112843   3.346   6.576   4.405  0.4683 -1.1143 -0.4744
 4293TIP3    H212844   3.317   6.668   4.288  0.7497 -1.3997 -0.7706
 4294TIP3   OH212845   4.869   1.701   1.035  0.3378  0.3927 -0.4336
 4294TIP3    H112846   4.948   1.679   1.084  1.3653  0.8261 -1.8293
 4294TIP3    H212847   4.889   1.783   0.992 -0.4122 -0.1064 -1.8005
 4295TIP3   OH212848   1.877   0.812   2.894  0.0458 -0.5110 -0.2626
 4295TIP3    H112849   1.804   0.832   2.834  0.2052 -1.4756 -0.7982
 4295TIP3    H212850   1.834   0.788   2.976 -0.1538  2.2943  0.5506
 4296TIP3   OH212851   5.835   5.903   4.868 -0.4680 -0.4248  0.1513
 4296TIP3    H112852   5.834   5.822   4.816 -0.1725  0.9863 -2.1557
 4296TIP3    H212853   5.757   5.950   4.841 -0.3208  0.3487  1.0395
 4297TIP3   OH212854   7.111   3.254   5.681  0.1697 -0.0310  0.0748
 4297TIP3    H112855   7.188   3.237   5.735  1.2487  2.4368 -0.5415
 4297TIP3    H212856   7.134   3.332   5.631 -2.3144  0.0970 -0.9946
 4298TIP3   OH212857   1.654   5.120   2.143 -0.2740 -0.5458  0.0418
 4298TIP3    H112858   1.666   5.198   2.089 -2.2370 -0.0518  0.2202
 4298TIP3    H212859   1.559   5.105   2.143  0.0436 -3.0255 -0.0927
 4299TIP3   OH212860   0.942   5.451   1.424 -0.2839  0.1316  0.2534
 4299TIP3    H112861   0.899   5.514   1.481  0.7942 -0.5231  1.8476
 4299TIP3    H212862   1.025   5.492   1.401 -0.1559 -0.1504  0.2100
 4300TIP3   OH212863   7.019   6.077   5.239 -0.0101 -0.4722 -0.2934
 4300TIP3    H112864   7.019   5.990   5.198 -0.9100 -0.1457 -1.0271
 4300TIP3    H212865   7.020   6.059   5.333  2.0488 -1.2401 -0.4211
 4301TIP3   OH212866   0.779   1.250   4.659 -0.0663 -0.8424 -0.0272
 4301TIP3    H112867   0.716   1.228   4.727  0.7426  1.8870  1.8049
 4301TIP3    H212868   0.727   1.265   4.581 -1.5990  0.1473  1.1229
 4302TIP3   OH212869   4.147   4.100   1.457  0.4205 -0.3788  0.4753
 4302TIP3    H112870   4.084   4.146   1.403  0.4803 -1.5708 -0.6639
 4302TIP3    H212871   4.202   4.052   1.395  0.4048 -1.9125  1.5645
 4303TIP3   OH212872   6.227   0.609   1.059 -0.2344 -0.4022 -0.5366
 4303TIP3    H112873   6.245   0.647   1.145 -2.4206  0.2278 -0.2933
 4303TIP3    H212874   6.309   0.567   1.033  0.7356  0.1675  1.4457
 4304TIP3   OH212875   0.356   2.968   5.752 -0.6916 -0.6678 -0.4461
 4304TIP3    H112876   0.429   3.029   5.742 -1.8738  1.0668  0.9848
 4304TIP3    H212877   0.312   2.969   5.667 -0.4175  0.1259 -0.5856
 4305TIP3   OH212878   4.550   1.383   2.573 -0.0928 -0.8207 -0.1027
 4305TIP3    H112879   4.519   1.292   2.571 -2.2996 -0.1200 -1.4474
 4305TIP3    H212880   4.509   1.423   2.497  2.7511  0.7535 -0.9353
 4306TIP3   OH212881   0.994   5.895   2.061 -0.5035  0.2872 -0.2807
 4306TIP3    H112882   1.043   5.908   1.980  1.3561  2.5380  1.1025
 4306TIP3    H212883   0.924   5.961   2.058 -0.5359  0.2613 -0.1171
 4307TIP3   OH212884   6.733   0.385   3.544  0.2357  0.5697 -0.7793
 4307TIP3    H112885   6.654   0.379   3.490  0.3698 -0.1693 -0.8972
 4307TIP3    H212886   6.778   0.302   3.531 -0.9484 -0.7025  2.3459
 4308TIP3   OH212887   2.011   0.399   0.361 -0.2233  0.2029 -0.2177
 4308TIP3    H112888   2.039   0.330   0.420  1.9803  0.4042 -0.9273
 4308TIP3    H212889   2.083   0.462   0.362 -2.1963  2.6271  0.5236
 4309TIP3   OH212890   3.266   4.396   1.016  0.0064  0.3059  0.2978
 4309TIP3    H112891   3.233   4.306   1.013  0.1899  0.2574 -0.8687
 4309TIP3    H212892   3.205   4.443   1.072 -0.1260 -0.5355  0.8745
 4310TIP3   OH212893   3.540   1.871   4.979  0.1081  0.2186  0.3719
 4310TIP3    H112894   3.566   1.953   4.936 -2.2869  1.6948  1.5519
 4310TIP3    H212895   3.485   1.827   4.914 -1.0397  1.0121  0.7737
 4311TIP3   OH212896   5.612   3.167   5.503  0.4705  0.4615 -0.6194
 4311TIP3    H112897   5.699   3.200   5.482  0.9259  0.3167  0.9833
 4311TIP3    H212898   5.623   3.115   5.582 -0.6284 -1.7261 -1.8207
 4312TIP3   OH212899   0.988   0.199   3.076  0.2125 -0.2246  0.0496
 4312TIP3    H112900   1.062   0.250   3.042 -0.7016  0.6899 -0.6256
 4312TIP3    H212901   0.941   0.260   3.133 -0.3583 -0.6025 -0.0118
 4313TIP3   OH212902   4.744   4.419   3.042 -0.0566  0.1541 -0.7560
 4313TIP3    H112903   4.652   4.444   3.038 -0.1653 -0.2792 -0.9670
 4313TIP3    H212904   4.747   4.330   3.006  0.1222 -0.6960  1.2147
 4314TIP3   OH212905   2.594   5.734   2.484 -0.2825  0.1614 -0.0663
 4314TIP3    H112906   2.628   5.724   2.573  0.4310  0.5750 -0.2823
 4314TIP3    H212907   2.547   5.818   2.486 -0.9778 -0.2221  0.1282
 4315TIP3   OH212908   1.166   0.143   4.823  0.0241  0.6640 -0.4844
 4315TIP3    H112909   1.123   0.090   4.755  0.1134  0.2184 -0.1954
 4315TIP3    H212910   1.105   0.140   4.897  0.9512 -0.7341  0.2627
 4316TIP3   OH212911   6.623   0.651   2.814 -0.3252  0.1855 -0.2671
 4316TIP3    H112912   6.692   0.658   2.880 -0.3862  0.9493 -0.2783
 4316TIP3    H212913   6.542   0.645   2.864 -0.3686  0.7334 -0.2675
 4317TIP3   OH212914   1.115   2.707   3.869 -1.0793  0.2447  0.1103
 4317TIP3    H112915   1.123   2.612   3.862  1.1558  0.3218  0.6714
 4317TIP3    H212916   1.088   2.735   3.782  1.2057 -0.7190 -0.9980
 4318TIP3   OH212917   6.719   4.276   5.692 -0.4081 -0.0707 -0.5051
 4318TIP3    H112918   6.671   4.348   5.734 -1.1708 -0.5272 -0.5715
 4318TIP3    H212919   6.678   4.268   5.606  0.4589  0.1806 -0.9525
 4319TIP3   OH212920   4.029   6.555   2.513  0.3100  0.2656 -0.0509
 4319TIP3    H112921   4.029   6.490   2.443 -0.8634  0.3760 -0.1834
 4319TIP3    H212922   4.112   6.601   2.504  0.6865 -0.5114 -0.6191
 4320TIP3   OH212923   4.244   4.453   0.982 -0.1315 -0.0799  0.6212
 4320TIP3    H112924   4.249   4.527   0.921  1.3390 -0.5316  0.1721
 4320TIP3    H212925   4.253   4.376   0.927 -2.4800 -0.6984  0.9806
 4321TIP3   OH212926   2.310   3.243   1.244  0.1365  0.1196 -0.7312
 4321TIP3    H112927   2.350   3.192   1.315 -0.0464 -0.4197 -1.0063
 4321TIP3    H212928   2.363   3.222   1.167  1.0108  1.5570 -0.5505
 4322TIP3   OH212929   0.690   0.896   5.169 -0.2535 -0.0902  0.4626
 4322TIP3    H112930   0.643   0.898   5.085  0.1435 -1.3159  0.1831
 4322TIP3    H212931   0.636   0.839   5.225 -0.4392  0.6030  1.0003
 4323TIP3   OH212932   2.430   0.681   2.738  0.3197 -0.4077 -0.5921
 4323TIP3    H112933   2.335   0.682   2.737  0.3185 -0.0028 -1.7664
 4323TIP3    H212934   2.454   0.597   2.776 -0.4903  0.1985  1.3464
 4324TIP3   OH212935   6.305   0.846   0.405 -0.4023  0.2830  0.5073
 4324TIP3    H112936   6.233   0.870   0.347  0.0728  0.4277 -0.0370
 4324TIP3    H212937   6.265   0.834   0.491 -1.1786 -0.2853  0.0782
 4325TIP3   OH212938   2.446   5.756   1.121 -0.5804 -0.2587 -0.5572
 4325TIP3    H112939   2.498   5.784   1.045  0.2300  0.3918  0.2065
 4325TIP3    H212940   2.355   5.767   1.093 -0.4855 -3.2761 -2.6459
 4326TIP3   OH212941   2.862   0.430   0.665  0.2003  0.2850  0.1728
 4326TIP3    H112942   2.945   0.386   0.648 -0.4431 -1.1049  0.4580
 4326TIP3    H212943   2.852   0.427   0.760  0.7013  2.1903  0.3362
 4327TIP3   OH212944   4.288   4.896   3.710  0.0180 -0.0551 -0.6680
 4327TIP3    H112945   4.288   4.920   3.617  0.6148  0.6614 -0.4872
 4327TIP3    H212946   4.214   4.835   3.719 -1.0700  1.1439 -1.2826
 4328TIP3   OH212947   3.771   2.212   1.590 -0.2059 -0.2569 -0.4160
 4328TIP3    H112948   3.710   2.234   1.519  0.8272 -0.1088 -1.2813
 4328TIP3    H212949   3.854   2.196   1.546  0.4121 -0.3743  0.7545
 4329TIP3   OH212950   4.858   4.970   1.003 -0.3248  0.2733 -0.0923
 4329TIP3    H112951   4.864   4.882   0.968 -1.0926  0.0136  0.4038
 4329TIP3    H212952   4.916   5.022   0.947  0.2151 -0.5545 -0.3209
 4330TIP3   OH212953   6.677   3.777   3.281 -0.2062  0.6665 -0.7160
 4330TIP3    H112954   6.742   3.829   3.235  0.9718  1.3016  1.5312
 4330TIP3    H212955   6.727   3.709   3.326 -1.3211 -0.0832 -0.5491
 4331TIP3   OH212956   1.929   5.337   1.673  0.0175 -0.0749  0.0368
 4331TIP3    H112957   1.929   5.400   1.746  0.0366 -0.3214  0.2510
 4331TIP3    H212958   1.851   5.360   1.622 -1.1666 -1.1902  1.2738
 4332TIP3   OH212959   1.234   5.732   0.690 -0.0080  0.2528  0.2487
 4332TIP3    H112960   1.169   5.713   0.622 -0.1307 -0.0056  0.4349
 4332TIP3    H212961   1.200   5.687   0.768 -0.0007  0.7525  0.5451
 4333TIP3   OH212962   0.209   6.542   5.874 -0.8164  0.0872 -0.4387
 4333TIP3    H112963   0.219   6.450   5.849 -1.3089 -0.4715  1.3105
 4333TIP3    H212964   0.299   6.575   5.879 -0.4788 -0.9599  1.1576
 4334TIP3   OH212965   0.723   5.116   4.878  0.3858 -0.0656 -0.0185
 4334TIP3    H112966   0.691   5.158   4.957  0.9778  1.0838 -0.3800
 4334TIP3    H212967   0.819   5.121   4.884  0.4661 -1.1294 -0.1910
 4335TIP3   OH212968   0.896   3.255   2.697 -0.4577  0.0286  0.1681
 4335TIP3    H112969   0.877   3.240   2.790 -0.0375 -1.0634  0.0953
 4335TIP3    H212970   0.822   3.306   2.665 -0.2250  1.1162  1.2805
 4336TIP3   OH212971   2.476   0.271   3.155  0.3623  0.0221 -0.2519
 4336TIP3    H112972   2.453   0.212   3.083 -2.3845 -0.8424  1.1769
 4336TIP3    H212973   2.436   0.231   3.232  0.3534  2.5802  1.1815
 4337TIP3   OH212974   2.824   3.984   5.099 -0.2817 -1.1987 -0.1791
 4337TIP3    H112975   2.806   4.046   5.028 -2.0208 -1.6792 -0.1857
 4337TIP3    H212976   2.850   3.903   5.054  0.5761 -0.9252 -0.1992
 4338TIP3   OH212977   1.991   1.332   0.608  0.4783 -0.1864  0.4614
 4338TIP3    H112978   1.915   1.355   0.554  1.3555  2.3466  0.1437
 4338TIP3    H212979   2.062   1.319   0.545  1.2911  1.8861  0.8414
 4339TIP3   OH212980   6.493   4.539   0.053  0.8555 -0.1028  0.1706
 4339TIP3    H112981   6.577   4.551   0.097  2.2243 -0.9247 -2.0263
 4339TIP3    H212982   6.466   4.628   0.029  2.0608  0.0591 -0.6858
 4340TIP3   OH212983   4.591   2.504   4.299  0.3935  0.0015  0.4024
 4340TIP3    H112984   4.521   2.478   4.359 -0.4847  1.6020  0.1311
 4340TIP3    H212985   4.671   2.490   4.348 -0.2379  0.0361  1.4797
 4341TIP3   OH212986   3.531   2.262   0.710  0.6977  0.2108 -0.5529
 4341TIP3    H112987   3.539   2.351   0.745  2.6795  0.3518 -1.2802
 4341TIP3    H212988   3.589   2.209   0.765  1.3891 -0.1630 -1.6182
 4342TIP3   OH212989   3.685   0.396   1.878  0.4859  0.1412  0.0364
 4342TIP3    H112990   3.753   0.453   1.913  0.4032  1.1674 -1.4054
 4342TIP3    H212991   3.604   0.426   1.921  0.5503  0.6534 -0.1957
 4343TIP3   OH212992   6.102   1.422   2.212  0.2166  0.9450  0.5248
 4343TIP3    H112993   6.153   1.377   2.146 -0.7410  2.2941 -1.2182
 4343TIP3    H212994   6.159   1.493   2.242  0.6600  0.3174  1.2192
 4344TIP3   OH212995   5.274   6.196   2.115 -0.0242 -0.4897  0.1604
 4344TIP3    H112996   5.266   6.270   2.056  1.0190 -0.3381  0.1847
 4344TIP3    H212997   5.210   6.213   2.184  1.2883  1.2373  1.0337
 4345TIP3   OH212998   2.482   1.985   5.553  0.6612  0.0718 -0.3532
 4345TIP3    H112999   2.504   2.037   5.630  2.5435 -1.4658  0.2459
 4345TIP3    H213000   2.432   2.044   5.497 -0.7731  1.2587  2.0086
 4346TIP3   OH213001   4.083   6.554   5.501  0.1195  0.3164  0.2737
 4346TIP3    H113002   4.034   6.616   5.446  2.8067  0.9442 -1.6422
 4346TIP3    H213003   4.082   6.594   5.588 -0.4200  1.7233 -0.3396
 4347TIP3   OH213004   0.947   2.205   4.848  0.0517  0.0188  0.6817
 4347TIP3    H113005   0.912   2.225   4.935  4.0566  0.7296  2.3743
 4347TIP3    H213006   0.984   2.287   4.817 -0.0519 -0.5558 -1.0914
 4348TIP3   OH213007   3.015   0.963   2.118  0.0825 -0.5183  0.1781
 4348TIP3    H113008   2.941   1.001   2.070  1.4923 -0.4933 -2.1316
 4348TIP3    H213009   2.977   0.889   2.165 -1.4083 -0.6140 -1.0790
 4349TIP3   OH213010   3.926   3.366   0.994 -0.6798 -0.3024  0.3328
 4349TIP3    H113011   3.956   3.301   1.058 -0.4280 -0.2192  0.3000
 4349TIP3    H213012   3.992   3.364   0.925  0.0059  0.8817  0.9236
 4350TIP3   OH213013   0.307   6.165   0.602 -0.0079 -0.3037 -0.1294
 4350TIP3    H113014   0.269   6.101   0.662  0.4586  0.2304  0.7641
 4350TIP3    H213015   0.372   6.115   0.552 -0.7245 -0.8570 -0.5306
 4351TIP3   OH213016   4.175   3.788   1.619  0.6949  0.2011  0.8759
 4351TIP3    H113017   4.198   3.808   1.710  0.4603  1.3626  0.6971
 4351TIP3    H213018   4.259   3.782   1.573  0.8508 -1.1023  1.2901
 4352TIP3   OH213019   4.230   1.464   2.702  0.5616 -0.1325 -0.1369
 4352TIP3    H113020   4.322   1.484   2.688  0.0395  0.9464 -2.3140
 4352TIP3    H213021   4.205   1.518   2.777  1.5877 -0.1402  0.2271
 4353TIP3   OH213022   3.437   3.646   0.945  0.5224 -0.2318  0.0570
 4353TIP3    H113023   3.525   3.636   0.981  1.5487 -1.2151 -2.4938
 4353TIP3    H213024   3.445   3.718   0.881 -1.0696  1.0536  1.2189
 4354TIP3   OH213025   4.974   3.041   2.432 -0.1892  0.1353  0.1230
 4354TIP3    H113026   4.973   2.945   2.427 -2.0419  0.0447  1.3203
 4354TIP3    H213027   4.896   3.068   2.383 -0.3776  0.9543  0.8624
 4355TIP3   OH213028   4.374   4.334   4.104  0.5469 -0.2670  0.4308
 4355TIP3    H113029   4.432   4.410   4.095 -0.3717  0.2311 -1.8503
 4355TIP3    H213030   4.432   4.259   4.093  1.0133  0.1866 -0.3412
 4356TIP3   OH213031   2.497   1.936   2.869  0.4656 -0.6526  0.4752
 4356TIP3    H113032   2.544   1.910   2.790  1.0313  0.1390  0.5394
 4356TIP3    H213033   2.414   1.888   2.865  1.1059 -1.7865  0.1618
 4357TIP3   OH213034   1.717   1.639   0.225  0.3897  0.4625 -0.0525
 4357TIP3    H113035   1.748   1.701   0.159  0.3035  0.8664  0.2819
 4357TIP3    H213036   1.770   1.657   0.302 -0.9045  1.4474  0.6611
 4358TIP3   OH213037   4.694   1.940   0.556 -0.2062  0.2499 -0.2091
 4358TIP3    H113038   4.773   1.985   0.528 -0.1018  1.4187  1.8656
 4358TIP3    H213039   4.678   1.876   0.486  1.2568  1.5141 -1.7901
 4359TIP3   OH213040   4.478   5.179   1.469 -0.0093 -0.1581 -0.1270
 4359TIP3    H113041   4.449   5.112   1.406 -0.8778 -2.5324  2.5930
 4359TIP3    H213042   4.399   5.228   1.490  0.0696 -0.0343 -0.1170
 4360TIP3   OH213043   1.012   2.728   2.343  1.0452 -0.2876 -0.5024
 4360TIP3    H113044   1.086   2.730   2.283  1.4441 -0.5427 -0.0332
 4360TIP3    H213045   1.032   2.794   2.409  1.0703 -0.6507 -0.1356
 4361TIP3   OH213046   4.048   2.853   0.851  0.1298  0.4003  0.2187
 4361TIP3    H113047   4.095   2.841   0.934 -1.3808  1.0832  1.2033
 4361TIP3    H213048   3.967   2.802   0.861 -0.9770  2.0513 -0.0511
 4362TIP3   OH213049   4.753   0.573   0.144  0.5718 -0.7250  0.1297
 4362TIP3    H113050   4.676   0.555   0.199  0.7616 -2.8705 -0.2232
 4362TIP3    H213051   4.809   0.628   0.199 -1.1544  0.8805  0.4007
 4363TIP3   OH213052   6.643   2.364   2.074  0.1275 -0.7858  0.0819
 4363TIP3    H113053   6.735   2.377   2.099 -0.5908 -1.1289  3.5213
 4363TIP3    H213054   6.623   2.275   2.103 -1.2017 -0.8625 -0.9850
 4364TIP3   OH213055   5.473   5.446   4.619 -0.5786  0.4028 -0.4007
 4364TIP3    H113056   5.382   5.459   4.646 -0.9987 -2.7318 -0.0035
 4364TIP3    H213057   5.484   5.351   4.612  1.3031  0.6540 -5.1543
 4365TIP3   OH213058   1.079   2.960   5.659  0.2861 -0.3711  0.2615
 4365TIP3    H113059   1.134   2.893   5.700 -0.3670 -0.2720  1.3328
 4365TIP3    H213060   0.999   2.914   5.634  0.0040 -0.0837  0.6211
 4366TIP3   OH213061   0.344   3.030   5.456  0.3836 -0.4561  0.3430
 4366TIP3    H113062   0.295   2.974   5.395 -2.6406  1.7129  0.5162
 4366TIP3    H213063   0.408   3.075   5.401  0.8678 -1.8802 -0.3085
 4367TIP3   OH213064   4.693   5.299   3.808  0.0549  0.0857  0.3926
 4367TIP3    H113065   4.664   5.262   3.725 -3.0631  0.0073  1.3889
 4367TIP3    H213066   4.656   5.388   3.808  1.5617  0.7373  0.9592
 4368TIP3   OH213067   5.500   1.502   0.356 -0.0089  0.0675  0.0994
 4368TIP3    H113068   5.519   1.591   0.329 -2.9558  1.9566  3.3676
 4368TIP3    H213069   5.415   1.483   0.317 -0.5284 -0.2959  1.3464
 4369TIP3   OH213070   6.430   4.474   1.031 -0.7128 -0.2138  0.3862
 4369TIP3    H113071   6.470   4.514   0.953  0.4454 -2.0290 -0.0156
 4369TIP3    H213072   6.361   4.417   0.996  0.2183 -1.5125  0.5891
 4370TIP3   OH213073   5.077   2.835  -0.035 -0.5617 -0.6266 -0.0873
 4370TIP3    H113074   5.020   2.787   0.025  1.1335 -0.5992  1.6323
 4370TIP3    H213075   5.133   2.887   0.022  0.6367 -0.0201 -1.7496
 4371TIP3   OH213076   7.148   4.343   4.469 -0.3732 -0.1447  0.2157
 4371TIP3    H113077   7.184   4.406   4.406  0.3039 -1.1370 -0.4299
 4371TIP3    H213078   7.216   4.334   4.535 -0.2324 -0.5860  0.0174
 4372TIP3   OH213079   2.552   4.295   0.545 -0.1016 -0.1416  0.2622
 4372TIP3    H113080   2.489   4.349   0.593 -2.2316 -1.3099 -1.0487
 4372TIP3    H213081   2.554   4.332   0.457 -0.0315 -0.9541 -0.0946
 4373TIP3   OH213082   5.367   4.834   1.999  0.2459  0.0161 -0.4213
 4373TIP3    H113083   5.334   4.878   1.921  0.5691  1.3033  0.1408
 4373TIP3    H213084   5.460   4.857   2.001  0.2108  0.0948  0.4059
 4374TIP3   OH213085   1.780   2.556   1.849 -0.0104 -0.5456  0.0832
 4374TIP3    H113086   1.806   2.575   1.939  0.7522 -1.9185  0.1760
 4374TIP3    H213087   1.850   2.595   1.795 -0.2461 -0.1015  0.0881
 4375TIP3   OH213088   6.477   5.686   1.108 -0.1916  0.1021  0.2704
 4375TIP3    H113089   6.501   5.766   1.156  1.7467 -0.3088  0.0662
 4375TIP3    H213090   6.525   5.693   1.025 -1.1892 -0.5948 -0.3917
 4376TIP3   OH213091   3.138   0.572   3.683 -0.2156  0.1276 -0.4073
 4376TIP3    H113092   3.110   0.488   3.646 -0.5130  0.4538 -0.9549
 4376TIP3    H213093   3.069   0.596   3.744 -0.1108 -0.0463 -0.2220
 4377TIP3   OH213094   6.071   4.975   5.081 -0.1576 -0.4978  0.3351
 4377TIP3    H113095   6.131   4.947   5.012 -1.2730  0.1913 -0.9716
 4377TIP3    H213096   6.120   5.042   5.129  0.3910 -0.4743 -0.2371
 4378TIP3   OH213097   1.923   0.402   3.653  0.3647  0.2630  0.1966
 4378TIP3    H113098   1.836   0.412   3.613  0.5987 -1.6070 -0.8918
 4378TIP3    H213099   1.984   0.409   3.580  1.2107  1.8647  0.9923
 4379TIP3   OH213100   4.540   3.544   2.943  0.1250  0.1151 -0.6270
 4379TIP3    H113101   4.623   3.575   2.979 -0.3394  0.0455  0.5453
 4379TIP3    H213102   4.564   3.500   2.862  1.2985 -0.3557 -0.0469
 4380TIP3   OH213103   2.892   3.388   5.559 -0.6181  0.1043  0.4016
 4380TIP3    H113104   2.920   3.417   5.472 -0.5296 -0.3547  0.2740
 4380TIP3    H213105   2.849   3.304   5.543 -2.6772  1.0863  0.5176
 4381TIP3   OH213106   1.431   2.357   0.910  0.3248  0.8966 -0.0059
 4381TIP3    H113107   1.505   2.314   0.866  0.0729  1.3242 -0.8693
 4381TIP3    H213108   1.356   2.300   0.892  0.0200  1.5728 -1.0236
 4382TIP3   OH213109   6.507   2.096   2.677  0.4994 -0.3681 -0.6156
 4382TIP3    H113110   6.516   2.031   2.608  1.1447 -0.7705 -0.1720
 4382TIP3    H213111   6.419   2.131   2.666  0.0447 -1.4919 -0.7107
 4383TIP3   OH213112   2.251   4.909   2.560  0.2603  0.2305  0.2606
 4383TIP3    H113113   2.193   4.959   2.504  0.7283 -1.1108 -1.5109
 4383TIP3    H213114   2.215   4.820   2.560  1.2761 -0.2100  0.6124
 4384TIP3   OH213115   6.353   5.193   1.250  0.0398  0.7391  0.4639
 4384TIP3    H113116   6.324   5.283   1.236 -0.2448  0.7857  1.2645
 4384TIP3    H213117   6.328   5.174   1.341  0.7223  0.0904  0.5253
 4385TIP3   OH213118   0.612   0.747   5.387  0.8059  0.0393 -0.0187
 4385TIP3    H113119   0.525   0.706   5.385 -0.1299  1.8392  0.9767
 4385TIP3    H213120   0.618   0.785   5.475  1.8926  1.3988 -0.6413
 4386TIP3   OH213121   3.541   4.954   5.355  0.3976 -0.3324 -0.4263
 4386TIP3    H113122   3.519   4.993   5.271  3.1965 -1.6167 -1.9183
 4386TIP3    H213123   3.528   4.860   5.342  0.9387 -0.5574  0.5441
 4387TIP3   OH213124   1.700   4.175   3.118  0.1094 -0.1956 -0.2528
 4387TIP3    H113125   1.771   4.238   3.131 -0.4168  0.5781 -1.0706
 4387TIP3    H213126   1.710   4.146   3.028  0.1483 -1.0515  0.0224
 4388TIP3   OH213127   3.156   1.253   4.611  0.1026  0.0983  0.0674
 4388TIP3    H113128   3.221   1.323   4.602 -0.4452  0.4842 -1.0716
 4388TIP3    H213129   3.174   1.195   4.537  0.6494 -1.0776  1.0798
 4389TIP3   OH213130   5.621   0.936   4.271  0.1081 -0.1001 -0.0252
 4389TIP3    H113131   5.701   0.953   4.220 -0.9752 -1.0429 -2.2021
 4389TIP3    H213132   5.555   0.992   4.231 -0.9029 -1.2245  0.0262
 4390TIP3   OH213133   2.046   0.496   2.067 -0.2459  0.0186 -0.0016
 4390TIP3    H113134   1.992   0.461   1.996 -0.9455 -0.5447  0.7744
 4390TIP3    H213135   2.061   0.421   2.125 -0.5987  0.6868  0.9844
 4391TIP3   OH213136   7.183   1.383   3.586  0.4875 -0.7080 -0.1556
 4391TIP3    H113137   7.146   1.340   3.663 -3.9384  1.3522 -0.8190
 4391TIP3    H213138   7.212   1.469   3.618 -0.8886 -0.0498 -0.5711
 4392TIP3   OH213139   4.479   0.812   5.768 -0.2572  1.1416  0.2025
 4392TIP3    H113140   4.477   0.882   5.703  2.8864  1.0195 -0.1915
 4392TIP3    H213141   4.425   0.743   5.730 -1.3033  2.3495 -0.6085
 4393TIP3   OH213142   0.073   3.052   1.958 -0.2205 -0.1909 -0.7287
 4393TIP3    H113143   0.148   3.084   1.908  1.4179 -3.0688 -0.3509
 4393TIP3    H213144   0.000   3.054   1.897  0.4070  1.6149 -1.4608
 4394TIP3   OH213145   5.152   0.059   0.200  0.1847  0.0577  0.3891
 4394TIP3    H113146   5.097  -0.019   0.192  0.2734  0.0525 -0.2419
 4394TIP3    H213147   5.123   0.101   0.281 -1.5610  0.6898 -0.5096
 4395TIP3   OH213148   2.512   1.766   4.756  0.2803  0.3650  0.0978
 4395TIP3    H113149   2.451   1.839   4.743  1.1256  0.9910 -0.4681
 4395TIP3    H213150   2.495   1.708   4.682 -0.4276 -0.0511  0.5750
 4396TIP3   OH213151   6.987   1.958   5.585 -0.5666 -0.1772  0.0231
 4396TIP3    H113152   7.012   1.933   5.674 -1.0045  0.8902  0.4612
 4396TIP3    H213153   6.894   1.937   5.578 -0.6185  0.0714 -0.0596
 4397TIP3   OH213154   2.958   3.089   2.601  0.0824 -0.0011  0.2983
 4397TIP3    H113155   3.040   3.134   2.621 -0.7263  0.8116  2.0146
 4397TIP3    H213156   2.892   3.133   2.656 -1.3517 -1.1698 -0.4003
 4398TIP3   OH213157   6.327   6.386   2.844  0.2461  0.3134  0.5084
 4398TIP3    H113158   6.404   6.343   2.808 -0.8889 -0.1200 -1.5586
 4398TIP3    H213159   6.327   6.473   2.804 -1.5665 -0.5167 -1.5180
 4399TIP3   OH213160   0.486   5.223   3.048  0.5386  0.3096  0.0926
 4399TIP3    H113161   0.520   5.148   2.999 -0.6598  0.6441 -1.3600
 4399TIP3    H213162   0.483   5.294   2.983 -0.4528  0.9673  0.8287
 4400TIP3   OH213163   6.962   2.751   4.801 -0.1202  0.0433  0.3239
 4400TIP3    H113164   6.963   2.846   4.796  1.4174  0.0705  0.6472
 4400TIP3    H213165   6.944   2.732   4.893  2.2243  0.1115  0.8604
 4401TIP3   OH213166   5.300   6.616   5.783 -0.4488 -0.5043  0.0718
 4401TIP3    H113167   5.336   6.581   5.864 -1.2986 -0.4394  0.4896
 4401TIP3    H213168   5.228   6.672   5.811  1.5166  2.5319 -0.4669
 4402TIP3   OH213169   3.848   2.399   2.815 -0.4027  0.2768  0.5268
 4402TIP3    H113170   3.830   2.305   2.802  0.9230 -0.1284  1.4226
 4402TIP3    H213171   3.909   2.402   2.889 -0.1178  1.8309  0.2647
 4403TIP3   OH213172   2.162   5.512   2.454  0.5791  0.6754  0.3964
 4403TIP3    H113173   2.099   5.498   2.383  0.5970  2.6818 -0.0627
 4403TIP3    H213174   2.247   5.499   2.413  0.6144  2.3774 -0.1378
 4404TIP3   OH213175   4.628   3.887   2.845  0.3513 -0.0504 -0.1199
 4404TIP3    H113176   4.674   3.834   2.910  0.1683  0.1753  0.1978
 4404TIP3    H213177   4.659   3.977   2.861  1.6254 -0.1972 -1.4673
 4405TIP3   OH213178   1.299   4.727   3.416 -0.0184  0.1157  1.0354
 4405TIP3    H113179   1.297   4.719   3.321 -0.3309  0.2376  1.0294
 4405TIP3    H213180   1.235   4.796   3.435  0.3065  0.3403  1.3074
 4406TIP3   OH213181   5.881   0.632   3.563  0.5539  0.2603  0.4415
 4406TIP3    H113182   5.884   0.727   3.551 -0.6054  0.7926  3.4631
 4406TIP3    H213183   5.973   0.606   3.568  0.9240  0.9433 -1.7053
 4407TIP3   OH213184   6.143   3.781   5.292 -0.7141  0.8273  0.6054
 4407TIP3    H113185   6.183   3.707   5.337 -0.8460  0.3693 -0.0169
 4407TIP3    H213186   6.052   3.756   5.280 -0.2610  0.0434 -1.6972
 4408TIP3   OH213187   5.072   0.530   5.032  0.0688  0.1700 -0.2829
 4408TIP3    H113188   5.082   0.625   5.045 -0.2565 -0.0227  1.7191
 4408TIP3    H213189   5.161   0.496   5.035  0.1071  0.3021  0.1634
 4409TIP3   OH213190   2.751   5.336   0.318 -0.6686 -0.1192 -0.2221
 4409TIP3    H113191   2.826   5.282   0.345 -0.6532 -0.0313 -0.0901
 4409TIP3    H213192   2.748   5.326   0.223 -0.6502 -0.3337 -0.2019
 4410TIP3   OH213193   0.065   2.240   5.301 -0.2108  0.4458 -0.0285
 4410TIP3    H113194   0.093   2.236   5.392 -2.4008 -0.8645  0.6697
 4410TIP3    H213195   0.003   2.313   5.297 -0.0780  0.5397 -0.4866
 4411TIP3   OH213196   2.346   0.545   1.136  0.2021  0.3588  0.0513
 4411TIP3    H113197   2.405   0.584   1.071 -0.1181 -0.0259 -0.4804
 4411TIP3    H213198   2.342   0.609   1.206  0.6129  0.7547 -0.2808
 4412TIP3   OH213199   2.151   2.033   4.529  0.1985  0.2371 -0.0707
 4412TIP3    H113200   2.126   1.944   4.504 -1.2413  0.9032 -1.0807
 4412TIP3    H213201   2.124   2.041   4.621  0.7652 -0.4974  0.1732
 4413TIP3   OH213202   5.030   3.488   4.175  0.5498 -0.2929  0.2413
 4413TIP3    H113203   5.025   3.534   4.259  1.8131 -1.7765  1.1791
 4413TIP3    H213204   5.066   3.402   4.197  0.7885 -0.7603 -1.8132
 4414TIP3   OH213205   0.758   2.158   2.395 -0.4042  0.0068 -0.6727
 4414TIP3    H113206   0.747   2.182   2.487 -0.6250 -1.7041 -0.2196
 4414TIP3    H213207   0.771   2.242   2.350 -1.6937  0.9949  0.6989
 4415TIP3   OH213208   1.184   2.003   1.574 -0.2403  0.3193  0.2561
 4415TIP3    H113209   1.242   1.946   1.522  0.2706  0.4833  0.6340
 4415TIP3    H213210   1.140   2.057   1.509 -0.0775  0.0923 -0.0501
 4416TIP3   OH213211   3.506   3.739   1.325 -0.0864 -0.0354 -0.3755
 4416TIP3    H113212   3.471   3.794   1.254 -2.6524 -0.2417  0.6060
 4416TIP3    H213213   3.463   3.654   1.312  0.4918 -0.4972  0.6367
 4417TIP3   OH213214   6.549   2.587   2.883 -0.2501  0.2632 -0.1707
 4417TIP3    H113215   6.550   2.534   2.963 -0.7974  1.2204  0.4965
 4417TIP3    H213216   6.506   2.531   2.818 -0.7200 -0.1661  0.4908
 4418TIP3   OH213217   3.940   1.623   2.587 -0.4021 -0.0738  0.2981
 4418TIP3    H113218   3.938   1.529   2.602  1.3447  0.1632  2.7187
 4418TIP3    H213219   4.028   1.650   2.615 -1.1890  2.4027  0.7029
 4419TIP3   OH213220   2.739   3.193   5.876  0.4013  0.4030  0.0637
 4419TIP3    H113221   2.650   3.228   5.887  0.0598 -0.8640  1.5897
 4419TIP3    H213222   2.744   3.171   5.783 -1.7158 -1.5683  0.3135
 4420TIP3   OH213223   3.761   5.917   5.273 -0.1687  0.0978  0.3592
 4420TIP3    H113224   3.827   5.893   5.338  1.9978  0.1954 -1.6716
 4420TIP3    H213225   3.765   6.013   5.269 -0.5723  0.1154  0.3362
 4421TIP3   OH213226   6.539   5.152   3.363  0.4566 -0.4894 -0.1951
 4421TIP3    H113227   6.604   5.118   3.425 -0.7225  1.6979  2.4128
 4421TIP3    H213228   6.480   5.205   3.416 -3.2120 -1.8758 -2.4865
 4422TIP3   OH213229   2.767   1.771   1.527  0.4822 -0.4940 -0.6684
 4422TIP3    H113230   2.791   1.685   1.563  1.2259  0.0306  0.1326
 4422TIP3    H213231   2.717   1.751   1.448 -0.2240 -1.6803  0.0442
 4423TIP3   OH213232   3.927   5.457   5.755 -0.3130 -0.1968 -0.2826
 4423TIP3    H113233   3.938   5.514   5.680  0.9784  0.3731  0.3041
 4423TIP3    H213234   3.985   5.383   5.738  1.0392  0.5907  0.7471
 4424TIP3   OH213235   5.377   6.244   1.063 -0.1574 -0.5650  0.0195
 4424TIP3    H113236   5.339   6.320   1.107 -0.6634 -0.2312 -0.9391
 4424TIP3    H213237   5.307   6.214   1.004 -0.1781 -2.1398  0.8008
 4425TIP3   OH213238   3.965   1.214   5.117  0.3718  0.6046 -0.5585
 4425TIP3    H113239   3.891   1.232   5.059 -1.6778 -1.8101  1.1052
 4425TIP3    H213240   3.991   1.124   5.095  0.6098  0.2360  1.1051
 4426TIP3   OH213241   4.840   0.118   2.116  1.4229 -0.1642 -0.0979
 4426TIP3    H113242   4.907   0.060   2.152  1.1621 -0.7083 -0.4809
 4426TIP3    H213243   4.853   0.113   2.021  1.2708  0.2533 -0.1428
 4427TIP3   OH213244   3.546   0.337   1.509 -0.6023  0.1737 -0.1524
 4427TIP3    H113245   3.506   0.324   1.595  1.1760  1.4319  0.9232
 4427TIP3    H213246   3.600   0.259   1.495  0.2045  0.5902  0.5439
 4428TIP3   OH213247   3.187   2.034   4.740 -0.2982 -0.7570  0.1739
 4428TIP3    H113248   3.192   2.126   4.715  1.0332 -0.4251  1.5102
 4428TIP3    H213249   3.112   2.030   4.800  0.1876 -0.3448  0.8211
 4429TIP3   OH213250   3.966   1.254   1.392 -0.1196 -0.2583  0.0974
 4429TIP3    H113251   3.943   1.165   1.366  1.3461 -0.7282  0.3061
 4429TIP3    H213252   3.898   1.279   1.455 -0.5694 -1.2106  0.0108
 4430TIP3   OH213253   3.798   0.955   2.922 -0.7351  0.3605 -0.3995
 4430TIP3    H113254   3.874   0.899   2.906 -0.2534  1.0163 -0.4547
 4430TIP3    H213255   3.727   0.894   2.942 -0.5259 -0.3251 -1.6746
 4431TIP3   OH213256   0.727   5.013   4.412 -0.1238 -0.2137  0.6690
 4431TIP3    H113257   0.669   5.062   4.353 -0.3018 -0.5158  0.5918
 4431TIP3    H213258   0.725   5.063   4.494  1.7450  1.3624 -0.1871
 4432TIP3   OH213259   4.490   1.815   1.050  0.2521 -0.1060 -0.4535
 4432TIP3    H113260   4.415   1.806   0.992  0.2706  0.2717 -0.5387
 4432TIP3    H213261   4.566   1.794   0.995  0.0672 -3.1577  0.2698
 4433TIP3   OH213262   2.926   1.637   2.114 -0.2088  0.7124  0.0378
 4433TIP3    H113263   2.876   1.572   2.064 -0.9287 -0.3231  1.9937
 4433TIP3    H213264   2.974   1.585   2.179  1.1365  1.9578  0.0861
 4434TIP3   OH213265   4.698   0.463   0.936 -0.2065  0.0415  0.7334
 4434TIP3    H113266   4.750   0.419   0.869 -0.1082  1.7817 -0.3951
 4434TIP3    H213267   4.608   0.435   0.920 -0.6949  2.7071 -2.2142
 4435TIP3   OH213268   5.706   3.194   3.640  0.6460 -0.3902 -0.4325
 4435TIP3    H113269   5.731   3.217   3.730  0.9060 -0.8335 -0.3912
 4435TIP3    H213270   5.694   3.278   3.597  0.7017 -0.1731 -0.0316
 4436TIP3   OH213271   3.244   3.711   2.351 -0.3296 -0.3332  0.2958
 4436TIP3    H113272   3.198   3.666   2.280 -0.2054 -1.5243  0.9342
 4436TIP3    H213273   3.326   3.663   2.360  0.1606  0.5309  0.4776
 4437TIP3   OH213274   6.234   1.110   2.416 -0.1294  0.1686  0.1460
 4437TIP3    H113275   6.289   1.148   2.347  0.7905 -2.2327 -0.5654
 4437TIP3    H213276   6.295   1.094   2.488 -0.3069 -0.7157  0.1033
 4438TIP3   OH213277   0.652   1.026   2.648  0.2348  0.3213 -0.5125
 4438TIP3    H113278   0.558   1.042   2.640 -0.1145 -1.9132 -1.8148
 4438TIP3    H213279   0.660   0.958   2.714  0.5649 -1.7579 -2.5662
 4439TIP3   OH213280   0.228   0.448   3.840  0.6866 -0.5427  0.2417
 4439TIP3    H113281   0.181   0.368   3.865  2.3564 -1.7247 -0.1500
 4439TIP3    H213282   0.302   0.416   3.788 -0.1276  1.4877 -2.3257
 4440TIP3   OH213283   6.023   5.088   4.149 -0.3393 -0.2075 -0.6678
 4440TIP3    H113284   5.973   5.057   4.072 -2.1593  1.0805 -0.0774
 4440TIP3    H213285   6.025   5.012   4.208 -0.5122 -0.6582 -1.2295
 4441TIP3   OH213286   5.850   3.368   2.912  0.2655  0.0526  0.5114
 4441TIP3    H113287   5.867   3.417   2.992  1.9965  0.3767 -0.0325
 4441TIP3    H213288   5.855   3.432   2.842  1.4823 -0.6831 -0.1056
 4442TIP3   OH213289   6.866   0.263   2.242  0.3729 -0.4859  0.4976
 4442TIP3    H113290   6.771   0.265   2.229  0.4951  0.3839 -0.2847
 4442TIP3    H213291   6.894   0.182   2.199 -0.3965 -2.6479  3.6692
 4443TIP3   OH213292   6.243   0.774   3.862 -0.4590  0.0013  0.6282
 4443TIP3    H113293   6.279   0.692   3.827 -0.6634  0.3847 -0.5240
 4443TIP3    H213294   6.149   0.770   3.840 -0.7840 -0.1656  1.9811
 4444TIP3   OH213295   3.732   1.157   5.316 -0.2042  0.1689 -0.1512
 4444TIP3    H113296   3.666   1.206   5.266 -1.7972 -0.1456  1.5260
 4444TIP3    H213297   3.815   1.181   5.276 -1.1137  2.5222 -0.8027
 4445TIP3   OH213298   4.995   4.972   5.248  0.2830 -0.4387 -0.2244
 4445TIP3    H113299   4.901   4.988   5.237  0.5261  1.2268 -0.0996
 4445TIP3    H213300   5.015   4.905   5.183 -0.9289 -0.6056 -0.4595
 4446TIP3   OH213301   5.895   2.700   5.559  0.2606 -0.1482  0.4144
 4446TIP3    H113302   5.820   2.689   5.616  0.9803 -2.4112  0.9937
 4446TIP3    H213303   5.864   2.675   5.472  0.5644 -2.1141  0.8369
 4447TIP3   OH213304   3.750   2.672   1.753  0.5722  0.1567 -0.6606
 4447TIP3    H113305   3.731   2.761   1.784  0.8572  0.0191 -0.0829
 4447TIP3    H213306   3.832   2.649   1.796 -0.1441 -0.8714  0.2081
 4448TIP3   OH213307   3.033   6.517   3.200 -0.2011 -0.0142  0.1700
 4448TIP3    H113308   3.018   6.423   3.194 -3.2204  0.3433  0.4662
 4448TIP3    H213309   3.118   6.531   3.159  0.8305 -2.9568  1.0492
 4449TIP3   OH213310   0.858   0.872   3.697  0.6665 -0.0651 -0.4315
 4449TIP3    H113311   0.815   0.934   3.638  2.0547  0.0561 -1.3652
 4449TIP3    H213312   0.950   0.877   3.674  1.1815 -0.4709  1.3607
 4450TIP3   OH213313   3.446   1.757   0.729  0.4450  0.3571 -0.2059
 4450TIP3    H113314   3.380   1.823   0.750 -0.2400 -0.4534  0.2584
 4450TIP3    H213315   3.395   1.680   0.705  1.2132  0.4224 -2.2341
 4451TIP3   OH213316   6.274   6.755   4.583  0.4709 -0.2935 -0.1870
 4451TIP3    H113317   6.306   6.777   4.670 -0.8205 -2.7677  1.0171
 4451TIP3    H213318   6.323   6.813   4.524  1.6559  1.1917  2.1118
 4452TIP3   OH213319   1.138   6.045   5.480 -0.2876 -0.0652  0.6562
 4452TIP3    H113320   1.129   6.075   5.570 -2.9084 -0.7621  0.6897
 4452TIP3    H213321   1.152   5.951   5.487 -1.8541 -0.3511  0.3612
 4453TIP3   OH213322   4.455   1.125   5.322 -0.8844 -0.3165 -0.1750
 4453TIP3    H113323   4.533   1.150   5.273 -0.1782 -1.9363  0.0592
 4453TIP3    H213324   4.387   1.187   5.293 -0.4722 -1.0753 -3.0933
 4454TIP3   OH213325   1.330   4.592   1.891 -0.1247  0.1622 -0.7371
 4454TIP3    H113326   1.423   4.593   1.870 -0.0579 -1.5948 -0.6258
 4454TIP3    H213327   1.326   4.618   1.983  0.4218 -1.2126 -0.2956
 4455TIP3   OH213328   7.077   0.749   3.574 -0.2980  0.1497  0.1338
 4455TIP3    H113329   7.165   0.789   3.572  0.5468 -1.5542  0.8367
 4455TIP3    H213330   7.064   0.715   3.486 -0.4266  0.7092 -0.0722
 4456TIP3   OH213331   3.411   6.206   5.177 -0.9169  0.3784  0.0767
 4456TIP3    H113332   3.482   6.263   5.209 -0.9146 -0.0317  0.8290
 4456TIP3    H213333   3.452   6.151   5.111 -0.7132  0.6625 -0.0351
 4457TIP3   OH213334   0.052   4.615   4.631 -0.0671 -0.2041 -0.1080
 4457TIP3    H113335  -0.030   4.638   4.587 -1.0531 -2.1785  0.5618
 4457TIP3    H213336   0.119   4.664   4.584 -1.1591 -1.4533 -3.2338
 4458TIP3   OH213337   2.062   5.860   1.597  0.1632 -0.0451  0.0043
 4458TIP3    H113338   1.973   5.831   1.619 -0.3637  1.4757 -0.0157
 4458TIP3    H213339   2.071   5.944   1.642  1.8837 -0.5184  0.6214
 4459TIP3   OH213340   7.075   1.660   0.441 -0.2074  0.2096  0.1004
 4459TIP3    H113341   7.103   1.661   0.350  0.8833 -0.2942  0.4095
 4459TIP3    H213342   7.091   1.749   0.473  0.3073  0.1388  0.0491
 4460TIP3   OH213343   2.188   2.012   5.017  0.0963  0.2635 -0.6779
 4460TIP3    H113344   2.139   2.055   5.087  0.0747 -2.0665  0.8492
 4460TIP3    H213345   2.142   2.037   4.937 -1.1342  1.3520  0.3082
 4461TIP3   OH213346   4.264   1.262   3.524 -0.1899  0.1406 -0.2757
 4461TIP3    H113347   4.307   1.211   3.455  0.1770 -0.3511  0.2959
 4461TIP3    H213348   4.299   1.350   3.514  0.0522  0.0144 -0.5687
 4462TIP3   OH213349   2.088   2.787   3.682 -0.0118 -0.4806  0.3738
 4462TIP3    H113350   2.162   2.751   3.730  0.1390 -0.3819  0.2154
 4462TIP3    H213351   2.016   2.788   3.746 -0.2381 -1.8130  0.1589
 4463TIP3   OH213352   1.332   6.584   1.643 -0.2647  0.3593  0.4484
 4463TIP3    H113353   1.274   6.620   1.711 -0.5665  1.1690 -0.2069
 4463TIP3    H213354   1.273   6.534   1.587 -0.1430  0.2904  0.3835
 4464TIP3   OH213355   1.273   1.580   3.865  0.0408  0.0902  0.4687
 4464TIP3    H113356   1.195   1.634   3.868  0.1417  0.2085  1.2281
 4464TIP3    H213357   1.320   1.602   3.946 -0.0466 -1.3184  0.9316
 4465TIP3   OH213358   4.534   4.525   1.430 -0.2353 -0.4017 -0.5460
 4465TIP3    H113359   4.510   4.478   1.510 -0.9653  2.6281  1.1759
 4465TIP3    H213360   4.626   4.504   1.415  0.4868  0.3895  2.2581
 4466TIP3   OH213361   6.072   6.606   2.868 -0.3283 -0.1713 -0.0988
 4466TIP3    H113362   6.083   6.524   2.915 -0.1593  0.1766  0.4693
 4466TIP3    H213363   6.045   6.579   2.780 -1.1931 -0.8106  0.3425
 4467TIP3   OH213364   4.394   6.598   4.591 -0.1688  0.4705 -0.4654
 4467TIP3    H113365   4.319   6.564   4.641  0.4142 -0.9807 -0.5449
 4467TIP3    H213366   4.360   6.610   4.503 -1.4378  3.7931  0.2971
 4468TIP3   OH213367   4.738   5.104   3.577  0.4771 -0.3267  0.3026
 4468TIP3    H113368   4.733   5.011   3.556  2.7243  0.1840 -3.1949
 4468TIP3    H213369   4.646   5.133   3.579 -0.1774 -2.1495 -0.8805
 4469TIP3   OH213370   0.332   0.173   0.945 -0.1211 -0.5927  0.4185
 4469TIP3    H113371   0.424   0.156   0.966 -0.5510 -1.0412  2.0825
 4469TIP3    H213372   0.299   0.088   0.917 -0.2429 -0.6339  0.6861
 4470TIP3   OH213373   5.078   4.087   4.134  0.4103  0.4862 -0.0336
 4470TIP3    H113374   5.045   4.081   4.045  0.6313  0.2702 -0.1020
 4470TIP3    H213375   5.058   4.177   4.161  0.2668  0.5256 -0.2685
 4471TIP3   OH213376   4.286   0.254   5.206  0.4382 -0.3075  0.3554
 4471TIP3    H113377   4.250   0.242   5.294  1.0600 -0.9651  0.5309
 4471TIP3    H213378   4.312   0.166   5.179  3.5550  0.2967  0.9676
 4472TIP3   OH213379   4.503   1.202   1.248  0.4998 -0.0249 -0.7666
 4472TIP3    H113380   4.468   1.149   1.320 -0.0158  0.8930 -0.3223
 4472TIP3    H213381   4.597   1.186   1.250  0.5328  0.2114  0.3198
 4473TIP3   OH213382   1.839   2.475   0.745 -0.4769  0.3412  0.1772
 4473TIP3    H113383   1.798   2.388   0.753 -0.6701  0.4802  0.7074
 4473TIP3    H213384   1.778   2.534   0.788 -1.6834  1.1808 -2.4518
 4474TIP3   OH213385   0.901   1.156   2.642 -0.1477  0.1591  0.5095
 4474TIP3    H113386   0.933   1.070   2.615  2.8894  1.2986  0.0492
 4474TIP3    H213387   0.810   1.141   2.667 -0.0460 -2.9551 -0.5428
 4475TIP3   OH213388   5.390   3.467   2.114 -0.0172  0.0271  0.2972
 4475TIP3    H113389   5.466   3.436   2.064  0.3571 -0.5554  1.2117
 4475TIP3    H213390   5.391   3.416   2.194 -0.6706  0.8798  0.8714
 4476TIP3   OH213391   2.106   4.654   3.928 -0.9059  0.1757 -0.0639
 4476TIP3    H113392   2.126   4.579   3.984 -2.4176 -0.8555 -0.8222
 4476TIP3    H213393   2.104   4.618   3.839  0.8765  1.6609 -0.7777
 4477TIP3   OH213394   6.972   5.559   0.826  0.0804 -0.0677 -0.1689
 4477TIP3    H113395   7.040   5.498   0.854 -0.1795 -0.9130 -1.3022
 4477TIP3    H213396   7.020   5.639   0.802  0.6453 -0.5211 -0.5765
 4478TIP3   OH213397   6.397   2.032   1.165 -0.6056  0.3842  0.1307
 4478TIP3    H113398   6.350   2.108   1.198  2.7529  1.3138  3.5317
 4478TIP3    H213399   6.393   1.968   1.237 -3.0911 -2.7891 -2.5065
 4479TIP3   OH213400   0.116   3.436   1.157  0.9674 -1.1412 -0.0141
 4479TIP3    H113401   0.108   3.342   1.171  0.0071 -1.2870 -1.3593
 4479TIP3    H213402   0.205   3.457   1.187  0.8912 -2.2949  1.1200
 4480TIP3   OH213403   2.849   4.563   1.826  0.4950  0.2560  0.5349
 4480TIP3    H113404   2.914   4.632   1.836  0.6362 -0.0988  2.6085
 4480TIP3    H213405   2.819   4.545   1.916 -0.4959 -1.4584 -0.0797
 4481TIP3   OH213406   5.135   6.542   3.364 -0.2619  0.5420  0.1378
 4481TIP3    H113407   5.200   6.574   3.427  0.4296  1.7934 -1.1497
 4481TIP3    H213408   5.176   6.466   3.323 -0.3324  0.2890  0.5294
 4482TIP3   OH213409   5.021   1.039   0.369  0.1368  0.1939  0.6352
 4482TIP3    H113410   5.097   1.095   0.359 -0.0100  0.5715  1.5834
 4482TIP3    H213411   5.016   0.991   0.286 -0.0316  1.9241 -0.4146
 4483TIP3   OH213412   2.707   4.423   5.363 -0.4007  0.1710  0.6266
 4483TIP3    H113413   2.726   4.350   5.304  1.2636  1.8827 -1.1343
 4483TIP3    H213414   2.642   4.475   5.316  0.1108  0.9790  0.7895
 4484TIP3   OH213415   2.049   0.433   0.083 -0.0748  0.4357 -0.0016
 4484TIP3    H113416   2.047   0.421   0.178  1.4082 -0.0936 -0.0100
 4484TIP3    H213417   1.966   0.396   0.053  0.2490 -1.1524  0.9191
 4485TIP3   OH213418   2.756   0.735   1.987 -0.2665 -0.2800 -0.1558
 4485TIP3    H113419   2.742   0.675   2.060 -0.1986 -1.0251 -0.7465
 4485TIP3    H213420   2.816   0.689   1.929  1.9426  1.4238  0.6399
 4486TIP3   OH213421   6.556   4.768   4.401 -0.3423 -0.0445  0.6100
 4486TIP3    H113422   6.609   4.739   4.475  0.3966  0.3047  0.2291
 4486TIP3    H213423   6.466   4.746   4.425 -0.0917 -0.0645  1.5469
 4487TIP3   OH213424   5.753   2.638   1.513 -0.0121 -0.5492  0.3371
 4487TIP3    H113425   5.758   2.733   1.527  3.7274 -0.6871  0.7997
 4487TIP3    H213426   5.734   2.629   1.420 -0.4913  0.6212  0.2962
 4488TIP3   OH213427   1.184   6.452   1.418  0.1343  0.3490 -0.3910
 4488TIP3    H113428   1.109   6.504   1.446  0.8567  0.4944  1.3665
 4488TIP3    H213429   1.180   6.454   1.322 -1.7594  0.8275 -0.3354
 4489TIP3   OH213430   4.251   0.248   0.293 -0.8557  0.5403  0.3405
 4489TIP3    H113431   4.264   0.230   0.386 -1.3284 -0.4641  0.2264
 4489TIP3    H213432   4.304   0.183   0.248  1.2760  2.4794 -0.1382
 4490TIP3   OH213433   4.404   1.132   4.288  0.2768 -0.2805  0.0812
 4490TIP3    H113434   4.461   1.121   4.363 -2.3431  1.3011  2.4898
 4490TIP3    H213435   4.333   1.069   4.302 -2.1720  2.4430  1.0989
 4491TIP3   OH213436   2.392   0.924   5.454 -0.1988 -0.4293 -0.3240
 4491TIP3    H113437   2.422   0.913   5.544 -0.2114 -0.5920 -0.3396
 4491TIP3    H213438   2.395   1.019   5.439  1.3637 -0.5087 -0.6873
 4492TIP3   OH213439   1.345   1.558   1.526  0.0914 -0.1263  0.5126
 4492TIP3    H113440   1.302   1.486   1.478 -0.0530  0.4843 -0.2996
 4492TIP3    H213441   1.277   1.593   1.583 -0.7198  1.2025 -1.1714
 4493TIP3   OH213442   5.926   1.784   4.083  0.6885 -0.2050 -0.2217
 4493TIP3    H113443   5.989   1.856   4.085 -0.5788  0.9722 -1.1822
 4493TIP3    H213444   5.851   1.816   4.133 -0.4387 -0.2912 -1.7891
 4494TIP3   OH213445   2.505   1.709   3.994 -0.0983  0.6749  0.0830
 4494TIP3    H113446   2.438   1.654   3.953  0.7766 -0.6966  0.4320
 4494TIP3    H213447   2.582   1.699   3.937  1.3197 -1.7062  2.2355
 4495TIP3   OH213448   5.144   5.177   3.240  0.3814  0.4288  0.5397
 4495TIP3    H113449   5.103   5.263   3.234  0.2169  0.4367  1.6252
 4495TIP3    H213450   5.168   5.168   3.332  0.9522 -0.4376  0.3187
 4496TIP3   OH213451   3.360   5.470   0.021 -0.0339  0.0838 -0.1140
 4496TIP3    H113452   3.369   5.563   0.040 -1.4763  0.1151  0.5638
 4496TIP3    H213453   3.277   5.463  -0.025 -2.1533 -1.2816  3.4943
 4497TIP3   OH213454   1.388   2.830   1.952 -0.2562  0.3498 -0.4338
 4497TIP3    H113455   1.343   2.759   1.906  1.0740 -1.5698  1.0479
 4497TIP3    H213456   1.378   2.906   1.895 -1.9859 -0.9441 -1.9692
 4498TIP3   OH213457   4.559   3.244   1.168 -0.1476  0.5730 -0.4875
 4498TIP3    H113458   4.474   3.249   1.124 -1.4838  2.7803  2.0693
 4498TIP3    H213459   4.595   3.332   1.164  1.5205 -0.0554 -0.4802
 4499TIP3   OH213460   0.940   1.359   1.538  0.4104 -0.3441  0.2019
 4499TIP3    H113461   1.033   1.384   1.534  0.9840 -2.2620  0.4863
 4499TIP3    H213462   0.941   1.264   1.528 -1.6242 -0.3009 -0.7034
 4500TIP3   OH213463   2.561   4.720   1.854 -0.2480  0.2726  0.3489
 4500TIP3    H113464   2.576   4.660   1.927  0.2676  0.7272  0.6134
 4500TIP3    H213465   2.647   4.732   1.815 -0.2720  1.2110  0.5784
 4501TIP3   OH213466   1.998   6.394   0.719  0.1936  0.3187  0.1942
 4501TIP3    H113467   1.967   6.352   0.638 -0.7622 -0.1763  0.7877
 4501TIP3    H213468   2.002   6.487   0.698 -2.0477  0.4659  0.1338
 4502TIP3   OH213469   0.899   3.443   1.014 -0.1295 -0.3225 -0.0584
 4502TIP3    H113470   0.873   3.533   0.992 -1.1602 -0.3518  0.8920
 4502TIP3    H213471   0.976   3.453   1.069 -0.2254 -0.0111  0.0226
 4503TIP3   OH213472   5.965   5.138   2.059  0.4206 -0.3715 -0.2753
 4503TIP3    H113473   5.896   5.099   2.114  0.5829 -2.0191 -1.1694
 4503TIP3    H213474   6.047   5.104   2.096  0.6186 -0.1911 -0.5453
 4504TIP3   OH213475   1.335   3.619   3.013  0.0840  0.1777 -0.4847
 4504TIP3    H113476   1.387   3.539   3.007 -1.3691 -0.7235 -2.3207
 4504TIP3    H213477   1.330   3.638   3.107 -0.9415 -2.8855  0.2027
 4505TIP3   OH213478   5.028   2.521   2.939 -0.0351 -0.1195  0.6338
 4505TIP3    H113479   4.949   2.545   2.988  0.1535  0.0663  0.8496
 4505TIP3    H213480   4.996   2.463   2.870 -0.3363 -0.1963  0.8330
 4506TIP3   OH213481   5.867   5.778   1.295  0.0131  0.2456 -0.3168
 4506TIP3    H113482   5.883   5.846   1.361 -1.5764  0.0073  0.3431
 4506TIP3    H213483   5.830   5.826   1.220  0.4489  0.3162 -0.4918
 4507TIP3   OH213484   1.551   1.932   2.214  0.1788  0.6589 -0.0644
 4507TIP3    H113485   1.591   1.999   2.159  0.9233 -0.3844 -0.8432
 4507TIP3    H213486   1.613   1.859   2.211 -0.8488 -0.2582  0.3426
 4508TIP3   OH213487   1.974   0.682   2.674  0.5519  0.0698 -0.1551
 4508TIP3    H113488   1.889   0.660   2.636  1.0102 -3.3006  0.3814
 4508TIP3    H213489   1.953   0.723   2.758 -0.4991  0.7861 -0.7507
 4509TIP3   OH213490   5.751   1.480   0.488 -0.3578  0.0091 -0.2558
 4509TIP3    H113491   5.802   1.556   0.461  0.8233 -0.4763  0.5267
 4509TIP3    H213492   5.681   1.473   0.423 -0.5509  1.8173 -0.2760
 4510TIP3   OH213493   2.178   3.885   5.777 -0.7106 -0.3811  0.0355
 4510TIP3    H113494   2.131   3.863   5.696 -1.2029  0.1383  0.1727
 4510TIP3    H213495   2.143   3.824   5.842 -0.4759 -0.6494 -0.0847
 4511TIP3   OH213496   3.081   0.350   4.250 -0.1569 -0.4751 -0.1506
 4511TIP3    H113497   3.064   0.405   4.326 -0.2659 -1.2036  0.3686
 4511TIP3    H213498   3.002   0.296   4.241  0.6810 -1.8841  0.5377
 4512TIP3   OH213499   3.124   3.490   5.711  0.0246 -0.7055  0.4994
 4512TIP3    H113500   3.195   3.481   5.647 -0.7610  1.0596 -0.7058
 4512TIP3    H213501   3.051   3.441   5.671 -0.4291  0.2959  0.0621
 4513TIP3   OH213502   6.577   5.317   1.666 -0.2650 -0.3435 -0.3029
 4513TIP3    H113503   6.550   5.404   1.637 -0.6771 -0.3704  0.0017
 4513TIP3    H213504   6.616   5.277   1.588 -0.5258 -0.0707 -0.5750
 4514TIP3   OH213505   6.795   0.261   1.526 -0.2373 -0.0720 -0.4659
 4514TIP3    H113506   6.714   0.308   1.507 -0.2868  0.0114 -0.0572
 4514TIP3    H213507   6.859   0.299   1.466 -0.1126  0.9928  0.3060
 4515TIP3   OH213508   2.695   2.346   0.386  0.4202 -0.0104  0.7085
 4515TIP3    H113509   2.705   2.252   0.380  0.6758 -0.0737  1.8936
 4515TIP3    H213510   2.603   2.362   0.361  1.1488 -0.2100 -2.5546
 4516TIP3   OH213511   4.588   1.240   1.741 -0.1838 -0.0572  0.6037
 4516TIP3    H113512   4.599   1.330   1.772 -0.9450  0.0661  0.5404
 4516TIP3    H213513   4.493   1.230   1.730 -0.3655 -1.6027  2.8726
 4517TIP3   OH213514   4.245   1.828   2.400 -0.1685  0.1283  0.0305
 4517TIP3    H113515   4.337   1.823   2.374 -0.3402 -0.4912 -0.4813
 4517TIP3    H213516   4.245   1.805   2.493  0.1069 -0.6500 -0.1572
 4518TIP3   OH213517   2.927   6.579   3.463 -0.1787  0.7332  0.2393
 4518TIP3    H113518   2.949   6.541   3.548  0.8279  1.1859  0.1929
 4518TIP3    H213519   2.939   6.507   3.401  0.6153  0.8016  0.2961
 4519TIP3   OH213520   4.602   5.174   4.204  0.0313  0.5241  0.0925
 4519TIP3    H113521   4.621   5.133   4.119  1.0002 -0.9196  0.9562
 4519TIP3    H213522   4.652   5.255   4.203  0.4822  0.2467 -0.5196
 4520TIP3   OH213523   0.016   2.385   1.890  0.0945 -0.3111  0.4617
 4520TIP3    H113524   0.062   2.439   1.954 -0.9697 -0.2835  1.2448
 4520TIP3    H213525  -0.038   2.327   1.944 -1.4646  0.2807 -0.4123
 4521TIP3   OH213526   3.096   0.133   5.506 -0.2335  0.9885  0.0103
 4521TIP3    H113527   3.010   0.161   5.477 -0.3324  1.0816  0.3872
 4521TIP3    H213528   3.135   0.211   5.546 -0.8297  0.4157  1.8063
 4522TIP3   OH213529   3.865   2.723   3.568  0.0416  0.3923 -0.0808
 4522TIP3    H113530   3.846   2.815   3.551 -1.2233  0.3332  0.8504
 4522TIP3    H213531   3.786   2.690   3.612  0.8573 -0.8843  0.4765
 4523TIP3   OH213532   4.136   0.531   4.216  0.2790  0.0016 -0.2096
 4523TIP3    H113533   4.216   0.579   4.238  0.6573 -0.6555 -0.1144
 4523TIP3    H213534   4.065   0.593   4.234  0.8422  1.4430 -2.5374
 4524TIP3   OH213535   0.523   2.510   4.239 -0.1668 -0.5067  0.4809
 4524TIP3    H113536   0.584   2.451   4.194  1.2259 -0.0916  1.7514
 4524TIP3    H213537   0.452   2.522   4.176  1.5265 -0.2136 -1.5135
 4525TIP3   OH213538   1.841   3.140   1.657  0.1471 -0.3450 -0.2433
 4525TIP3    H113539   1.865   3.071   1.719  1.6417  0.1223 -0.2553
 4525TIP3    H213540   1.835   3.219   1.711  0.5256 -0.1110 -0.5337
 4526TIP3   OH213541   4.264   3.965   3.671 -0.2787 -0.1776  0.5032
 4526TIP3    H113542   4.316   3.897   3.627  0.4080 -0.2634  1.4300
 4526TIP3    H213543   4.239   4.025   3.600  0.1550 -0.7280 -0.1288
 4527TIP3   OH213544   3.363   0.862   2.275  0.1507 -0.4249 -0.2504
 4527TIP3    H113545   3.352   0.944   2.226  0.7332 -1.2922 -1.9033
 4527TIP3    H213546   3.282   0.853   2.325  0.2798  1.4024  0.3783
 4528TIP3   OH213547   2.175   5.454   4.417 -0.2925 -0.2269  0.2065
 4528TIP3    H113548   2.086   5.431   4.389 -0.7181  1.4212  0.1188
 4528TIP3    H213549   2.205   5.377   4.466 -1.9461 -0.6366  0.6364
 4529TIP3   OH213550   5.994   0.217   1.722 -0.0836 -0.3007  0.1515
 4529TIP3    H113551   5.943   0.217   1.640  0.1193  1.0403 -0.0103
 4529TIP3    H213552   6.072   0.166   1.701  0.0429  0.1578 -0.5582
 4530TIP3   OH213553   1.232   5.682   2.988 -0.3579  0.5693  0.4476
 4530TIP3    H113554   1.157   5.691   2.929  0.1656  1.0037 -0.1653
 4530TIP3    H213555   1.266   5.595   2.970 -0.8435  0.2830  0.8877
 4531TIP3   OH213556   5.866   6.049   4.566 -0.6124  1.1692 -0.0642
 4531TIP3    H113557   5.896   6.123   4.513 -2.1003  1.3435 -0.7099
 4531TIP3    H213558   5.775   6.035   4.538 -0.8399  0.0818  1.1483
 4532TIP3   OH213559   4.201   4.041   3.951 -0.1635 -0.2027  0.0518
 4532TIP3    H113560   4.223   4.055   3.859 -1.1518 -0.5858 -0.2657
 4532TIP3    H213561   4.229   3.951   3.969 -2.5360 -1.2015 -0.7521
 4533TIP3   OH213562   2.227   2.334   5.255 -0.4889  0.5596  0.6652
 4533TIP3    H113563   2.139   2.317   5.223 -0.2373 -0.3247  0.4420
 4533TIP3    H213564   2.285   2.285   5.197  0.1887  1.4423  0.5690
 4534TIP3   OH213565   4.618   6.705   2.393  0.2737 -0.8409  0.5475
 4534TIP3    H113566   4.664   6.775   2.441  0.9550 -0.6556 -0.3579
 4534TIP3    H213567   4.533   6.699   2.436 -0.5648  1.8902 -0.5595
 4535TIP3   OH213568   3.011   6.567   4.306 -0.3179  0.2315 -0.2528
 4535TIP3    H113569   3.099   6.569   4.345 -1.0756 -0.6884  1.6406
 4535TIP3    H213570   3.010   6.640   4.245  2.2324 -0.5803 -1.4075
 4536TIP3   OH213571   0.407   0.575   2.203  0.0470 -0.2736 -0.1601
 4536TIP3    H113572   0.339   0.634   2.170  0.8596 -0.1666 -1.7334
 4536TIP3    H213573   0.397   0.578   2.298 -1.1764  0.8955 -0.2928
 4537TIP3   OH213574   5.512   4.358   0.367  0.2162  0.5111  0.2378
 4537TIP3    H113575   5.489   4.388   0.279 -1.7590  2.5210  1.3526
 4537TIP3    H213576   5.605   4.381   0.377  1.0972 -1.6141 -1.9665
 4538TIP3   OH213577   4.439   1.607   2.112 -0.4102  0.2733  0.4848
 4538TIP3    H113578   4.491   1.677   2.073 -1.3247  0.5524 -0.2832
 4538TIP3    H213579   4.503   1.546   2.148  0.4621  0.4649 -0.6776
 4539TIP3   OH213580   0.860   5.583   3.032 -1.1575  0.3064  0.2169
 4539TIP3    H113581   0.772   5.621   3.029 -2.7547 -3.0041 -0.1222
 4539TIP3    H213582   0.906   5.621   2.958 -2.0745  2.5453  0.7308
 4540TIP3   OH213583   6.059   5.854   4.638  0.4628  0.0131 -0.7355
 4540TIP3    H113584   5.984   5.912   4.650  0.8420  0.5893 -1.1199
 4540TIP3    H213585   6.046   5.815   4.552 -0.6859 -1.8168  0.2016
 4541TIP3   OH213586   0.111   6.777   4.782  0.1598  0.0116 -0.0796
 4541TIP3    H113587   0.064   6.796   4.863  1.5773  0.3162  0.6923
 4541TIP3    H213588   0.101   6.682   4.770  0.7226 -0.1859  0.9544
 4542TIP3   OH213589   0.853   5.979   2.347  0.1895 -0.6054  0.0301
 4542TIP3    H113590   0.919   6.044   2.324  1.0528 -1.4528  0.0687
 4542TIP3    H213591   0.803   6.020   2.417 -0.1302  0.5400 -0.8390
 4543TIP3   OH213592   5.186   2.736   3.651  0.8733  0.2189  0.2331
 4543TIP3    H113593   5.093   2.711   3.650  0.0032  3.0231 -0.2444
 4543TIP3    H213594   5.230   2.666   3.603 -1.2361 -0.4960 -0.8312
 4544TIP3   OH213595   4.360   3.451   1.283  0.6021  0.2449  0.0097
 4544TIP3    H113596   4.416   3.474   1.209  0.8310 -1.6633 -0.4890
 4544TIP3    H213597   4.420   3.415   1.348  0.1632 -0.2119  0.1728
 4545TIP3   OH213598   4.107   3.303   2.894 -0.3297  0.4404 -0.5417
 4545TIP3    H113599   4.135   3.218   2.861  0.3907  0.9432 -1.2608
 4545TIP3    H213600   4.088   3.288   2.986  1.5902 -0.1043 -0.1902
 4546TIP3   OH213601   4.563   5.239   0.759  0.2912  0.3855  0.1389
 4546TIP3    H113602   4.514   5.245   0.841  1.3967  0.4252  0.8169
 4546TIP3    H213603   4.562   5.145   0.737  0.8858  0.2345  0.7562
 4547TIP3   OH213604   1.634   3.585   4.248 -0.0593 -0.2627 -0.3141
 4547TIP3    H113605   1.675   3.662   4.210  0.8522 -0.7658 -0.3870
 4547TIP3    H213606   1.692   3.558   4.318 -1.3850  0.2571  1.0396
 4548TIP3   OH213607   6.852   3.973   1.143  0.2885  0.2852  0.0528
 4548TIP3    H113608   6.874   3.922   1.220  0.2083 -0.6339 -0.5208
 4548TIP3    H213609   6.921   4.039   1.137  1.3213 -0.7728 -0.1085
 4549TIP3   OH213610   0.920   2.888   1.497 -0.2026 -0.1735 -0.1589
 4549TIP3    H113611   0.999   2.894   1.552 -1.0156 -1.2340  1.1868
 4549TIP3    H213612   0.858   2.837   1.549 -2.2042  1.5361 -0.7083
 4550TIP3   OH213613   5.852   2.157   2.037  0.0193  0.0522 -0.4656
 4550TIP3    H113614   5.867   2.204   2.119  1.5760 -0.7950 -0.2214
 4550TIP3    H213615   5.894   2.210   1.970  4.3393 -2.1063  0.1613
 4551TIP3   OH213616   1.961   4.901   3.449 -0.8145 -0.4907 -0.0997
 4551TIP3    H113617   1.884   4.844   3.453 -0.5201 -0.9546 -0.9192
 4551TIP3    H213618   2.033   4.846   3.478 -0.7907 -0.0169  0.7989
 4552TIP3   OH213619   3.233   6.535   2.558  0.7249  0.2649 -0.3162
 4552TIP3    H113620   3.273   6.459   2.600  0.6781  1.8092  2.8902
 4552TIP3    H213621   3.141   6.510   2.545  0.8142 -0.3888  0.2562
 4553TIP3   OH213622   0.290   0.588   5.670 -0.2684  0.1684  0.3313
 4553TIP3    H113623   0.383   0.567   5.655 -0.2998 -0.1653  0.5990
 4553TIP3    H213624   0.244   0.509   5.642 -0.5979  0.9065 -1.3406
 4554TIP3   OH213625   2.833   3.767   3.441  0.6011  0.2488  0.0929
 4554TIP3    H113626   2.783   3.770   3.359  1.7728  0.1019 -0.6478
 4554TIP3    H213627   2.796   3.692   3.488 -0.4234  0.6346 -0.0631
 4555TIP3   OH213628   2.096   6.136   3.128  0.1675  0.3153 -0.8433
 4555TIP3    H113629   2.140   6.214   3.160 -0.6739  0.3586  0.2477
 4555TIP3    H213630   2.047   6.166   3.051 -0.7781  1.0529  0.0290
 4556TIP3   OH213631   6.830   2.548   4.230 -0.1384 -0.4246  0.1803
 4556TIP3    H113632   6.918   2.573   4.201  1.3175 -2.9454  2.0714
 4556TIP3    H213633   6.787   2.514   4.151  1.7174 -2.0352 -0.1935
 4557TIP3   OH213634   5.592   5.926   2.831 -0.1392  0.6617  0.6989
 4557TIP3    H113635   5.597   6.020   2.815 -0.3900  0.5621 -0.0054
 4557TIP3    H213636   5.498   5.908   2.836 -0.0824  0.5193  1.2776
 4558TIP3   OH213637   4.272   1.620   5.349  0.1724  0.2172  0.2334
 4558TIP3    H113638   4.338   1.625   5.417  0.1382  0.6480  0.2348
 4558TIP3    H213639   4.219   1.699   5.360  0.5928  0.6597 -0.7297
 4559TIP3   OH213640   1.602   4.328   2.736  0.1602 -0.6732 -0.2883
 4559TIP3    H113641   1.535   4.262   2.754  0.4639 -1.1131 -0.7472
 4559TIP3    H213642   1.680   4.296   2.781  0.1381 -0.2940  0.0286
 4560TIP3   OH213643   5.964   0.260   4.085  0.7465  0.2009 -0.2288
 4560TIP3    H113644   5.931   0.181   4.042  0.6837  0.4991 -0.7439
 4560TIP3    H213645   5.968   0.325   4.014  1.3503  0.4882  0.0682
 4561TIP3   OH213646   1.248   6.572   5.341  0.2920  0.3600  0.2474
 4561TIP3    H113647   1.257   6.602   5.251 -0.0659  0.9072  0.3899
 4561TIP3    H213648   1.273   6.479   5.338 -0.3020  0.2113 -0.5311
 4562TIP3   OH213649   2.922   4.116   4.879 -0.6266 -0.9069  0.7762
 4562TIP3    H113650   2.951   4.144   4.793 -0.5812 -1.5611  0.5750
 4562TIP3    H213651   2.852   4.177   4.902  1.7847  1.6797  1.8959
 4563TIP3   OH213652   4.316   3.811   3.305 -0.4195  0.0761 -0.6242
 4563TIP3    H113653   4.382   3.812   3.236  0.7446 -0.8091  0.4291
 4563TIP3    H213654   4.330   3.728   3.351 -1.7341  0.2489  0.1411
 4564TIP3   OH213655   4.400   1.322   3.784 -0.1324 -0.0263 -0.2763
 4564TIP3    H113656   4.351   1.271   3.719 -1.1779  0.3721  0.1770
 4564TIP3    H213657   4.433   1.398   3.736 -1.0575  0.3620 -0.3097
 4565TIP3   OH213658   5.348   5.722   3.187 -0.2243 -0.1759  0.1912
 4565TIP3    H113659   5.295   5.650   3.222 -1.1254  0.1984 -0.3785
 4565TIP3    H213660   5.313   5.800   3.229  0.6533 -0.0442  0.6902
 4566TIP3   OH213661   0.102   4.082   4.601  0.2220  0.4900 -0.3222
 4566TIP3    H113662   0.168   4.140   4.637  0.7850  1.0899 -2.1867
 4566TIP3    H213663   0.124   4.076   4.508  0.0923 -2.5997 -0.2503
 4567TIP3   OH213664   4.416   4.262   0.463 -0.3477  0.3271 -0.7173
 4567TIP3    H113665   4.371   4.181   0.438  1.0259 -0.1806 -1.7311
 4567TIP3    H213666   4.353   4.310   0.516 -1.1121 -1.5320  0.1284
 4568TIP3   OH213667   2.805   2.681   2.814 -0.4114 -0.1371 -0.2338
 4568TIP3    H113668   2.790   2.593   2.850  2.9225 -0.3858  0.8380
 4568TIP3    H213669   2.849   2.665   2.730  0.5404  0.4695  0.1357
 4569TIP3   OH213670   0.269   6.063   0.229 -0.2511 -0.3573 -0.2600
 4569TIP3    H113671   0.217   6.006   0.286 -2.2906  1.6615  0.0226
 4569TIP3    H213672   0.350   6.079   0.279 -2.5721  2.6008  3.0152
 4570TIP3   OH213673   0.978   5.792   2.491  0.4218  0.0990  0.1681
 4570TIP3    H113674   0.925   5.810   2.414  1.3345  0.8653 -0.2971
 4570TIP3    H213675   1.030   5.871   2.504  0.6800 -0.2265  1.2506
 4571TIP3   OH213676   3.285   5.532   4.527  0.6335  0.1893 -0.0128
 4571TIP3    H113677   3.315   5.484   4.449  0.1126 -0.8786  0.4144
 4571TIP3    H213678   3.251   5.463   4.585 -1.2948  1.1956  0.1229
 4572TIP3   OH213679   2.826   5.263   4.143  0.1284 -0.4580 -0.8687
 4572TIP3    H113680   2.744   5.286   4.098  0.7251 -0.3701 -1.9475
 4572TIP3    H213681   2.848   5.177   4.109  1.8440  0.6047 -2.6321
 4573TIP3   OH213682   6.312   5.162   0.456 -0.8834  0.1116  0.1878
 4573TIP3    H113683   6.361   5.152   0.374 -0.3929 -2.5949  0.7150
 4573TIP3    H213684   6.307   5.073   0.492 -3.7870  0.6949  1.5556
 4574TIP3   OH213685   6.476   3.146   4.563 -0.2324  0.8694  0.2921
 4574TIP3    H113686   6.489   3.151   4.468 -0.0623 -1.3983  0.1516
 4574TIP3    H213687   6.561   3.117   4.596 -1.2672 -2.0115  0.6884
 4575TIP3   OH213688   5.007   0.118   3.305 -0.7490  0.5174  0.0448
 4575TIP3    H113689   5.086   0.073   3.273 -1.5736 -0.0705 -1.2155
 4575TIP3    H213690   4.963   0.053   3.360 -0.7513  0.5842  0.1217
 4576TIP3   OH213691   1.634   6.667   2.987 -0.5266  0.2660 -0.0923
 4576TIP3    H113692   1.714   6.665   2.934  1.0774 -0.1317  2.2230
 4576TIP3    H213693   1.610   6.575   2.997 -0.5678  0.3119  0.2261
 4577TIP3   OH213694   5.890   3.499   3.677 -0.6969  0.6108  0.2960
 4577TIP3    H113695   5.931   3.455   3.603  0.3129  1.4463  0.3365
 4577TIP3    H213696   5.936   3.465   3.754 -0.1407  1.4568  0.3526
 4578TIP3   OH213697   3.245   3.910   3.291 -0.4495 -0.0978 -0.9307
 4578TIP3    H113698   3.251   3.816   3.307 -0.4223  0.0638  0.1183
 4578TIP3    H213699   3.173   3.939   3.347  1.3710  0.9361  0.9882
 4579TIP3   OH213700   4.684   6.102   5.709  0.0270  0.3458 -0.3652
 4579TIP3    H113701   4.650   6.079   5.795 -1.6564 -2.2638 -1.5806
 4579TIP3    H213702   4.778   6.086   5.714  0.0903  1.0039  1.1410
 4580TIP3   OH213703   2.081   4.307   1.698  0.0211 -0.4272  0.2016
 4580TIP3    H113704   2.025   4.380   1.673 -0.0364 -0.5299  0.0298
 4580TIP3    H213705   2.127   4.283   1.617  0.7028 -0.0030  0.4491
 4581TIP3   OH213706   4.513   3.825   2.040 -0.1927 -0.1315 -0.7081
 4581TIP3    H113707   4.476   3.800   2.124  1.3229  0.9735  0.3429
 4581TIP3    H213708   4.600   3.786   2.039 -0.8816 -1.8038 -2.6688
 4582TIP3   OH213709   6.752   0.087   1.150  0.1372  0.3629  0.8989
 4582TIP3    H113710   6.741   0.070   1.057  2.5938  0.7685  0.4592
 4582TIP3    H213711   6.690   0.029   1.193 -2.4676  1.5479 -1.0027
 4583TIP3   OH213712   6.822   4.561   4.227  0.4012  0.9370 -0.3743
 4583TIP3    H113713   6.736   4.527   4.250  0.6731  1.6967  2.0966
 4583TIP3    H213714   6.804   4.644   4.184 -0.1421  1.5947  1.0475
 4584TIP3   OH213715   0.926   2.529   5.047  0.3092 -0.3633 -0.5255
 4584TIP3    H113716   0.993   2.493   5.105  0.5074  0.2361 -0.3653
 4584TIP3    H213717   0.973   2.548   4.966  0.4077  0.3273 -0.3151
 4585TIP3   OH213718   5.283   3.401   1.129 -0.3701 -0.4221  0.0291
 4585TIP3    H113719   5.207   3.397   1.188 -0.6965 -0.6659 -0.4040
 4585TIP3    H213720   5.341   3.332   1.160 -0.2209 -0.0821  0.5083
 4586TIP3   OH213721   0.229   5.242   4.570 -0.3138  0.5999 -0.6159
 4586TIP3    H113722   0.239   5.314   4.632 -2.1120  0.6682 -0.3438
 4586TIP3    H213723   0.311   5.241   4.521  0.0335  2.3649 -0.1446
 4587TIP3   OH213724   7.043   5.914   2.341 -0.4176 -0.0394  0.1549
 4587TIP3    H113725   7.091   5.991   2.313 -0.8702  1.2420  2.5860
 4587TIP3    H213726   6.990   5.889   2.266  0.1767  1.6500 -0.8774
 4588TIP3   OH213727   7.203   0.463   2.336 -0.6421  0.0063 -0.0479
 4588TIP3    H113728   7.111   0.454   2.312 -0.5367  1.3055 -1.0158
 4588TIP3    H213729   7.202   0.477   2.431 -1.1746 -3.4424  0.6048
 4589TIP3   OH213730   0.194   5.161   2.652  0.7426 -0.0017 -0.5007
 4589TIP3    H113731   0.205   5.075   2.612  2.0370  0.0874 -0.3734
 4589TIP3    H213732   0.248   5.220   2.598  1.4364  0.3623  0.5607
 4590TIP3   OH213733   4.960   5.479   3.601 -0.0251 -0.7102 -0.0112
 4590TIP3    H113734   4.952   5.402   3.546 -1.0381 -2.0677  1.9022
 4590TIP3    H213735   5.029   5.457   3.664 -1.7018 -0.9659  1.8407
 4591TIP3   OH213736   0.586   4.997   2.916 -0.3049 -0.2808 -0.6510
 4591TIP3    H113737   0.677   5.000   2.946 -0.4189  0.6211 -0.3821
 4591TIP3    H213738   0.554   4.913   2.948  0.0095  0.0212  0.5180
 4592TIP3   OH213739   2.824   5.137   2.892 -0.2849  0.6007 -0.0120
 4592TIP3    H113740   2.758   5.163   2.828 -0.4079  0.5161  0.0797
 4592TIP3    H213741   2.784   5.155   2.977 -1.1192 -1.5592  0.1207
 4593TIP3   OH213742   6.375   0.705   4.986  0.0360 -0.0072  0.5542
 4593TIP3    H113743   6.436   0.772   4.954  0.2710 -0.5317 -0.0983
 4593TIP3    H213744   6.305   0.703   4.922 -0.2745  0.0328  0.8892
 4594TIP3   OH213745   2.717   0.134   2.897 -0.6604  0.2115 -0.6228
 4594TIP3    H113746   2.798   0.175   2.866 -0.3147  0.0581  0.0508
 4594TIP3    H213747   2.722   0.045   2.863  1.4150 -1.0888  2.5743
 4595TIP3   OH213748   1.221   3.884   3.606 -0.1698  0.0758 -0.0487
 4595TIP3    H113749   1.263   3.968   3.625 -1.0100  1.1058 -2.3837
 4595TIP3    H213750   1.180   3.859   3.688  2.2662  0.5971  1.4463
 4596TIP3   OH213751   5.242   3.357   4.405  0.2773  0.1030 -0.0698
 4596TIP3    H113752   5.305   3.333   4.337  2.4646 -0.7189  2.1016
 4596TIP3    H213753   5.243   3.452   4.406  0.8060  0.1128 -0.6386
 4597TIP3   OH213754   1.711   6.468   3.735 -0.2707 -0.2868  0.2554
 4597TIP3    H113755   1.793   6.501   3.772 -0.2567  0.3539 -0.3251
 4597TIP3    H213756   1.675   6.542   3.686 -0.4061 -1.0293 -0.8179
 4598TIP3   OH213757   2.354   0.857   5.726  0.0271 -0.4107 -0.8523
 4598TIP3    H113758   2.379   0.890   5.812 -3.6457 -0.2750  0.3388
 4598TIP3    H213759   2.420   0.791   5.706  1.6903  0.3968  1.4870
 4599TIP3   OH213760   6.353   0.371   4.080 -0.0572 -0.2159  0.4651
 4599TIP3    H113761   6.403   0.452   4.077 -0.7263  0.1923 -0.1064
 4599TIP3    H213762   6.357   0.337   3.990  2.0058 -1.9612  1.1383
 4600TIP3   OH213763   4.470   4.239   2.713 -0.1928  0.6779  0.1249
 4600TIP3    H113764   4.418   4.307   2.756 -1.3880  0.8967 -1.5099
 4600TIP3    H213765   4.448   4.249   2.620  1.2402 -0.5893 -0.3867
 4601TIP3   OH213766   1.208   6.576   5.649  0.0716  0.1776 -0.2243
 4601TIP3    H113767   1.125   6.620   5.669  0.1762  1.0235 -1.5038
 4601TIP3    H213768   1.226   6.601   5.558  0.9127 -1.3329 -0.4874
 4602TIP3   OH213769   3.070   3.920   4.570 -0.2412 -0.6027 -0.2205
 4602TIP3    H113770   3.056   3.881   4.484 -1.5368 -1.7838  0.4935
 4602TIP3    H213771   3.029   3.859   4.632  0.0551  0.5554  1.1850
 4603TIP3   OH213772   6.376   1.169   2.182  0.7103 -0.0923 -0.5213
 4603TIP3    H113773   6.370   1.076   2.161 -0.6909  0.3489 -2.3287
 4603TIP3    H213774   6.317   1.211   2.120  1.7115  2.0700 -0.0902
 4604TIP3   OH213775   1.533   2.445   1.897 -0.2226 -0.4090 -0.6228
 4604TIP3    H113776   1.530   2.415   1.988 -1.3113  0.9795 -0.1732
 4604TIP3    H213777   1.615   2.494   1.891 -0.0243 -0.7176 -0.4680
 4605TIP3   OH213778   0.457   1.076   1.316  0.0246 -0.0469 -0.2152
 4605TIP3    H113779   0.536   1.124   1.290  0.3509 -0.3475  0.1928
 4605TIP3    H213780   0.404   1.072   1.237  0.3902  0.2221 -0.4776
 4606TIP3   OH213781   4.444   3.581   0.594 -0.4715 -0.7104  0.1077
 4606TIP3    H113782   4.377   3.557   0.659 -1.9589  2.6230  0.0357
 4606TIP3    H213783   4.457   3.501   0.543 -4.0149 -1.7331  0.4864
 4607TIP3   OH213784   0.064   0.851   1.013  0.6468 -0.2040 -0.1425
 4607TIP3    H113785   0.146   0.804   1.026  1.5541  1.3906  0.1499
 4607TIP3    H213786   0.005   0.816   1.080  1.2986 -0.9077  0.0692
 4608TIP3   OH213787   3.000   1.680   0.530 -0.0292  0.1164 -0.0291
 4608TIP3    H113788   2.936   1.712   0.466  0.0780  0.4628  0.0366
 4608TIP3    H213789   3.050   1.757   0.555  0.6944 -0.2166 -0.3922
 4609TIP3   OH213790   5.055   2.040   3.053  0.2092 -0.4841  0.8613
 4609TIP3    H113791   5.069   2.011   3.143  0.1840  3.3777  2.2941
 4609TIP3    H213792   5.142   2.040   3.013  0.4101 -1.0002  1.2953
 4610TIP3   OH213793   6.187   6.106   5.267 -0.2839  0.5955 -0.1791
 4610TIP3    H113794   6.263   6.070   5.220  0.7426 -1.3480  2.6265
 4610TIP3    H213795   6.113   6.093   5.208  0.9991 -1.0726 -1.5159
 4611TIP3   OH213796   6.522   6.021   4.880  0.2409 -0.0111 -0.0044
 4611TIP3    H113797   6.528   6.032   4.975  1.9239 -2.5683  0.2765
 4611TIP3    H213798   6.444   6.071   4.855 -1.4723 -0.9382  2.9917
 4612TIP3   OH213799   1.533   2.553   4.208  0.4101 -0.6608  0.1140
 4612TIP3    H113800   1.469   2.569   4.278 -0.9336 -1.5462 -0.8681
 4612TIP3    H213801   1.618   2.557   4.252 -0.2983  0.4977  1.4716
 4613TIP3   OH213802   3.157   1.403   4.079  0.5408  0.4087 -0.3071
 4613TIP3    H113803   3.127   1.335   4.018  1.8619  0.1977 -0.7614
 4613TIP3    H213804   3.109   1.385   4.160 -3.3593  2.3424 -1.9328
 4614TIP3   OH213805   7.057   6.331   3.495 -0.2355 -0.0739  0.1953
 4614TIP3    H113806   7.087   6.241   3.479 -1.3231 -0.6674  1.2988
 4614TIP3    H213807   7.072   6.345   3.589  1.2207  1.4380 -0.2071
 4615TIP3   OH213808   2.534   3.251   2.463  0.1382  0.3867  0.4312
 4615TIP3    H113809   2.599   3.316   2.491 -1.5261  1.5406  1.9088
 4615TIP3    H213810   2.581   3.195   2.402  2.0481  2.1541  0.1399
 4616TIP3   OH213811   0.616   3.279   0.126 -0.4992 -0.1404 -0.1359
 4616TIP3    H113812   0.654   3.357   0.086 -0.2854  0.3762  1.0371
 4616TIP3    H213813   0.539   3.311   0.174 -1.5495 -0.9477 -1.2191
 4617TIP3   OH213814   0.637   1.184   2.333  0.1209 -0.2213  0.8213
 4617TIP3    H113815   0.609   1.273   2.312 -0.3705 -0.2372  1.3847
 4617TIP3    H213816   0.688   1.193   2.413  1.0018 -0.3100  0.2784
 4618TIP3   OH213817   3.641   5.894   3.351  0.4188  0.4475  0.5206
 4618TIP3    H113818   3.550   5.903   3.380  0.3262 -0.3150  0.4770
 4618TIP3    H213819   3.692   5.940   3.418 -0.1904  3.7060 -1.0630
 4619TIP3   OH213820   6.358   6.020   4.476  0.8314  0.5931  0.4018
 4619TIP3    H113821   6.313   5.985   4.399  0.4333 -0.6433  1.1610
 4619TIP3    H213822   6.439   6.058   4.441  0.9814 -0.5440 -0.5585
 4620TIP3   OH213823   5.792   2.647   1.841  0.0343  0.0051 -0.1635
 4620TIP3    H113824   5.705   2.634   1.805  0.5924  1.4606 -2.1797
 4620TIP3    H213825   5.835   2.561   1.833 -0.5536 -0.2135 -1.0483
 4621TIP3   OH213826   3.298   0.250   4.089 -0.0446 -0.6147 -0.4661
 4621TIP3    H113827   3.252   0.190   4.030  0.0114 -1.9036  0.7220
 4621TIP3    H213828   3.239   0.257   4.165  0.2680  0.3019 -0.3026
 4622TIP3   OH213829   3.108   5.575   5.504 -0.1990  0.5595 -0.5889
 4622TIP3    H113830   3.075   5.665   5.508 -1.1488  0.1962  0.4631
 4622TIP3    H213831   3.104   5.544   5.595 -0.0875 -0.6175 -0.9637
 4623TIP3   OH213832   4.146   6.204   2.485 -0.0511 -0.0323  0.1041
 4623TIP3    H113833   4.191   6.212   2.401 -0.9806  0.5760 -0.3614
 4623TIP3    H213834   4.215   6.215   2.550  0.3966  1.5301 -0.5840
 4624TIP3   OH213835   4.956   4.031   4.420  0.2466 -0.4033  0.1923
 4624TIP3    H113836   4.927   4.052   4.332 -0.5824  0.5741  0.6776
 4624TIP3    H213837   4.948   4.113   4.469  2.4901 -0.4358  0.7326
 4625TIP3   OH213838   1.333   3.474   3.450 -0.1391 -0.1486  0.1290
 4625TIP3    H113839   1.271   3.440   3.385  0.3997 -0.8228 -0.0413
 4625TIP3    H213840   1.410   3.418   3.442 -0.2155 -0.5201  1.6571
 4626TIP3   OH213841   6.099   2.372   1.909 -0.2889  0.3944  0.2894
 4626TIP3    H113842   6.031   2.331   1.857  0.6407 -0.0196 -0.6194
 4626TIP3    H213843   6.175   2.316   1.899  0.6695  1.7080 -0.0394
 4627TIP3   OH213844   1.059   5.791   5.221  0.3933 -0.4840  0.0366
 4627TIP3    H113845   1.026   5.709   5.186 -0.2798 -0.4587  0.6035
 4627TIP3    H213846   0.986   5.828   5.271  0.7416  0.3714 -0.0582
 4628TIP3   OH213847   1.526   6.637   4.334  0.6332 -0.6577 -0.1964
 4628TIP3    H113848   1.486   6.553   4.313 -2.2133  0.5703 -0.0634
 4628TIP3    H213849   1.481   6.666   4.413  1.2139  1.2134 -0.5016
 4629TIP3   OH213850   3.349   6.604   2.304 -0.2580 -0.0666  0.1816
 4629TIP3    H113851   3.274   6.578   2.357  0.1789 -0.4391  0.6253
 4629TIP3    H213852   3.342   6.551   2.225 -0.1644 -0.4927  0.4561
 4630TIP3   OH213853   7.067   4.184   1.089  0.6738 -0.2304 -0.3684
 4630TIP3    H113854   7.124   4.257   1.066 -1.5824  1.5285 -0.6340
 4630TIP3    H213855   7.041   4.146   1.005  0.7979 -0.5383 -0.2719
 4631TIP3   OH213856   5.318   1.787   5.072 -0.9215 -0.4590  0.3339
 4631TIP3    H113857   5.253   1.793   5.002 -1.7659 -1.3128  1.0081
 4631TIP3    H213858   5.311   1.696   5.103  1.2147 -0.8387 -0.1448
 4632TIP3   OH213859   6.859   0.637   3.008 -0.0043  0.4506  0.6193
 4632TIP3    H113860   6.828   0.555   3.046  1.5543 -0.5378 -0.1139
 4632TIP3    H213861   6.922   0.609   2.941  1.3210  2.2813  1.0508
 4633TIP3   OH213862   2.725   2.285   5.573  0.0280 -0.7485  0.2674
 4633TIP3    H113863   2.730   2.257   5.481  1.5198  1.4499 -0.4132
 4633TIP3    H213864   2.816   2.301   5.598 -0.5188  1.0158  1.3308
 4634TIP3   OH213865   3.339   1.410   3.767 -0.1850  0.0357 -0.4859
 4634TIP3    H113866   3.337   1.471   3.841  0.2716 -0.8196  0.2650
 4634TIP3    H213867   3.353   1.465   3.690  0.6705  0.8494  0.2221
 4635TIP3   OH213868   0.842   2.530   0.675  0.0819  0.1131 -0.0477
 4635TIP3    H113869   0.874   2.529   0.765 -3.0735 -1.1115  1.1954
 4635TIP3    H213870   0.787   2.608   0.669 -0.6410 -0.4168 -0.5482
 4636TIP3   OH213871   1.649   5.056   3.813  0.8524  0.0139  0.7380
 4636TIP3    H113872   1.714   5.024   3.876 -0.6079  0.3502  2.5348
 4636TIP3    H213873   1.570   5.005   3.834  1.0303 -2.0652 -2.9076
 4637TIP3   OH213874   1.073   4.371   3.753 -0.0128 -0.0473  0.0528
 4637TIP3    H113875   1.063   4.434   3.681 -0.9638 -0.5385 -0.2545
 4637TIP3    H213876   0.988   4.329   3.760  0.7873 -1.7621 -0.1552
 4638TIP3   OH213877   0.033   6.523   4.996 -0.2432  0.0418  0.2686
 4638TIP3    H113878   0.051   6.502   4.904 -0.1705  0.7313  0.1189
 4638TIP3    H213879  -0.060   6.503   5.008 -0.9064  2.2483 -0.6439
 4639TIP3   OH213880   7.192   4.411   3.478  0.2465  0.2938 -0.0413
 4639TIP3    H113881   7.266   4.427   3.420  0.3355  0.0360  0.0006
 4639TIP3    H213882   7.142   4.342   3.435 -0.5080  1.1358 -0.5617
 4640TIP3   OH213883   2.470   1.265   4.693  0.3041 -0.2746  0.5557
 4640TIP3    H113884   2.556   1.307   4.693 -0.1601  0.7114  0.5958
 4640TIP3    H213885   2.477   1.196   4.759  0.7402  0.4993  1.3467
 4641TIP3   OH213886   2.083   1.638   3.567  0.3400  0.4344 -0.1701
 4641TIP3    H113887   2.072   1.631   3.661  2.0937  0.9514  0.1136
 4641TIP3    H213888   2.063   1.551   3.533 -2.3589  0.7438  0.3845
 4642TIP3   OH213889   3.032   1.907   0.035 -0.0288 -0.5300 -0.4622
 4642TIP3    H113890   3.081   1.839   0.083 -0.9306 -0.8038  0.1164
 4642TIP3    H213891   3.009   1.865  -0.048  1.8427  0.0643 -1.3316
 4643TIP3   OH213892   4.906   3.616   4.404 -0.2603 -0.1769  0.5589
 4643TIP3    H113893   4.966   3.678   4.446 -0.1947  0.1055  0.0605
 4643TIP3    H213894   4.823   3.664   4.396 -0.2675 -0.2198  0.3606
 4644TIP3   OH213895   5.894   2.133   1.391 -0.4282 -0.0902  0.7837
 4644TIP3    H113896   5.858   2.046   1.372  0.0002 -0.0218 -0.3900
 4644TIP3    H213897   5.955   2.150   1.320 -1.6894  1.8547  0.0797
 4645TIP3   OH213898   6.736   3.200   3.740 -0.5065 -0.0273  0.0661
 4645TIP3    H113899   6.813   3.246   3.772 -0.7944 -0.1117  0.9072
 4645TIP3    H213900   6.676   3.199   3.814 -1.3185  0.0285 -0.5741
 4646TIP3   OH213901   1.145   4.970   2.090 -0.2513 -0.5964  0.5084
 4646TIP3    H113902   1.129   4.899   2.028  0.2017  1.6101 -2.3643
 4646TIP3    H213903   1.060   5.013   2.099  0.2490  0.8734 -1.1111
 4647TIP3   OH213904   5.629   4.597   0.194 -0.7431  0.2198  0.0966
 4647TIP3    H113905   5.677   4.611   0.276 -0.8898  0.7042  0.0995
 4647TIP3    H213906   5.677   4.526   0.151 -1.6034 -1.1908  1.3365
 4648TIP3   OH213907   2.296   5.944   0.735  0.2859 -0.1341  0.2624
 4648TIP3    H113908   2.288   6.029   0.691 -0.3591  0.4491  1.4538
 4648TIP3    H213909   2.300   5.880   0.664  1.2107  0.9200 -0.6618
 4649TIP3   OH213910   6.898   0.262   0.809 -0.2407  0.4110 -0.6797
 4649TIP3    H113911   6.837   0.321   0.764 -0.6589 -1.2169 -2.3581
 4649TIP3    H213912   6.985   0.292   0.782 -0.4785 -0.3524 -2.3648
 4650TIP3   OH213913   6.622   1.813   3.787  0.5800  0.0618 -0.7696
 4650TIP3    H113914   6.712   1.842   3.804  0.1795  1.0149 -0.1927
 4650TIP3    H213915   6.567   1.885   3.820 -0.4944 -1.6870  1.5650
 4651TIP3   OH213916   1.426   4.287   3.452 -0.0818  0.6164 -0.4279
 4651TIP3    H113917   1.378   4.322   3.527  2.0280  0.4929  1.0695
 4651TIP3    H213918   1.518   4.303   3.473  0.6074  0.2975 -2.8809
 4652TIP3   OH213919   2.885   1.698   5.785 -0.0699  0.5543  0.1018
 4652TIP3    H113920   2.964   1.685   5.837  0.0698 -2.0389 -0.6383
 4652TIP3    H213921   2.916   1.701   5.694 -0.7061  0.7714 -0.1163
 4653TIP3   OH213922   2.764   2.845   3.778  0.2910  0.1536  0.1393
 4653TIP3    H113923   2.810   2.800   3.708 -0.3398  1.1767 -0.9584
 4653TIP3    H213924   2.673   2.851   3.748 -0.0700  0.3166  1.1929
 4654TIP3   OH213925   0.891   1.156   4.085  0.3196  0.5007 -0.5852
 4654TIP3    H113926   0.846   1.185   4.005 -1.7561 -1.0572 -0.0893
 4654TIP3    H213927   0.971   1.208   4.088 -0.5083  2.0423 -2.6079
 4655TIP3   OH213928   2.829   0.260   3.876  0.3935 -0.4582  0.0545
 4655TIP3    H113929   2.751   0.314   3.865  0.2157 -0.8473 -0.6083
 4655TIP3    H213930   2.886   0.284   3.803  0.4227 -0.9798 -0.1004
 4656TIP3   OH213931   6.706   3.698   4.852 -0.5868 -0.1072 -0.0252
 4656TIP3    H113932   6.677   3.629   4.912  0.4040 -0.0215  0.5680
 4656TIP3    H213933   6.794   3.673   4.827 -0.3678  0.7362 -0.1315
 4657TIP3   OH213934   0.353   2.807   4.164 -0.1434  0.0212  0.4528
 4657TIP3    H113935   0.297   2.809   4.242 -1.2730  0.2712 -0.3487
 4657TIP3    H213936   0.327   2.728   4.117  1.0116 -0.4946  0.6478
 4658TIP3   OH213937   6.375   1.919   5.053  0.1634 -0.1088  0.1519
 4658TIP3    H113938   6.398   1.967   5.132  0.9719 -0.2308 -0.0008
 4658TIP3    H213939   6.281   1.903   5.061  0.2300 -0.0794  1.0573
 4659TIP3   OH213940   4.681   0.594   2.933 -0.1490 -0.2195 -0.0778
 4659TIP3    H113941   4.695   0.618   2.842 -0.3302 -1.0243 -0.3231
 4659TIP3    H213942   4.588   0.608   2.948 -0.1056 -0.0146  0.0122
 4660TIP3   OH213943   2.715   2.868   5.377 -0.8004 -0.1520 -0.4024
 4660TIP3    H113944   2.675   2.844   5.461  2.8432 -0.5995  1.3782
 4660TIP3    H213945   2.745   2.958   5.389  0.0582 -0.3371 -1.1097
 4661TIP3   OH213946   3.025   1.010   3.012  0.0098 -0.7737  0.1970
 4661TIP3    H113947   3.120   1.012   3.011  0.0709 -2.4415  0.6923
 4661TIP3    H213948   3.000   1.047   3.097  0.2989 -2.0626  0.8602
 4662TIP3   OH213949   6.637   5.758   1.565 -0.1957 -0.4122  0.3637
 4662TIP3    H113950   6.590   5.841   1.557 -0.0437 -0.4003 -0.5700
 4662TIP3    H213951   6.688   5.766   1.645 -0.1343  0.4172  0.2467
 4663TIP3   OH213952   4.836   0.648   0.731  0.2478 -0.3642 -0.2102
 4663TIP3    H113953   4.793   0.714   0.785 -1.3929 -0.6828 -1.0406
 4663TIP3    H213954   4.870   0.584   0.793  1.2061  0.8672  0.5636
 4664TIP3   OH213955   5.807   6.375   3.021 -0.0697 -0.3062  0.1092
 4664TIP3    H113956   5.740   6.338   2.964 -0.0226  0.6629 -0.5960
 4664TIP3    H213957   5.782   6.467   3.033  2.0265  0.5978 -1.6474
 4665TIP3   OH213958   3.380   2.595   1.509 -0.1600  0.7453 -0.1308
 4665TIP3    H113959   3.358   2.622   1.599  1.7062 -0.2566  0.6676
 4665TIP3    H213960   3.391   2.500   1.514  0.7435  0.7730 -1.2379
 4666TIP3   OH213961   1.426   6.741   1.303  0.4959 -0.1786 -0.8969
 4666TIP3    H113962   1.483   6.670   1.274 -0.7561 -1.3929 -0.4909
 4666TIP3    H213963   1.471   6.821   1.276  1.6996 -1.1334 -1.8101
 4667TIP3   OH213964   3.180   1.009   1.028  0.4112 -0.3351  0.2282
 4667TIP3    H113965   3.225   0.982   0.948 -0.0825 -2.2029  0.5302
 4667TIP3    H213966   3.088   1.017   1.002  0.3123 -0.5339  0.5117
 4668TIP3   OH213967   6.920   5.051   1.603 -0.4478 -0.0713 -0.0699
 4668TIP3    H113968   6.848   5.078   1.546 -0.3460 -2.4167 -1.4514
 4668TIP3    H213969   6.895   5.082   1.690 -1.3203  2.3293 -1.0883
 4669TIP3   OH213970   0.327   6.751   1.626  0.0423 -0.2347 -0.0108
 4669TIP3    H113971   0.259   6.806   1.665  1.3554  0.6320  1.1868
 4669TIP3    H213972   0.372   6.713   1.702  1.7861  0.3712 -0.6926
 4670TIP3   OH213973   4.874   3.899   1.127 -0.2058 -0.1499 -0.1126
 4670TIP3    H113974   4.881   3.832   1.194 -0.0221  1.1636  1.2187
 4670TIP3    H213975   4.909   3.857   1.048 -1.7535 -2.2014  0.2144
 4671TIP3   OH213976   2.109   3.235   0.450 -0.4306  0.3242  0.3304
 4671TIP3    H113977   2.111   3.146   0.413  1.7965  0.0691  0.9511
 4671TIP3    H213978   2.018   3.247   0.476 -1.1041 -1.2223 -1.0617
 4672TIP3   OH213979   6.192   1.951   2.298 -0.3956  0.0618  0.2693
 4672TIP3    H113980   6.102   1.942   2.267 -0.1575 -0.0059 -0.4250
 4672TIP3    H213981   6.231   1.865   2.283  0.4012  0.6703 -1.4961
 4673TIP3   OH213982   2.282   1.917   1.417 -0.3760  0.5759 -0.4647
 4673TIP3    H113983   2.211   1.949   1.471  1.1071  0.5262  1.6217
 4673TIP3    H213984   2.362   1.945   1.461  0.9459 -0.9124 -1.7220
 4674TIP3   OH213985   2.424   5.950   0.360  0.4211  0.2911 -0.0926
 4674TIP3    H113986   2.373   5.923   0.284  0.9982 -0.5194 -0.2049
 4674TIP3    H213987   2.406   5.883   0.426  0.7715  0.4030  0.1171
 4675TIP3   OH213988   4.630   2.034   5.737  0.1380 -0.1208 -0.2044
 4675TIP3    H113989   4.636   1.956   5.681 -2.6835  1.2301 -2.7067
 4675TIP3    H213990   4.649   2.107   5.678 -2.5579  1.3687  0.6236
 4676TIP3   OH213991   3.887   3.100   2.577 -0.0770 -0.6759 -0.1927
 4676TIP3    H113992   3.819   3.158   2.542 -0.4258  0.2952  1.9005
 4676TIP3    H213993   3.961   3.159   2.593  0.3311 -1.2323 -0.0250
 4677TIP3   OH213994   4.314   0.917   0.910 -0.1143  0.3195 -0.0615
 4677TIP3    H113995   4.347   1.005   0.931  0.7013 -0.1207  0.5629
 4677TIP3    H213996   4.306   0.917   0.814  2.1531  0.3341 -0.3047
 4678TIP3   OH213997   4.437   2.826   2.853  0.4529  0.5779  0.5200
 4678TIP3    H113998   4.475   2.908   2.884  3.0201  0.2308 -1.3063
 4678TIP3    H213999   4.400   2.848   2.767 -1.2239  0.3105  1.1283
 4679TIP3   OH214000   5.919   2.468   3.012 -0.3603 -0.2259  0.3741
 4679TIP3    H114001   5.880   2.389   2.976  1.0639 -0.6213 -0.3484
 4679TIP3    H214002   5.995   2.438   3.062  0.5980  0.7228 -0.4701
 4680TIP3   OH214003   4.896   1.029   2.525 -0.2847 -0.0649  0.1077
 4680TIP3    H114004   4.831   1.079   2.574 -2.5233 -2.7846  0.1914
 4680TIP3    H214005   4.964   1.092   2.503 -1.6457  2.3647  2.3447
 4681TIP3   OH214006   4.939   6.020   5.762  0.4664  0.1132 -0.5722
 4681TIP3    H114007   4.934   5.929   5.792  0.0893 -0.0452 -1.1067
 4681TIP3    H214008   5.031   6.044   5.774 -0.0626  0.8863  3.0630
 4682TIP3   OH214009   0.884   2.438   2.758 -0.4359 -0.0315 -0.2058
 4682TIP3    H114010   0.962   2.473   2.715 -0.7531  1.4402  0.3334
 4682TIP3    H214011   0.915   2.405   2.842 -0.2677 -0.2117 -0.3388
 4683TIP3   OH214012   4.818   5.281   0.073 -0.8956 -0.3422 -0.1295
 4683TIP3    H114013   4.755   5.212   0.093 -2.2491  0.7799 -0.3596
 4683TIP3    H214014   4.771   5.340   0.013  0.2875  0.6667 -0.1120
 4684TIP3   OH214015   0.873   2.219   5.105  0.0961 -0.3312  0.3474
 4684TIP3    H114016   0.912   2.283   5.165 -1.0131 -2.7477  3.9492
 4684TIP3    H214017   0.781   2.214   5.132 -0.5591 -1.3125 -1.8516
 4685TIP3   OH214018   4.338   3.070   3.114  0.2593  0.1301  0.2074
 4685TIP3    H114019   4.291   2.996   3.153 -2.1971  0.5999 -1.6152
 4685TIP3    H214020   4.289   3.147   3.144  0.5097  0.7365 -0.9050
 4686TIP3   OH214021   0.975   0.468   2.031 -0.3642  0.1044 -0.3023
 4686TIP3    H114022   1.027   0.463   2.111 -1.1407 -1.1008  0.1570
 4686TIP3    H214023   0.898   0.520   2.055  1.2273  3.2401 -1.3881
 4687TIP3   OH214024   1.858   3.836   2.388 -0.0046 -0.0793  0.1282
 4687TIP3    H114025   1.831   3.752   2.349  0.4544 -0.3078  0.2934
 4687TIP3    H214026   1.909   3.879   2.319 -0.7769  0.3568 -0.1874
 4688TIP3   OH214027   3.302   2.820   0.443  0.4531  0.2147  0.5373
 4688TIP3    H114028   3.246   2.746   0.422  0.6027  0.4438 -0.7724
 4688TIP3    H214029   3.323   2.859   0.358 -0.7055  2.5544  1.2246
 4689TIP3   OH214030   6.700   1.747   2.445  0.6561  0.0189 -0.2479
 4689TIP3    H114031   6.661   1.737   2.532  0.0610  0.8716 -0.4130
 4689TIP3    H214032   6.787   1.708   2.454  0.8509  0.6837  0.9137
 4690TIP3   OH214033   5.795   1.669   2.366  0.3569  0.0921 -0.7673
 4690TIP3    H114034   5.701   1.654   2.351  0.0226  1.1942  0.0497
 4690TIP3    H214035   5.834   1.663   2.279 -0.5851  0.3614 -1.2291
 4691TIP3   OH214036   0.784   2.002   1.962  0.1865  0.3058 -0.2075
 4691TIP3    H114037   0.857   2.025   2.018  0.5646  0.6552 -0.8344
 4691TIP3    H214038   0.822   1.950   1.891  0.3027  2.6233 -1.9600
 4692TIP3   OH214039   0.351   0.346   2.775  0.2250 -0.2216  0.1799
 4692TIP3    H114040   0.314   0.267   2.813 -0.6360 -0.5030 -1.1487
 4692TIP3    H214041   0.352   0.410   2.846 -1.9697 -0.5003  0.5287
 4693TIP3   OH214042   0.281   0.112   1.788  0.0003 -0.4526 -0.0062
 4693TIP3    H114043   0.317   0.184   1.738  0.5944 -0.1649  0.8058
 4693TIP3    H214044   0.214   0.152   1.843 -1.0158 -0.8511 -0.9180
 4694TIP3   OH214045   3.198   0.551   3.180 -0.2451 -0.0519  0.0618
 4694TIP3    H114046   3.196   0.513   3.092  1.9944  0.6471 -0.3601
 4694TIP3    H214047   3.206   0.476   3.239 -0.6597 -0.4636 -0.3961
 4695TIP3   OH214048   0.364   4.458   1.497 -0.1171 -0.5376 -0.0045
 4695TIP3    H114049   0.352   4.375   1.543 -1.2664  0.2334  1.1589
 4695TIP3    H214050   0.276   4.491   1.482  0.2675  1.5223  1.6160
 4696TIP3   OH214051   5.725   2.941   4.188 -0.2592  0.3693  0.0139
 4696TIP3    H114052   5.684   3.011   4.239  0.4195  1.1385 -0.4741
 4696TIP3    H214053   5.673   2.937   4.108  0.8237  1.6289 -0.7877
 4697TIP3   OH214054   3.969   1.787   2.311 -0.2170  0.0432  0.3274
 4697TIP3    H114055   4.021   1.844   2.368 -1.5015  1.1907  0.3958
 4697TIP3    H214056   3.878   1.806   2.334 -0.7107 -1.4091 -0.2852
 4698TIP3   OH214057   4.233   3.675   5.718 -0.1828  0.2173  0.1796
 4698TIP3    H114058   4.284   3.755   5.703 -1.1915  1.0938  1.1749
 4698TIP3    H214059   4.229   3.667   5.813  0.0964 -1.1693  0.0907
 4699TIP3   OH214060   0.157   1.931   4.596  0.1763 -0.0537  0.4065
 4699TIP3    H114061   0.186   1.959   4.509 -1.6376  3.0667  0.6519
 4699TIP3    H214062   0.231   1.949   4.653  0.5050  0.3078 -0.1287
 4700TIP3   OH214063   4.045   2.243   3.237  0.4562 -0.0400  0.1906
 4700TIP3    H114064   4.018   2.168   3.289  1.2401 -0.2516  0.3019
 4700TIP3    H214065   4.007   2.319   3.283 -2.2706 -0.4849 -1.1655
 4701TIP3   OH214066   1.942   2.523   2.690 -0.1219 -0.1956  0.1194
 4701TIP3    H114067   1.878   2.462   2.652 -0.8675  0.2796  0.5773
 4701TIP3    H214068   2.027   2.480   2.677 -0.1757  0.4439 -3.0455
 4702TIP3   OH214069   4.767   3.051   1.898 -0.3326  0.0122  0.0311
 4702TIP3    H114070   4.719   3.131   1.923  0.4972  0.8116 -0.8437
 4702TIP3    H214071   4.758   2.993   1.974 -1.6551  0.6103  0.3620
 4703TIP3   OH214072   0.797   6.013   0.581 -0.7740  0.4113 -0.2865
 4703TIP3    H114073   0.872   6.038   0.636 -1.1331 -1.2367  1.0642
 4703TIP3    H214074   0.836   5.997   0.495  0.2201  0.8295  0.0649
 4704TIP3   OH214075   0.223   1.003   2.931  0.3356  0.0984  0.7404
 4704TIP3    H114076   0.310   1.040   2.945 -0.2371  1.5936  0.5623
 4704TIP3    H214077   0.164   1.062   2.978 -0.5403 -1.1955  1.3153
 4705TIP3   OH214078   5.343   1.549   3.601 -0.2073 -0.1231 -0.0384
 4705TIP3    H114079   5.365   1.642   3.605 -0.7210  0.0288 -0.6126
 4705TIP3    H214080   5.296   1.532   3.682 -1.4339  0.4850 -0.5851
 4706TIP3   OH214081   3.444   4.371   2.303  0.1301  0.3914  0.1625
 4706TIP3    H114082   3.511   4.426   2.264  0.8529  0.4655  1.4435
 4706TIP3    H214083   3.376   4.432   2.332 -2.0089  0.1385 -3.7155
 4707TIP3   OH214084   6.205   0.990   0.931  0.4423  0.0407  0.5780
 4707TIP3    H114085   6.207   1.070   0.880 -0.4733  0.2203  0.8021
 4707TIP3    H214086   6.291   0.951   0.919 -0.2035 -0.7110 -2.3432
 4708TIP3   OH214087   0.289   2.688   2.184  0.2312  0.6911  0.1825
 4708TIP3    H114088   0.360   2.636   2.147  0.7728  2.2828 -1.1767
 4708TIP3    H214089   0.313   2.702   2.275  0.2993 -0.9853  0.4508
 4709TIP3   OH214090   6.204   5.344   0.017  0.1248  0.3792 -0.1105
 4709TIP3    H114091   6.205   5.426  -0.032  1.0788  1.1902  1.1896
 4709TIP3    H214092   6.284   5.346   0.070 -0.4657 -0.7956  0.9049
 4710TIP3   OH214093   6.875   5.268   5.767  0.0413 -0.1157 -0.0619
 4710TIP3    H114094   6.857   5.228   5.852  0.1530 -1.2877 -0.5681
 4710TIP3    H214095   6.825   5.216   5.705  0.3829  0.3906 -0.7811
 4711TIP3   OH214096   5.559   2.849   4.733 -0.9765  0.4677  0.1701
 4711TIP3    H114097   5.539   2.756   4.724  0.6353 -0.0387  1.3754
 4711TIP3    H214098   5.487   2.884   4.787 -2.1023  0.1598 -1.0888
 4712TIP3   OH214099   0.444   5.168   5.321 -0.0179 -0.4643  0.1142
 4712TIP3    H114100   0.494   5.236   5.276 -0.1881  0.4582  1.2834
 4712TIP3    H214101   0.483   5.086   5.292 -0.3672  0.0680 -1.9982
 4713TIP3   OH214102   2.997   1.275   2.870  0.0798  0.3780  0.2598
 4713TIP3    H114103   3.076   1.281   2.924  0.0916 -0.3123  0.3330
 4713TIP3    H214104   2.975   1.181   2.870 -0.9567  0.6046  0.5554
 4714TIP3   OH214105   5.027   0.263   3.735  0.5312  0.0608 -0.0507
 4714TIP3    H114106   4.996   0.326   3.671  1.4031 -1.4239 -2.0523
 4714TIP3    H214107   5.095   0.309   3.784  0.2080  1.0660 -0.5338
 4715TIP3   OH214108   1.860   0.647   5.563  0.2721 -0.1188 -0.1572
 4715TIP3    H114109   1.864   0.727   5.615 -0.9196  0.5334 -1.0252
 4715TIP3    H214110   1.852   0.577   5.628  1.8881  0.3830  0.6347
 4716TIP3   OH214111   5.351   4.266   1.403  0.2817 -0.0253  0.5592
 4716TIP3    H114112   5.325   4.245   1.313 -1.4667 -1.0050  1.2421
 4716TIP3    H214113   5.329   4.358   1.414 -1.6153 -0.4524  0.6330
 4717TIP3   OH214114   0.372   0.332   5.064 -0.0820  0.3967  0.3640
 4717TIP3    H114115   0.288   0.329   5.110 -0.5253 -0.2126 -0.4583
 4717TIP3    H214116   0.433   0.370   5.128 -0.9869  0.9116  0.9501
 4718TIP3   OH214117   2.913   5.535   4.578  0.0555 -0.1178  0.0840
 4718TIP3    H114118   2.867   5.619   4.578 -0.5681 -0.4568  0.4327
 4718TIP3    H214119   2.921   5.511   4.486  0.6740  0.5551 -0.0492
 4719TIP3   OH214120   3.105   0.439   2.946 -0.9011 -0.1750 -0.4163
 4719TIP3    H114121   3.057   0.378   2.890 -1.1841 -0.5904  0.2646
 4719TIP3    H214122   3.056   0.521   2.942 -0.5241  0.0178 -1.3300
 4720TIP3   OH214123   5.275   2.246   4.567  0.0582 -0.1376  0.3570
 4720TIP3    H114124   5.367   2.225   4.550  1.0130  3.0788  0.8426
 4720TIP3    H214125   5.272   2.269   4.660 -1.3741 -0.6517  0.4690
 4721TIP3   OH214126   4.483   6.128   5.324 -0.9422  0.3910 -0.4540
 4721TIP3    H114127   4.452   6.207   5.279 -2.1194  0.2408  0.0552
 4721TIP3    H214128   4.549   6.092   5.266 -0.3687  1.7547 -0.6943
 4722TIP3   OH214129   1.204   2.450   1.611 -0.4279 -0.1131  0.2826
 4722TIP3    H114130   1.281   2.404   1.646  0.6102  0.0432 -1.6378
 4722TIP3    H214131   1.191   2.523   1.671 -0.3484 -1.2770  1.7811
 4723TIP3   OH214132   5.612   1.997   2.048 -0.3031 -1.0558  0.2101
 4723TIP3    H114133   5.617   1.983   2.142  0.6532 -1.5013  0.0977
 4723TIP3    H214134   5.695   2.040   2.025 -0.1362 -1.7690 -0.5667
 4724TIP3   OH214135   4.284   5.129   4.108 -0.6884 -0.1712 -0.1768
 4724TIP3    H114136   4.350   5.177   4.158 -0.6561  1.2752 -1.5159
 4724TIP3    H214137   4.205   5.134   4.163 -0.7030  1.5242 -0.2841
 4725TIP3   OH214138   4.249   3.067   4.004 -0.4637 -0.7864  0.1981
 4725TIP3    H114139   4.235   2.976   3.979 -0.0106 -0.3602 -1.8148
 4725TIP3    H214140   4.339   3.070   4.036 -0.5154 -1.0627  0.3670
 4726TIP3   OH214141   3.026   6.394   1.987  0.2367  0.2490 -0.4102
 4726TIP3    H114142   3.006   6.305   1.960 -0.9077 -0.2962  2.0529
 4726TIP3    H214143   2.945   6.443   1.973 -0.0380  0.2053  0.9532
 4727TIP3   OH214144   6.931   3.229   0.624 -0.3667 -0.0945  0.5285
 4727TIP3    H114145   6.955   3.137   0.632 -0.2934  0.0263  1.9592
 4727TIP3    H214146   6.850   3.228   0.572 -1.0422 -1.0770  1.5450
 4728TIP3   OH214147   4.464   5.981   2.203 -0.1394  0.0699  0.3453
 4728TIP3    H114148   4.480   6.061   2.154 -0.4795  1.2396  2.0489
 4728TIP3    H214149   4.381   5.948   2.168  0.1024  0.3357 -0.5040
 4729TIP3   OH214150   3.694   6.064   5.844 -0.2569 -0.2110  0.2014
 4729TIP3    H114151   3.679   6.044   5.751  2.2840 -0.3548 -0.2500
 4729TIP3    H214152   3.611   6.098   5.875 -1.3322 -0.6575 -1.9986
 4730TIP3   OH214153   4.059   4.872   4.111 -0.0287 -0.0348  0.0402
 4730TIP3    H114154   4.067   4.838   4.200  0.3460 -0.4412 -0.1457
 4730TIP3    H214155   3.970   4.907   4.106  0.0003  0.1263  0.6194
 4731TIP3   OH214156   0.282   3.410   2.771 -0.5972  0.1794  0.5983
 4731TIP3    H114157   0.231   3.480   2.813 -2.3368 -1.9787  2.3381
 4731TIP3    H214158   0.237   3.395   2.688 -2.1831 -0.8733  1.5807
 4732TIP3   OH214159   0.584   3.447   5.283 -0.7883  0.2000 -0.7673
 4732TIP3    H114160   0.634   3.441   5.364 -0.2903  1.2689 -0.9822
 4732TIP3    H214161   0.499   3.480   5.309 -1.2633 -1.2161 -0.4556
 4733TIP3   OH214162   6.988   1.368   0.985 -0.1190  0.0841 -0.3033
 4733TIP3    H114163   6.970   1.456   0.952 -1.3878 -0.5602 -1.4707
 4733TIP3    H214164   7.081   1.354   0.968 -0.3405  0.4586 -2.0776
 4734TIP3   OH214165   7.019   0.337   5.074 -0.0024 -0.0963 -0.1470
 4734TIP3    H114166   6.984   0.283   5.003 -0.1118  0.2042 -0.3232
 4734TIP3    H214167   6.978   0.301   5.153 -1.4449  0.8229 -0.4406
 4735TIP3   OH214168   1.064   6.257   3.743  0.3868  0.2496  0.0496
 4735TIP3    H114169   1.103   6.315   3.808 -3.6582  0.5091  2.6299
 4735TIP3    H214170   1.109   6.173   3.756  0.9572  0.7925  1.9539
 4736TIP3   OH214171   3.885   0.455   2.068  0.2726  0.2748  0.2385
 4736TIP3    H114172   3.928   0.432   2.150 -0.7346 -0.4441  0.5841
 4736TIP3    H214173   3.863   0.548   2.077  0.8550  0.3977  0.4518
 4737TIP3   OH214174   5.161   6.424   2.572  0.1705  0.2537  0.2065
 4737TIP3    H114175   5.179   6.461   2.658 -0.5013  0.8170  0.1189
 4737TIP3    H214176   5.213   6.344   2.568 -0.5541 -0.2993  1.5204
 4738TIP3   OH214177   6.622   0.258   4.742  0.0987  0.5641 -0.1713
 4738TIP3    H114178   6.657   0.326   4.684 -0.4439 -0.8650 -2.2753
 4738TIP3    H214179   6.527   0.272   4.741  0.1331  1.1896  1.3293
 4739TIP3   OH214180   6.405   6.198   0.737  0.2549  0.8910 -0.1102
 4739TIP3    H114181   6.452   6.157   0.809  1.1407  1.6537 -0.2474
 4739TIP3    H214182   6.465   6.192   0.662 -1.4040 -1.7379 -1.3829
 4740TIP3   OH214183   0.474   4.353   2.043 -0.0056  0.0503 -0.1100
 4740TIP3    H114184   0.389   4.349   2.087  0.2709  1.2955  0.5845
 4740TIP3    H214185   0.501   4.262   2.036 -0.5292 -0.2524  1.3969
 4741TIP3   OH214186   0.693   0.101   5.245 -0.0501  0.0561 -0.0404
 4741TIP3    H114187   0.701   0.119   5.339 -1.2819  1.8697 -0.2212
 4741TIP3    H214188   0.686   0.006   5.240  0.0360 -0.0891  1.7079
 4742TIP3   OH214189   1.399   0.630   0.849  0.4936 -0.1733 -0.1684
 4742TIP3    H114190   1.370   0.619   0.940 -3.0540 -3.1525 -1.4204
 4742TIP3    H214191   1.429   0.543   0.823  0.5722  0.3942 -2.1009
 4743TIP3   OH214192   0.188   5.443   2.739  0.1798  0.2562 -0.4491
 4743TIP3    H114193   0.220   5.356   2.715 -1.6957 -0.9637  1.1848
 4743TIP3    H214194   0.107   5.453   2.690  0.4169  1.1559 -0.6819
 4744TIP3   OH214195   4.617   6.004   0.735  0.5823  0.2030  0.9108
 4744TIP3    H114196   4.642   6.093   0.759  2.2267 -0.6503  2.6451
 4744TIP3    H214197   4.627   5.954   0.816 -0.0031 -1.6161 -0.0859
 4745TIP3   OH214198   5.075   4.815   5.463  0.8684  0.2730  0.0165
 4745TIP3    H114199   5.097   4.884   5.526 -1.5269  0.7800  0.4076
 4745TIP3    H214200   5.014   4.857   5.402  2.2784 -0.5146 -2.0558
 4746TIP3   OH214201   3.270   5.219   5.826  0.4227  0.2744 -0.6092
 4746TIP3    H114202   3.328   5.159   5.872  0.7123  0.5772 -0.5750
 4746TIP3    H214203   3.225   5.267   5.895  0.1427  0.0576 -0.6357
 4747TIP3   OH214204   1.395   4.085   2.536 -0.3522  0.5498 -0.0257
 4747TIP3    H114205   1.485   4.111   2.557 -0.8656  2.5477 -0.1242
 4747TIP3    H214206   1.404   4.000   2.493  1.3004 -0.2404  1.7544
 4748TIP3   OH214207   4.124   2.664   0.068  0.0506  0.4106 -0.3919
 4748TIP3    H114208   4.102   2.586   0.119  0.4271  0.5930  0.0540
 4748TIP3    H214209   4.096   2.738   0.123 -0.7835  0.5900 -1.0322
 4749TIP3   OH214210   2.613   5.521   0.837 -0.0085 -0.2296  0.4049
 4749TIP3    H114211   2.607   5.430   0.866 -1.1670  0.2964  1.9196
 4749TIP3    H214212   2.524   5.554   0.842 -0.0611  0.3673 -2.4816
 4750TIP3   OH214213   5.729   5.652   4.379 -0.3041 -0.3471  0.0158
 4750TIP3    H114214   5.745   5.737   4.337 -0.7447  0.0087  0.5528
 4750TIP3    H214215   5.815   5.624   4.410  0.1697 -0.9779 -1.7724
 4751TIP3   OH214216   2.712   3.969   1.885  0.1895 -0.2456 -0.1092
 4751TIP3    H114217   2.802   3.980   1.916  0.3443  0.3093 -0.7416
 4751TIP3    H214218   2.720   3.949   1.792 -0.3810  0.9667 -0.4377
 4752TIP3   OH214219   3.442   5.934   3.890 -0.1903 -0.1934 -0.5889
 4752TIP3    H114220   3.451   5.861   3.951  0.0509 -0.9549 -1.5206
 4752TIP3    H214221   3.525   5.938   3.844 -0.1588  0.7532 -0.4795
 4753TIP3   OH214222   4.673   4.588   5.620 -0.4552  0.0539  0.1274
 4753TIP3    H114223   4.628   4.538   5.551 -2.2644 -0.1185  1.3732
 4753TIP3    H214224   4.720   4.521   5.670  1.5116  0.2627 -1.3331
 4754TIP3   OH214225   4.402   4.971   2.806  0.5382 -0.4666 -0.1413
 4754TIP3    H114226   4.366   5.048   2.763 -1.1384 -1.5884 -0.8279
 4754TIP3    H214227   4.495   4.990   2.816  0.1536  1.6552 -0.2296
 4755TIP3   OH214228   0.512   6.603   0.108 -0.3574 -0.1647 -0.3062
 4755TIP3    H114229   0.447   6.536   0.087 -0.2550 -0.0159 -1.1580
 4755TIP3    H214230   0.507   6.665   0.035 -1.3095  1.4409  1.0425
 4756TIP3   OH214231   3.889   1.555   5.660 -0.1020  0.3738 -0.5401
 4756TIP3    H114232   3.937   1.495   5.603 -0.2554  2.2430 -2.8041
 4756TIP3    H214233   3.807   1.572   5.613 -0.7031  1.2057  0.7544
 4757TIP3   OH214234   6.252   5.145   0.736  0.1974 -0.3497  0.6011
 4757TIP3    H114235   6.327   5.099   0.697 -1.8874 -3.2185 -0.3904
 4757TIP3    H214236   6.214   5.193   0.663 -0.6599 -1.4250  0.3157
 4758TIP3   OH214237   1.401   3.426   1.589 -0.5095  0.1298 -0.3060
 4758TIP3    H114238   1.365   3.338   1.592 -0.4595  0.1403  1.2474
 4758TIP3    H214239   1.413   3.444   1.496 -0.3962 -1.5426 -0.6332
 4759TIP3   OH214240   3.485   6.821   3.943  0.2274 -0.0973  0.1259
 4759TIP3    H114241   3.497   6.809   3.849 -0.1555  1.1305 -0.1030
 4759TIP3    H214242   3.531   6.747   3.983 -0.9956 -1.5712 -1.0664
 4760TIP3   OH214243   5.450   0.407   0.888 -0.1385 -0.5689  0.4111
 4760TIP3    H114244   5.379   0.471   0.894 -1.0434 -1.4791 -0.2989
 4760TIP3    H214245   5.504   0.424   0.964 -0.2770  1.1446  0.1628
 4761TIP3   OH214246   4.066   0.386   5.085  0.3082 -0.4671 -0.1190
 4761TIP3    H114247   4.115   0.325   5.139  1.1440 -0.7674 -1.1765
 4761TIP3    H214248   4.115   0.468   5.090 -0.6273  0.0403  1.0310
 4762TIP3   OH214249   5.082   3.352   0.484 -0.0999 -0.2965  0.3863
 4762TIP3    H114250   5.076   3.316   0.396  0.4389  0.3550  0.0721
 4762TIP3    H214251   5.124   3.283   0.535  0.6871 -0.2298 -0.1470
 4763TIP3   OH214252   6.586   5.738   5.716 -0.1711 -0.1377 -0.2723
 4763TIP3    H114253   6.614   5.803   5.651 -0.5202 -1.8802 -2.2867
 4763TIP3    H214254   6.494   5.722   5.695 -0.6362  0.0854  1.4462
 4764TIP3   OH214255   0.506   1.340   5.435  0.7007  0.0108 -0.0852
 4764TIP3    H114256   0.440   1.326   5.367 -0.6708 -0.4723  1.2823
 4764TIP3    H214257   0.508   1.258   5.484  1.6908  0.3304  0.4374
 4765TIP3   OH214258   3.355   1.682   2.256 -0.4130 -0.0609 -0.1694
 4765TIP3    H114259   3.344   1.639   2.172 -0.7158 -2.0457  0.8183
 4765TIP3    H214260   3.284   1.745   2.261 -0.8045 -0.4182 -1.1228
 4766TIP3   OH214261   6.393   0.677   1.480  0.5807 -0.4206  0.2742
 4766TIP3    H114262   6.327   0.746   1.478 -0.2483 -1.2076 -1.0823
 4766TIP3    H214263   6.392   0.645   1.570 -2.4393 -1.8371 -0.1479
 4767TIP3   OH214264   4.642   2.073   2.195 -0.4252 -0.0157 -0.2532
 4767TIP3    H114265   4.593   2.150   2.224 -1.9503 -0.7035 -0.8972
 4767TIP3    H214266   4.673   2.097   2.107 -0.6310 -0.0230 -0.3275
 4768TIP3   OH214267   1.760   6.701   5.708 -0.3002 -0.8450 -0.1141
 4768TIP3    H114268   1.841   6.719   5.660 -0.6840 -0.5499 -0.6731
 4768TIP3    H214269   1.748   6.777   5.764  0.7657 -1.7162  1.3493
 4769TIP3   OH214270   6.875   6.550   2.774 -0.4983 -0.0309 -0.3143
 4769TIP3    H114271   6.789   6.508   2.783  0.0231 -0.9130  0.9255
 4769TIP3    H214272   6.856   6.641   2.754 -1.7805  0.1381  1.4549
 4770TIP3   OH214273   6.527   0.933   5.020 -0.2106  0.3347  0.1474
 4770TIP3    H114274   6.605   0.941   4.965 -0.4780 -1.5238 -0.5935
 4770TIP3    H214275   6.560   0.899   5.103 -0.0802  0.8108  0.2899
 4771TIP3   OH214276   1.216   6.434   2.416 -0.1666  0.2412 -0.0673
 4771TIP3    H114277   1.251   6.373   2.350 -0.5462 -2.0766  1.7540
 4771TIP3    H214278   1.291   6.489   2.439 -0.0389  1.1775 -2.3995
 4772TIP3   OH214279   0.907   2.782   5.526 -0.7164  0.0991 -0.2849
 4772TIP3    H114280   0.922   2.772   5.433 -0.0476  1.2767 -0.3141
 4772TIP3    H214281   0.985   2.746   5.568  0.3235  2.2290 -0.2973
 4773TIP3   OH214282   6.545   5.925   5.535  0.1546 -0.3671  0.4782
 4773TIP3    H114283   6.551   5.892   5.445  1.4801 -0.6058  0.6394
 4773TIP3    H214284   6.489   6.002   5.528  2.3675  1.2327 -1.0520
 4774TIP3   OH214285   2.666   4.276   3.884 -0.0196 -0.3708  0.1005
 4774TIP3    H114286   2.746   4.327   3.896 -0.8337  1.3433 -1.3437
 4774TIP3    H214287   2.597   4.342   3.878 -1.4872 -1.7913  0.7405
 4775TIP3   OH214288   7.005   5.578   5.888  0.6266  0.1250 -0.6526
 4775TIP3    H114289   7.003   5.547   5.797  0.8886 -1.2528 -0.2188
 4775TIP3    H214290   6.921   5.552   5.924  0.8528 -0.0854 -0.2733
 4776TIP3   OH214291   2.447   0.778   3.704 -0.3138 -0.1001  0.2266
 4776TIP3    H114292   2.435   0.824   3.787  1.8855  1.8240 -0.3985
 4776TIP3    H214293   2.358   0.767   3.670 -1.0849  1.9091  1.3958
 4777TIP3   OH214294   2.496   1.004   0.560  0.1914 -0.2990 -0.2303
 4777TIP3    H114295   2.496   0.950   0.480 -0.7936 -2.2268  0.9977
 4777TIP3    H214296   2.405   1.002   0.589  0.4146  0.9560  0.5859
 4778TIP3   OH214297   0.980   1.604   3.282 -0.4003 -0.3800 -0.1441
 4778TIP3    H114298   1.014   1.678   3.332  0.7956 -0.9334 -0.0986
 4778TIP3    H214299   1.009   1.621   3.192 -0.7437 -0.4350 -0.2660
 4779TIP3   OH214300   4.402   0.035   3.044 -0.4813  0.5074  0.1405
 4779TIP3    H114301   4.364  -0.053   3.045  0.2362  0.1836 -0.0134
 4779TIP3    H214302   4.385   0.070   3.132  0.3496 -0.2927  0.6382
 4780TIP3   OH214303   2.218   1.709   5.146  0.6516  0.8564  0.1256
 4780TIP3    H114304   2.170   1.785   5.113  3.3973  3.0963  0.8811
 4780TIP3    H214305   2.155   1.663   5.201 -1.5628  1.6766 -1.6126
 4781TIP3   OH214306   1.376   0.887   0.716 -0.3820 -0.0560 -0.0519
 4781TIP3    H114307   1.384   0.971   0.762  2.7759  0.3496 -1.0829
 4781TIP3    H214308   1.392   0.821   0.784 -1.4808  0.2129  0.4885
 4782TIP3   OH214309   6.880   1.794   4.461 -0.2829  0.3237  0.2815
 4782TIP3    H114310   6.843   1.713   4.497 -0.9541  0.5148  0.0289
 4782TIP3    H214311   6.887   1.778   4.367  0.1995  0.3251  0.3120
 4783TIP3   OH214312   4.960   3.792   2.742  0.3254  0.3919  0.1200
 4783TIP3    H114313   4.941   3.886   2.751 -2.3261 -0.1286  0.9490
 4783TIP3    H214314   4.989   3.782   2.651  0.5095  1.9999 -0.0205
 4784TIP3   OH214315   2.046   1.477   5.343  0.5972  0.1199 -0.6381
 4784TIP3    H114316   2.017   1.524   5.422  2.1542 -0.2794  0.2164
 4784TIP3    H214317   1.979   1.496   5.278 -0.5676  0.7390  0.6865
 4785TIP3   OH214318   0.914   4.971   4.076  0.5552 -0.5744  0.1710
 4785TIP3    H114319   0.858   4.961   3.999 -0.5990 -0.2668  0.9497
 4785TIP3    H214320   1.003   4.979   4.040  0.1127 -1.0645 -1.0856
 4786TIP3   OH214321   5.278   4.940   3.951 -0.1785 -0.2720  0.1510
 4786TIP3    H114322   5.224   5.006   3.994 -0.0283 -0.5999  0.8489
 4786TIP3    H214323   5.368   4.971   3.964 -0.0737 -0.8956  0.9747
 4787TIP3   OH214324   4.237   4.904   2.062  0.5850 -0.2914 -0.1655
 4787TIP3    H114325   4.322   4.863   2.077  0.5478 -0.2310  0.2288
 4787TIP3    H214326   4.253   4.968   1.994  0.1183 -2.7061 -2.7240
 4788TIP3   OH214327   1.962   5.895   0.297  0.2537 -0.3974  0.4498
 4788TIP3    H114328   1.921   5.884   0.211 -0.8534 -0.2638  0.9464
 4788TIP3    H214329   1.894   5.870   0.359  1.2812 -1.2175  1.2831
 4789TIP3   OH214330   6.070   0.500   0.354 -0.1587  0.6518  0.0045
 4789TIP3    H114331   6.030   0.477   0.271  0.0836  0.4939 -0.0687
 4789TIP3    H214332   6.050   0.593   0.366 -1.0769  0.4358  0.2633
 4790TIP3   OH214333   6.209   0.612   1.906 -0.0789  0.7986 -0.2968
 4790TIP3    H114334   6.297   0.640   1.932 -0.3677  1.8626 -0.4031
 4790TIP3    H214335   6.222   0.571   1.821  0.7209 -1.7714  0.9647
 4791TIP3   OH214336   3.027   0.121   4.623  0.1388  0.5734  0.4224
 4791TIP3    H114337   2.994   0.075   4.546  1.5502  1.7851 -0.9877
 4791TIP3    H214338   2.974   0.201   4.629  0.2308  0.6278  0.5300
 4792TIP3   OH214339   5.600   3.128   1.314 -0.4144 -0.5126  0.1081
 4792TIP3    H114340   5.587   3.149   1.407 -0.8656  0.4688 -0.1599
 4792TIP3    H214341   5.513   3.137   1.275 -0.4510 -2.0919 -0.2057
 4793TIP3   OH214342   4.833   6.171   5.195 -0.1527 -0.6760 -0.2062
 4793TIP3    H114343   4.833   6.165   5.099  0.1725  0.3709 -0.2850
 4793TIP3    H214344   4.865   6.086   5.224  0.1657 -0.8592 -1.0443
 4794TIP3   OH214345   3.120   2.605   4.776 -0.1655 -0.3863  0.0989
 4794TIP3    H114346   3.108   2.639   4.864 -0.2964 -2.1107  0.7992
 4794TIP3    H214347   3.083   2.672   4.718  1.5443  1.6078  1.1987
 4795TIP3   OH214348   5.870   3.190   4.696  0.0426  0.0465  0.5292
 4795TIP3    H114349   5.794   3.247   4.707  1.3235  1.9171  0.1774
 4795TIP3    H214350   5.841   3.105   4.728 -2.8696  0.0999 -1.6210
 4796TIP3   OH214351   0.128   0.883   5.295  0.1492  0.1428 -0.4827
 4796TIP3    H114352   0.128   0.821   5.221 -1.7305  0.8374 -1.1379
 4796TIP3    H214353   0.057   0.944   5.274 -0.1797  0.5810  1.7373
 4797TIP3   OH214354   1.977   2.567   4.656  0.1020 -0.3538 -0.2237
 4797TIP3    H114355   1.885   2.550   4.636 -0.4943 -0.1268  2.0399
 4797TIP3    H214356   2.024   2.495   4.614 -1.2619 -1.2891 -0.2271
 4798TIP3   OH214357   3.632   6.188   1.064  0.2531  0.5769  0.5190
 4798TIP3    H114358   3.584   6.111   1.094 -0.9698  1.0727 -0.0732
 4798TIP3    H214359   3.632   6.248   1.139  0.7945  0.1956  0.8278
 4799TIP3   OH214360   1.010   4.766   1.253  0.3136  0.2625  0.2350
 4799TIP3    H114361   0.931   4.808   1.288  1.2576  1.3304  1.1376
 4799TIP3    H214362   0.994   4.762   1.159 -0.5411  1.0640  0.3247
 4800TIP3   OH214363   6.206   3.069   2.021 -0.3954 -0.1717 -0.4618
 4800TIP3    H114364   6.213   3.143   2.080  0.3143  0.4594 -1.3019
 4800TIP3    H214365   6.158   3.003   2.070 -0.9927  0.8225  0.3165
 4801TIP3   OH214366   1.681   5.502   0.643  0.0233  0.4027 -0.0961
 4801TIP3    H114367   1.608   5.520   0.583  1.2764  2.2467 -1.1406
 4801TIP3    H214368   1.638   5.489   0.728 -1.6204  0.0123 -0.9315
 4802TIP3   OH214369   3.611   4.038   3.831  0.4975  0.0238  0.3332
 4802TIP3    H114370   3.603   4.107   3.896 -1.2165 -1.2075  1.5060
 4802TIP3    H214371   3.596   3.957   3.879  2.7350 -1.2471 -0.9366
 4803TIP3   OH214372   2.301   2.335   0.455  0.0418 -0.3719  0.0206
 4803TIP3    H114373   2.219   2.337   0.504 -0.9572 -2.4659 -1.4132
 4803TIP3    H214374   2.335   2.247   0.468  1.2738 -0.0237 -0.6677
 4804TIP3   OH214375   1.391   3.439   2.580 -0.2247 -0.1846  0.2558
 4804TIP3    H114376   1.299   3.420   2.600 -0.2154 -0.9116 -0.3197
 4804TIP3    H214377   1.439   3.366   2.621 -0.1889 -1.5673 -2.0957
 4805TIP3   OH214378   2.436   2.140   1.778 -0.2589  0.6808  0.2004
 4805TIP3    H114379   2.449   2.235   1.768 -0.5714  0.5599 -1.7155
 4805TIP3    H214380   2.346   2.126   1.750  0.2021 -0.3485 -0.8224
 4806TIP3   OH214381   0.757   1.297   3.889 -0.5409  0.0938  0.0902
 4806TIP3    H114382   0.774   1.287   3.796  1.4934  1.6967  0.2247
 4806TIP3    H214383   0.755   1.391   3.904 -0.3781 -0.1356  1.7451
 4807TIP3   OH214384   1.105   3.327   0.600  0.0498 -0.3103  0.6043
 4807TIP3    H114385   1.154   3.260   0.647 -1.6903 -1.4183  0.9089
 4807TIP3    H214386   1.016   3.322   0.636 -0.4848  1.1560 -0.4027
 4808TIP3   OH214387   5.986   3.520   2.716  0.3487 -0.3447 -0.0312
 4808TIP3    H114388   6.070   3.565   2.727  1.5208 -2.4978  0.5041
 4808TIP3    H214389   5.974   3.513   2.621  1.2126 -0.7518 -0.1159
 4809TIP3   OH214390   7.106   2.285   2.894 -0.6937  0.5133  0.4958
 4809TIP3    H114391   7.050   2.286   2.971  1.2974 -0.1831  2.0459
 4809TIP3    H214392   7.167   2.358   2.907  0.3543 -0.2697  0.1605
 4810TIP3   OH214393   2.183   0.752   3.644  0.5198 -0.3106 -0.7290
 4810TIP3    H114394   2.119   0.768   3.575  1.3122 -0.9057 -1.6375
 4810TIP3    H214395   2.150   0.675   3.690  0.6905 -0.7612 -1.3475
 4811TIP3   OH214396   6.635   3.262   4.217 -0.2299  0.4128  0.3900
 4811TIP3    H114397   6.629   3.171   4.246  3.1521  0.0871  0.4889
 4811TIP3    H214398   6.650   3.311   4.298  0.2455  0.7417  0.1049
 4812TIP3   OH214399   5.192   2.904   4.695 -0.1843  0.0034  0.2680
 4812TIP3    H114400   5.209   2.992   4.661  1.7518  0.1759  1.5042
 4812TIP3    H214401   5.134   2.919   4.770 -0.4942  0.1261  0.0084
 4813TIP3   OH214402   4.819   6.317   5.448  0.1253 -0.8024  0.1054
 4813TIP3    H114403   4.812   6.272   5.363  0.5785  1.0926 -0.9987
 4813TIP3    H214404   4.903   6.287   5.483  0.3910 -0.8928 -0.5778
 4814TIP3   OH214405   3.108   0.354   0.568  0.3970 -0.0249  0.2343
 4814TIP3    H114406   3.087   0.278   0.513  1.3280 -0.6109  0.6701
 4814TIP3    H214407   3.142   0.418   0.507 -1.7614  0.6371 -0.3685
 4815TIP3   OH214408   1.330   4.910   2.432  0.3124 -0.3714  0.3599
 4815TIP3    H114409   1.386   4.892   2.508 -0.1911 -0.0411  0.8196
 4815TIP3    H214410   1.284   4.828   2.417 -1.0952  0.1303  1.7031
 4816TIP3   OH214411   5.249   1.439   4.895 -0.2385  0.0676 -0.1431
 4816TIP3    H114412   5.164   1.426   4.853  0.4122  0.7023 -1.7170
 4816TIP3    H214413   5.310   1.454   4.823  1.1147  0.2032  0.9868
 4817TIP3   OH214414   2.695   2.195   4.657  0.3362  0.0947 -0.3849
 4817TIP3    H114415   2.653   2.226   4.738  3.4751  2.9401  0.4007
 4817TIP3    H214416   2.723   2.106   4.678  0.0860  0.3578  1.2775
 4818TIP3   OH214417   0.171   0.699   3.759 -0.5234  0.6780  0.7511
 4818TIP3    H114418   0.195   0.609   3.783  0.3120  1.0527  1.3477
 4818TIP3    H214419   0.116   0.688   3.681  2.7353 -0.1872 -1.6532
 4819TIP3   OH214420   0.654   6.051   3.617  0.2498 -0.1423  0.0820
 4819TIP3    H114421   0.696   6.011   3.693  1.8819  0.0431 -0.6674
 4819TIP3    H214422   0.602   5.981   3.578  1.4666 -0.9838 -0.0735
 4820TIP3   OH214423   1.881   4.441   5.749 -0.8779  0.3271  0.1825
 4820TIP3    H114424   1.787   4.427   5.735 -1.0072  0.7303  0.6262
 4820TIP3    H214425   1.922   4.405   5.671 -1.3654 -0.3314  0.2214
 4821TIP3   OH214426   5.993   0.189   2.191 -0.0798  0.3109 -0.3581
 4821TIP3    H114427   6.037   0.217   2.271 -0.6836  0.8796 -0.2185
 4821TIP3    H214428   6.063   0.183   2.126  0.4975 -0.6604  0.3300
 4822TIP3   OH214429   1.594   1.461   1.619  0.9184  0.0205  0.0799
 4822TIP3    H114430   1.527   1.519   1.584  0.2826 -1.2704 -0.9287
 4822TIP3    H214431   1.545   1.390   1.660  1.6450 -1.0621 -0.8739
 4823TIP3   OH214432   0.947   4.272   4.594 -0.2908 -0.3385  0.6581
 4823TIP3    H114433   0.959   4.255   4.500  0.9335  1.5028  0.4200
 4823TIP3    H214434   0.990   4.199   4.638 -0.5139 -1.0068 -0.2158
 4824TIP3   OH214435   5.149   5.473   3.984  0.2503  0.0195 -0.0264
 4824TIP3    H114436   5.096   5.406   4.027  0.1849  0.5342  0.7187
 4824TIP3    H214437   5.240   5.446   3.999  0.2257  0.1619  0.3799
 4825TIP3   OH214438   3.262   3.514   5.478  0.4348  0.1876 -0.1093
 4825TIP3    H114439   3.305   3.599   5.468 -1.6682  1.4202  0.6361
 4825TIP3    H214440   3.218   3.499   5.395  0.8629 -0.2122 -0.2648
 4826TIP3   OH214441   6.242   3.635   3.196  0.2537  0.2327 -0.0933
 4826TIP3    H114442   6.205   3.649   3.283  0.1247 -1.2895  0.1264
 4826TIP3    H214443   6.336   3.635   3.210  0.2208 -1.3765  0.3144
 4827TIP3   OH214444   1.869   4.300   4.596  0.1915 -0.0963  0.6792
 4827TIP3    H114445   1.892   4.381   4.551  2.0759 -0.0217  1.6656
 4827TIP3    H214446   1.778   4.312   4.624  0.1432  1.2731 -0.0362
 4828TIP3   OH214447   2.386   2.819   3.329 -0.2870 -0.2761  0.0071
 4828TIP3    H114448   2.303   2.839   3.373  0.0539 -0.5424  0.7901
 4828TIP3    H214449   2.418   2.904   3.298  0.2230  0.1626  1.6486
 4829TIP3   OH214450   5.953   2.368   5.716  0.0520 -0.3257 -0.3726
 4829TIP3    H114451   6.001   2.450   5.729  0.9103 -1.0292  1.0950
 4829TIP3    H214452   5.993   2.330   5.638 -0.1418  0.4909 -0.8861
 4830TIP3   OH214453   2.469   1.743   1.330  0.1192  0.1613  0.3727
 4830TIP3    H114454   2.397   1.800   1.358 -0.3008 -0.7872  1.3383
 4830TIP3    H214455   2.466   1.670   1.392  1.1067 -0.5373 -0.3729
 4831TIP3   OH214456   1.582   5.126   0.581  0.1884  0.6875  0.0125
 4831TIP3    H114457   1.510   5.186   0.562 -0.4841  0.5853  2.0692
 4831TIP3    H214458   1.631   5.169   0.651  0.9436 -0.1982  0.0403
 4832TIP3   OH214459   6.903   0.532   1.873  0.4033  0.0335 -0.2693
 4832TIP3    H114460   6.863   0.451   1.905  0.4116  0.3080  0.4340
 4832TIP3    H214461   6.891   0.528   1.778  0.9512 -1.0901 -0.3065
 4833TIP3   OH214462   1.884   4.647  -0.001  0.0599 -0.4456 -0.7962
 4833TIP3    H114463   1.946   4.586  -0.041  0.0309 -0.6544 -0.5239
 4833TIP3    H214464   1.939   4.711   0.045  0.0639 -1.0815  0.1070
 4834TIP3   OH214465   1.676   6.540   2.415 -0.7316  0.2910  0.2869
 4834TIP3    H114466   1.587   6.559   2.445 -0.1422  1.1841  1.5756
 4834TIP3    H214467   1.664   6.505   2.327 -2.3217  0.9956  0.1711
 4835TIP3   OH214468   4.500   5.455   2.560  0.1547 -0.4177 -0.7261
 4835TIP3    H114469   4.499   5.422   2.470 -0.1193 -0.6583 -0.6378
 4835TIP3    H214470   4.497   5.550   2.550  1.5977 -0.3751 -0.9956
 4836TIP3   OH214471   2.100   0.496   3.439  0.3501 -0.6200  0.2907
 4836TIP3    H114472   2.154   0.575   3.433  0.7776 -0.7120  2.0965
 4836TIP3    H214473   2.155   0.426   3.403  0.1605 -0.1866 -0.8570
 4837TIP3   OH214474   2.470   1.325   2.948  0.0719 -0.3236 -0.7371
 4837TIP3    H114475   2.481   1.255   2.884  1.3672  0.4787 -1.4301
 4837TIP3    H214476   2.558   1.340   2.983 -0.6804 -1.1952  1.7782
 4838TIP3   OH214477   6.216   2.607   1.823  0.2496  0.2560  0.7284
 4838TIP3    H114478   6.297   2.556   1.820 -0.7623 -1.4651  1.3283
 4838TIP3    H214479   6.154   2.551   1.870 -2.0438  0.3826 -1.8849
 4839TIP3   OH214480   0.178   3.657   4.470 -0.4333  0.6376  0.1498
 4839TIP3    H114481   0.086   3.670   4.445 -0.8110 -0.1122  1.0717
 4839TIP3    H214482   0.176   3.652   4.565  0.4315 -0.3879  0.1291
 4840TIP3   OH214483   5.491   1.165   1.021 -0.2697 -0.1844 -0.1146
 4840TIP3    H114484   5.505   1.098   0.954 -1.1145 -0.0877 -0.4020
 4840TIP3    H214485   5.398   1.159   1.041  0.2041 -1.1188  2.0420
 4841TIP3   OH214486   5.780   3.876   3.123 -0.7422  0.4934 -0.2958
 4841TIP3    H114487   5.871   3.858   3.103 -1.1496 -0.4299 -1.4275
 4841TIP3    H214488   5.743   3.791   3.147 -1.4600  0.7362 -0.5025
 4842TIP3   OH214489   2.447   5.730   5.489  0.0424  0.0333 -0.1451
 4842TIP3    H114490   2.383   5.787   5.532 -0.2369 -0.6652  0.3950
 4842TIP3    H214491   2.396   5.652   5.466  0.0467  0.5840 -2.2492
 4843TIP3   OH214492   6.728   2.472   3.965 -0.3980  0.3600  0.0451
 4843TIP3    H114493   6.782   2.545   3.935  1.0367 -0.0834  1.4512
 4843TIP3    H214494   6.644   2.486   3.922  0.9013  0.8549 -2.5800
 4844TIP3   OH214495   5.329   4.884   3.107  0.0722 -0.3196  0.3263
 4844TIP3    H114496   5.242   4.867   3.143 -0.1837 -2.0056 -0.9622
 4844TIP3    H214497   5.315   4.954   3.043 -0.2740 -0.3211  0.3986
 4845TIP3   OH214498   5.200   3.705   4.964  0.0935  0.0713 -0.2449
 4845TIP3    H114499   5.217   3.634   4.902  1.0803  0.4619 -0.4366
 4845TIP3    H214500   5.113   3.685   4.999  1.7436 -3.3393  2.5572
 4846TIP3   OH214501   7.082   6.499   5.475  0.0340  0.3718 -0.1748
 4846TIP3    H114502   7.067   6.508   5.569  1.5175  0.5350  0.0696
 4846TIP3    H214503   7.162   6.447   5.468 -1.1568 -1.3980 -1.3896
 4847TIP3   OH214504   6.141   4.194   3.042 -0.0014  0.0323 -0.3407
 4847TIP3    H114505   6.082   4.236   2.979  0.7072  1.0578 -0.3481
 4847TIP3    H214506   6.084   4.137   3.094 -0.9704  0.8667 -0.4525
 4848TIP3   OH214507   6.453   1.400   5.014  0.6030 -0.1259 -0.5080
 4848TIP3    H114508   6.374   1.410   5.066  1.0965 -0.1193  0.2568
 4848TIP3    H214509   6.422   1.393   4.924 -0.1735  1.3587 -0.3760
 4849TIP3   OH214510   4.296   4.136   5.130 -0.5937  0.1826  0.2272
 4849TIP3    H114511   4.306   4.168   5.040 -1.2778 -1.0710 -0.3178
 4849TIP3    H214512   4.207   4.160   5.154 -0.7481 -0.3629  0.2041
 4850TIP3   OH214513   2.249   0.864   1.112  0.2860  0.3689  0.2232
 4850TIP3    H114514   2.189   0.935   1.134  2.2379  1.8822  0.9636
 4850TIP3    H214515   2.281   0.831   1.196  0.8310 -0.1015 -0.1551
 4851TIP3   OH214516   5.863   4.414   1.767 -0.3470 -0.2076 -0.3064
 4851TIP3    H114517   5.822   4.466   1.697 -0.5187 -0.2035 -0.2036
 4851TIP3    H214518   5.944   4.382   1.728  0.5338  1.4000  0.1195
 4852TIP3   OH214519   2.558   1.065   4.907 -0.3418  0.3653  0.5803
 4852TIP3    H114520   2.652   1.048   4.912 -0.4368 -0.3896 -0.0097
 4852TIP3    H214521   2.518   0.979   4.892 -1.0226  0.8117 -0.3235
 4853TIP3   OH214522   3.218   2.591   0.230 -0.1497  0.7039 -0.0056
 4853TIP3    H114523   3.158   2.548   0.170  0.0765 -0.1288  0.3489
 4853TIP3    H214524   3.304   2.584   0.187  0.2980 -1.2972  1.0638
 4854TIP3   OH214525   6.425   4.727   4.147  0.6632  0.2791  0.2917
 4854TIP3    H114526   6.364   4.654   4.148 -0.1623  0.9513 -0.4980
 4854TIP3    H214527   6.480   4.712   4.225  0.2867 -0.9710  0.3452
 4855TIP3   OH214528   2.889   0.924   5.776  0.0531  0.3164 -0.0493
 4855TIP3    H114529   2.924   0.984   5.842 -0.1911  0.7694 -0.3220
 4855TIP3    H214530   2.942   0.940   5.698  0.6308 -0.5364  0.1586
 4856TIP3   OH214531   3.198   2.585   2.417 -0.3876  0.1484  0.2465
 4856TIP3    H114532   3.148   2.613   2.340 -0.1300 -0.5510 -0.1829
 4856TIP3    H214533   3.279   2.548   2.381  0.8597  2.0106  0.9522
 4857TIP3   OH214534   3.648   5.222   4.434 -0.4100  0.7361 -0.1946
 4857TIP3    H114535   3.596   5.235   4.514 -0.7516 -3.2788  0.4207
 4857TIP3    H214536   3.737   5.245   4.459 -0.7910  1.2056  0.7947
 4858TIP3   OH214537   6.850   6.320   5.234  0.5803  0.3764  0.1386
 4858TIP3    H114538   6.856   6.296   5.326  0.0168  0.0871  0.1015
 4858TIP3    H214539   6.881   6.243   5.187 -0.9871 -0.2092  0.0269
 4859TIP3   OH214540   0.690   2.569   2.941  0.0729 -0.3380 -0.0504
 4859TIP3    H114541   0.681   2.660   2.911  0.2478  0.2281  1.4961
 4859TIP3    H214542   0.767   2.536   2.895 -0.3583  0.0831 -1.1051
 4860TIP3   OH214543   7.197   5.112   3.888  0.1273  0.1261  0.1091
 4860TIP3    H114544   7.273   5.088   3.941 -1.1127  0.9048  2.3594
 4860TIP3    H214545   7.126   5.057   3.921 -0.5181  0.0515 -1.3432
 4861TIP3   OH214546   6.967   2.374   3.806  0.1268 -0.2597  0.6289
 4861TIP3    H114547   6.893   2.366   3.866 -0.0825  0.0984  0.4207
 4861TIP3    H214548   6.928   2.370   3.718  0.4860 -1.2976  0.5102
 4862TIP3   OH214549   2.900   2.890   4.030  0.4905  0.4274 -0.6598
 4862TIP3    H114550   2.835   2.921   4.093 -0.2324 -1.1635 -0.5792
 4862TIP3    H214551   2.857   2.899   3.945 -0.5063 -2.0322 -0.4978
 4863TIP3   OH214552   4.857   0.403   3.956 -0.1497  0.6258 -0.0994
 4863TIP3    H114553   4.918   0.331   3.941  1.6663  2.0887 -0.1172
 4863TIP3    H214554   4.851   0.447   3.872 -1.3260  0.4665 -0.1137
 4864TIP3   OH214555   6.486   4.721   0.887  0.1723  0.3810 -0.4376
 4864TIP3    H114556   6.398   4.736   0.921  0.6368  2.4530  0.0053
 4864TIP3    H214557   6.493   4.779   0.811  1.3779  0.7915 -0.0369
 4865TIP3   OH214558   3.276   3.846   5.330  0.0239 -0.1379  0.5277
 4865TIP3    H114559   3.183   3.858   5.350  0.1094 -0.6141  1.2714
 4865TIP3    H214560   3.276   3.791   5.252 -0.3158  0.5804  0.0050
 4866TIP3   OH214561   1.736   1.983   4.569 -0.5023 -0.4286  0.3217
 4866TIP3    H114562   1.749   1.993   4.474 -0.9031 -1.1549  0.1890
 4866TIP3    H214563   1.642   1.968   4.579 -1.1961  3.3579  1.1619
 4867TIP3   OH214564   0.439   4.730   1.488  0.1265  0.4753 -0.0640
 4867TIP3    H114565   0.432   4.644   1.447  0.1057 -0.1074  1.1193
 4867TIP3    H214566   0.479   4.713   1.573 -0.8579  1.5005  0.6317
 4868TIP3   OH214567   3.164   1.876   4.162  1.0557 -0.2799 -0.3638
 4868TIP3    H114568   3.142   1.946   4.224  1.6484 -1.2405  0.9800
 4868TIP3    H214569   3.088   1.818   4.164  0.2883  0.6114 -1.9623
 4869TIP3   OH214570   6.042   5.240   2.713  0.2490 -0.1060  0.2272
 4869TIP3    H114571   5.965   5.287   2.682  1.2349  0.5598 -1.3491
 4869TIP3    H214572   6.109   5.307   2.724  0.6230 -0.6680  1.5797
 4870TIP3   OH214573   6.579   2.380   1.389  0.4605  0.4059  0.9118
 4870TIP3    H114574   6.634   2.415   1.460  1.1308  3.1470 -0.8033
 4870TIP3    H214575   6.502   2.437   1.388  0.4044  0.3371 -0.4723
 4871TIP3   OH214576   2.672   0.895   4.482 -0.6052 -0.1492 -0.4401
 4871TIP3    H114577   2.614   0.964   4.449  0.4342  0.7275 -0.5064
 4871TIP3    H214578   2.755   0.939   4.497  0.3237 -1.5431 -1.2150
 4872TIP3   OH214579   5.008   0.719   5.712  0.0829  0.2732  0.0463
 4872TIP3    H114580   4.922   0.762   5.720 -0.7535 -1.4182  0.4892
 4872TIP3    H214581   5.000   0.663   5.635 -0.4132 -2.3843  1.8840
 4873TIP3   OH214582   2.232   2.655   2.885  0.1281  0.9524  0.0189
 4873TIP3    H114583   2.267   2.743   2.902 -0.1419  1.0364  0.1389
 4873TIP3    H214584   2.282   2.598   2.944 -0.5119  1.1861  0.8036
 4874TIP3   OH214585   7.048   0.564   3.310 -0.3731  0.9786 -0.4435
 4874TIP3    H114586   6.960   0.569   3.274  0.1613  1.6285 -1.7500
 4874TIP3    H214587   7.101   0.617   3.250  1.1154 -0.3686 -0.3894
 4875TIP3   OH214588   4.499   6.776   3.756  0.3336  0.2019  0.2473
 4875TIP3    H114589   4.479   6.698   3.808 -0.1405 -1.0868 -1.7604
 4875TIP3    H214590   4.526   6.841   3.820  0.9606 -1.6761  1.9877
 4876TIP3   OH214591   1.845   3.894   0.043  0.0050 -0.3067 -0.0975
 4876TIP3    H114592   1.786   3.957   0.082  2.3371  2.6558 -0.9463
 4876TIP3    H214593   1.915   3.882   0.107 -0.3957 -2.1018  0.0526
 4877TIP3   OH214594   1.535   6.161   4.305  0.5366  0.0106 -0.3138
 4877TIP3    H114595   1.609   6.218   4.284 -0.1786  1.1012  0.0463
 4877TIP3    H214596   1.573   6.094   4.362  0.8970  1.7379  1.6059
 4878TIP3   OH214597   3.704   1.301   5.026 -0.3863  0.7292 -0.1150
 4878TIP3    H114598   3.708   1.397   5.022  0.2031  0.6870 -0.6318
 4878TIP3    H214599   3.643   1.277   4.957 -0.9359  0.7533  0.3537
 4879TIP3   OH214600   4.261   6.763   5.386  0.5555  0.1444  0.0027
 4879TIP3    H114601   4.355   6.758   5.365  0.6977  0.8521  0.4417
 4879TIP3    H214602   4.256   6.825   5.459 -0.3441  0.8014 -0.5909
 4880TIP3   OH214603   0.246   3.348   5.160  0.3441 -0.3662  0.2927
 4880TIP3    H114604   0.336   3.380   5.156  0.7934 -1.6543 -0.5013
 4880TIP3    H214605   0.249   3.261   5.120 -1.3845 -0.1468 -0.4202
 4881TIP3   OH214606   0.975   0.406   1.758 -0.2660  0.0361  0.1097
 4881TIP3    H114607   0.966   0.435   1.849  1.0709  0.0635  0.2633
 4881TIP3    H214608   1.070   0.411   1.742 -0.2875 -1.7402 -0.6916
 4882TIP3   OH214609   2.245   0.688   1.583 -0.1986 -0.3179  0.0143
 4882TIP3    H114610   2.324   0.694   1.636 -0.9512  0.6361  1.0633
 4882TIP3    H214611   2.178   0.652   1.642 -0.9061  0.2168 -0.4370
 4883TIP3   OH214612   0.281   0.122   4.835  0.1061  0.0518  0.1009
 4883TIP3    H114613   0.366   0.151   4.802  0.1674 -0.2639 -0.0243
 4883TIP3    H214614   0.246   0.066   4.766 -0.2129  0.1968  0.1457
 4884TIP3   OH214615   2.000   4.155   0.150  0.1743 -0.4054 -0.4820
 4884TIP3    H114616   2.054   4.209   0.208  0.0368 -0.6758 -0.1036
 4884TIP3    H214617   2.006   4.067   0.187  0.9746 -0.8010 -1.5004
 4885TIP3   OH214618   2.092   2.513   5.502  0.0732  0.1664  0.0299
 4885TIP3    H114619   2.181   2.549   5.505  0.6770 -1.2933  0.7709
 4885TIP3    H214620   2.056   2.533   5.588  0.1818 -0.4316  0.2152
 4886TIP3   OH214621   7.074   3.322   3.495  0.5235  0.6216 -0.1689
 4886TIP3    H114622   6.995   3.372   3.517  1.8531  1.9233  2.0311
 4886TIP3    H214623   7.044   3.232   3.485 -1.0654  0.8324  2.0191
 4887TIP3   OH214624   4.879   2.197   3.967 -0.7673 -0.0579  0.5543
 4887TIP3    H114625   4.935   2.229   3.896  0.7212 -5.0952 -0.9488
 4887TIP3    H214626   4.797   2.174   3.924 -1.1281 -0.0317  1.2159
 4888TIP3   OH214627   4.221   4.231   0.833  0.0456 -0.0589 -0.8830
 4888TIP3    H114628   4.197   4.177   0.908  1.1137 -1.0411 -1.2194
 4888TIP3    H214629   4.295   4.185   0.793  0.0357  0.8916 -2.0452
 4889TIP3   OH214630   5.654   0.012   0.617 -0.3497 -0.1910  0.0985
 4889TIP3    H114631   5.621   0.002   0.706  0.0249  1.3554  0.4336
 4889TIP3    H214632   5.711   0.089   0.620  0.5483 -0.7522 -1.2336
 4890TIP3   OH214633   1.724   2.312   1.290 -0.1816 -0.2768  0.0749
 4890TIP3    H114634   1.726   2.224   1.327 -0.3583 -0.4105 -0.2258
 4890TIP3    H214635   1.634   2.342   1.303  0.0726  0.1642  0.8646
 4891TIP3   OH214636   0.413   5.713   3.846  0.4768  0.4983 -0.1706
 4891TIP3    H114637   0.451   5.693   3.760  0.0128 -0.1169 -0.2421
 4891TIP3    H214638   0.424   5.807   3.856 -0.8853  0.8629 -1.5995
 4892TIP3   OH214639   4.816   1.968   4.571  0.7881  0.5550  0.8202
 4892TIP3    H114640   4.897   1.979   4.522  0.5844  2.7538  0.8533
 4892TIP3    H214641   4.823   2.031   4.643 -0.2867 -0.3408  1.7566
 4893TIP3   OH214642   3.728   6.681   3.181  0.1215 -0.0045  0.6231
 4893TIP3    H114643   3.637   6.682   3.151  0.8566 -1.2136 -1.8828
 4893TIP3    H214644   3.748   6.588   3.194  0.5240  0.3416  2.9033
 4894TIP3   OH214645   3.311   2.443   1.263  0.0373 -0.5063  0.3528
 4894TIP3    H114646   3.220   2.455   1.235  0.5046 -2.9265 -2.6790
 4894TIP3    H214647   3.307   2.449   1.358 -3.3301 -0.6952  0.3549
 4895TIP3   OH214648   6.582   1.109   3.321 -0.4643 -0.3269 -0.4170
 4895TIP3    H114649   6.631   1.155   3.389 -0.6994  1.3011 -1.2920
 4895TIP3    H214650   6.625   1.134   3.240  0.0142 -2.5027 -0.8862
 4896TIP3   OH214651   4.229   0.834   0.354 -0.7954  0.3191 -0.3340
 4896TIP3    H114652   4.280   0.796   0.282  1.5545  1.2195  0.7687
 4896TIP3    H214653   4.207   0.922   0.323  2.1449  1.5474  0.8137
 4897TIP3   OH214654   4.322   4.760   2.982 -0.4935 -0.7187  0.4441
 4897TIP3    H114655   4.349   4.837   2.931 -0.0788 -0.5398  0.9188
 4897TIP3    H214656   4.227   4.766   2.987 -0.4408 -0.0195  0.7991
 4898TIP3   OH214657   4.056   5.448   3.610 -0.4998 -0.1936 -0.1734
 4898TIP3    H114658   4.139   5.406   3.588  0.5211  2.0845 -1.0467
 4898TIP3    H214659   4.021   5.397   3.683  0.6997 -2.3658 -1.0293
 4899TIP3   OH214660   4.074   6.287   1.988 -1.1063 -0.0876 -0.4891
 4899TIP3    H114661   4.049   6.196   1.970  0.3576 -0.7280  0.4620
 4899TIP3    H214662   3.995   6.328   2.022 -1.7119 -1.0918 -0.6453
 4900TIP3   OH214663   1.659   5.103   5.145  0.1898  0.0563 -0.6111
 4900TIP3    H114664   1.728   5.068   5.089 -0.3922  1.4470 -2.2563
 4900TIP3    H214665   1.656   5.197   5.125 -0.6852  0.4365  1.0695
 4901TIP3   OH214666   5.773   6.485   5.343 -0.1066  0.1758  0.0341
 4901TIP3    H114667   5.712   6.557   5.354 -1.6997 -0.8886 -1.3677
 4901TIP3    H214668   5.839   6.518   5.282  0.2147  1.0073  0.8031
 4902TIP3   OH214669   4.272   0.133   4.898  0.2639 -0.2918  0.9307
 4902TIP3    H114670   4.197   0.121   4.956 -0.7229 -2.7967 -0.6987
 4902TIP3    H214671   4.238   0.113   4.811  2.8226 -1.5918  0.1367
 4903TIP3   OH214672   2.540   2.565   4.597 -0.1483  0.3559 -0.1272
 4903TIP3    H114673   2.486   2.565   4.676 -0.6528  2.0894 -0.4273
 4903TIP3    H214674   2.625   2.531   4.625 -0.4171  0.6482  1.0858
 4904TIP3   OH214675   0.127   1.379   2.426 -0.0268 -0.2340  0.0807
 4904TIP3    H114676   0.084   1.427   2.496  1.7211  2.2831 -0.4393
 4904TIP3    H214677   0.078   1.400   2.348  0.2116 -0.0160 -0.0116
 4905TIP3   OH214678   2.909   2.671   2.319 -0.5889 -0.0610  0.5843
 4905TIP3    H114679   2.988   2.652   2.269 -1.1224 -1.5616  0.2644
 4905TIP3    H214680   2.843   2.695   2.253 -0.2362  1.9767  0.9004
 4906TIP3   OH214681   5.668   0.473   2.480 -0.5007 -0.0770  0.3965
 4906TIP3    H114682   5.685   0.441   2.568  0.5509 -0.0714  0.2109
 4906TIP3    H214683   5.607   0.546   2.492  0.8829  0.9754  1.2815
 4907TIP3   OH214684   1.618   4.556   1.861  0.3163 -0.4802 -0.1667
 4907TIP3    H114685   1.629   4.536   1.954 -0.3954  0.3507  0.1103
 4907TIP3    H214686   1.645   4.476   1.816  1.2163 -0.6901  0.7251
 4908TIP3   OH214687   3.944   1.947   5.565  0.0824 -0.3181 -0.2101
 4908TIP3    H114688   3.922   2.039   5.578 -1.3076 -0.5096 -1.0517
 4908TIP3    H214689   3.861   1.904   5.544  0.6526 -1.8237  0.4248
 4909TIP3   OH214690   3.883   5.201   2.344 -0.3166 -0.7111  0.0558
 4909TIP3    H114691   3.902   5.257   2.419  2.3825  1.3846 -2.0035
 4909TIP3    H214692   3.960   5.145   2.335 -0.7174 -1.1279 -0.9789
 4910TIP3   OH214693   5.823   1.063   3.724  0.5346 -0.6365  0.2137
 4910TIP3    H114694   5.825   1.104   3.637  0.1068  0.8260  0.8591
 4910TIP3    H214695   5.880   1.117   3.777 -1.6030  0.4073  1.6015
 4911TIP3   OH214696   6.992   0.249   4.829  0.1108  0.0492  0.4739
 4911TIP3    H114697   7.033   0.331   4.798  2.2354 -1.2227 -0.3261
 4911TIP3    H214698   6.972   0.201   4.749 -0.2271 -0.6119  0.9531
 4912TIP3   OH214699   3.356   6.142   1.518 -0.2273 -0.2717  0.2007
 4912TIP3    H114700   3.314   6.192   1.589  0.9778 -0.2199  0.9028
 4912TIP3    H214701   3.315   6.175   1.438 -1.6605 -0.3598  0.8576
 4913TIP3   OH214702   3.358   4.947   5.145  0.2884 -0.6100  0.3904
 4913TIP3    H114703   3.342   4.914   5.233  1.3441  0.7450  1.1302
 4913TIP3    H214704   3.307   5.028   5.140  0.4711 -0.5243 -0.1292
 4914TIP3   OH214705   2.174   4.881   1.479  0.2628 -0.1919  0.1535
 4914TIP3    H114706   2.130   4.950   1.528  0.7881 -0.2889  0.7746
 4914TIP3    H214707   2.141   4.799   1.517 -2.1058 -0.3914 -2.0806
 4915TIP3   OH214708   3.807   0.976   3.994  0.4242 -0.0654  0.2109
 4915TIP3    H114709   3.735   0.926   4.032  0.9127 -2.8382 -2.1431
 4915TIP3    H214710   3.880   0.960   4.053  0.7237 -2.8541 -0.7415
 4916TIP3   OH214711   4.102   4.688   4.914  0.0077  0.6755  0.5558
 4916TIP3    H114712   4.068   4.634   4.843 -0.0027  1.8201 -0.3408
 4916TIP3    H214713   4.071   4.777   4.895 -0.6417  0.8981  2.4089
 4917TIP3   OH214714   2.780   2.380   3.387 -0.0196 -0.0322  0.0825
 4917TIP3    H114715   2.819   2.447   3.331 -0.2958  0.7414  0.7867
 4917TIP3    H214716   2.821   2.394   3.472 -2.5927  1.5773  1.1714
 4918TIP3   OH214717   1.653   5.803   3.421  0.5017 -0.7610 -0.1982
 4918TIP3    H114718   1.637   5.817   3.515  3.1157 -0.4280  0.2963
 4918TIP3    H214719   1.580   5.750   3.391 -1.7218  1.1551  1.4455
 4919TIP3   OH214720   1.040   4.727   0.554 -0.1327 -0.7259 -0.0449
 4919TIP3    H114721   1.073   4.768   0.474  2.3423 -1.3808  0.5712
 4919TIP3    H214722   1.107   4.745   0.620 -2.6313  0.8396  2.2971
 4920TIP3   OH214723   2.216   2.629   0.106  0.7183 -0.0863 -0.2752
 4920TIP3    H114724   2.245   2.684   0.180 -0.4685  1.0892 -0.6454
 4920TIP3    H214725   2.136   2.587   0.138  0.2931  0.2990 -0.8281
 4921TIP3   OH214726   5.858   3.712   5.301  0.1216 -0.0506 -0.3998
 4921TIP3    H114727   5.824   3.781   5.358 -1.7004 -1.6218  0.5171
 4921TIP3    H214728   5.797   3.639   5.311  0.3935 -0.8606 -3.4554
 4922TIP3   OH214729   1.165   5.481   4.975 -0.1956 -0.2334  0.2747
 4922TIP3    H114730   1.205   5.398   5.001 -0.3221 -0.1081  0.8847
 4922TIP3    H214731   1.114   5.508   5.051  0.1598  0.5979  0.2361
 4923TIP3   OH214732   4.409   2.042   3.262 -0.0222 -0.0698 -0.1628
 4923TIP3    H114733   4.444   1.954   3.271 -1.9064 -0.7181  1.6234
 4923TIP3    H214734   4.355   2.055   3.340 -0.8435  2.1804 -1.0038
 4924TIP3   OH214735   1.986   3.306   0.043  0.1156 -0.1881 -0.0447
 4924TIP3    H114736   1.947   3.315   0.130  0.4858 -0.1679  0.1173
 4924TIP3    H214737   1.978   3.212   0.023 -1.1992  0.0075 -0.5631
 4925TIP3   OH214738   5.752   4.761   3.265  0.3501  0.1241  0.0427
 4925TIP3    H114739   5.693   4.830   3.235  1.1492  0.9410  0.3217
 4925TIP3    H214740   5.718   4.737   3.351  0.5079  0.6929  0.2655
 4926TIP3   OH214741   4.573   3.787   5.607  0.3126 -0.0599  0.2237
 4926TIP3    H114742   4.596   3.846   5.535 -1.7787  0.7669  0.1679
 4926TIP3    H214743   4.495   3.827   5.646 -0.2555 -2.0058  1.1664
 4927TIP3   OH214744   4.791   2.064   1.553  0.4455 -0.1553 -0.4007
 4927TIP3    H114745   4.822   1.978   1.582 -1.9088 -1.0464 -0.2782
 4927TIP3    H214746   4.814   2.067   1.460 -0.7901 -1.6427 -0.7987
 4928TIP3   OH214747   3.255   1.908   4.491  0.3497 -0.0813  0.0700
 4928TIP3    H114748   3.195   1.939   4.558  0.0089 -0.1540 -0.1993
 4928TIP3    H214749   3.319   1.978   4.481 -0.0106  0.2356 -0.0381
 4929TIP3   OH214750   4.364   1.502   3.471 -0.2102 -0.0604  0.1672
 4929TIP3    H114751   4.448   1.543   3.492  1.1186 -3.0550  1.2844
 4929TIP3    H214752   4.349   1.524   3.379  0.9137  1.9061  0.3948
 4930TIP3   OH214753   0.914   0.589   0.342 -0.3513  0.4789  0.0808
 4930TIP3    H114754   0.919   0.669   0.395 -0.5477 -0.0262  0.8623
 4930TIP3    H214755   0.994   0.592   0.288  0.2572  0.6094  0.9615
 4931TIP3   OH214756   4.770   5.847   4.667  0.0513  0.1617 -0.1025
 4931TIP3    H114757   4.678   5.856   4.644 -0.1052 -1.1607 -0.0420
 4931TIP3    H214758   4.817   5.874   4.589 -0.4031  0.0430 -0.4218
 4932TIP3   OH214759   4.233   5.967   5.275 -1.1821  0.1468 -0.4640
 4932TIP3    H114760   4.188   5.913   5.340  1.6966 -0.8470  0.8470
 4932TIP3    H214761   4.284   6.030   5.326  0.3809 -0.0129 -1.7342
 4933TIP3   OH214762   6.996   3.893   1.363 -0.1228 -0.3005  0.1220
 4933TIP3    H114763   6.966   3.803   1.358 -0.6282 -0.1021 -0.5670
 4933TIP3    H214764   6.985   3.917   1.455  2.6955 -1.8185  0.9582
 4934TIP3   OH214765   2.138   0.778   1.869 -0.1045 -0.5892 -0.2438
 4934TIP3    H114766   2.124   0.685   1.851  0.3983 -0.5131 -1.0813
 4934TIP3    H214767   2.098   0.792   1.955  0.0677 -1.6405  0.0272
 4935TIP3   OH214768   2.128   4.044   1.125 -0.0221 -0.0063 -0.1350
 4935TIP3    H114769   2.111   3.953   1.148  2.6658 -1.0322 -1.6853
 4935TIP3    H214770   2.198   4.071   1.184  0.0502  0.6523 -0.5096
 4936TIP3   OH214771   6.596   3.943   0.503  0.2777  0.4717 -0.3982
 4936TIP3    H114772   6.528   3.906   0.559 -0.0624  2.5008  0.6477
 4936TIP3    H214773   6.628   3.869   0.451 -2.3032 -0.6667 -0.5187
 4937TIP3   OH214774   3.686   1.662   3.391 -0.3050  0.1273 -0.0661
 4937TIP3    H114775   3.647   1.667   3.479 -3.0835  1.0307 -1.2278
 4937TIP3    H214776   3.700   1.569   3.377 -0.7349 -0.1191  0.9794
 4938TIP3   OH214777   3.719   1.589   5.030  0.4257  0.1605  0.1122
 4938TIP3    H114778   3.809   1.571   5.002 -0.0060 -0.4703 -0.9363
 4938TIP3    H214779   3.684   1.647   4.962 -0.0735  0.0964  0.3127
 4939TIP3   OH214780   5.406   3.483   0.461 -0.2317 -0.0395 -0.0147
 4939TIP3    H114781   5.361   3.553   0.414 -3.4019  0.2091  2.9561
 4939TIP3    H214782   5.336   3.437   0.508  2.2454 -2.4129  1.6568
 4940TIP3   OH214783   5.794   1.064   1.709  0.0901 -0.5210  0.4125
 4940TIP3    H114784   5.768   0.976   1.735 -0.4925 -0.1263  1.2204
 4940TIP3    H214785   5.775   1.067   1.615  0.3959 -1.3451  0.3147
 4941TIP3   OH214786   0.944   6.325   5.395 -0.1609  0.3312 -0.3893
 4941TIP3    H114787   0.987   6.303   5.478 -0.4309 -0.6593 -0.4952
 4941TIP3    H214788   0.883   6.395   5.417 -0.1329  0.1688  0.2240
 4942TIP3   OH214789   3.547   2.065   2.172 -1.0079  0.0299  0.0063
 4942TIP3    H114790   3.461   2.079   2.213 -0.9189 -1.0493  0.6052
 4942TIP3    H214791   3.609   2.104   2.233 -1.0437  0.4639 -0.2345
 4943TIP3   OH214792   6.596   5.903   2.743 -0.3661 -0.8073  0.5995
 4943TIP3    H114793   6.649   5.919   2.665 -1.7740 -2.2801 -0.7319
 4943TIP3    H214794   6.660   5.888   2.813  0.9419 -0.4147 -0.4772
 4944TIP3   OH214795   3.723   6.505   5.585  0.5477  0.2267  0.3376
 4944TIP3    H114796   3.793   6.440   5.578 -0.5762 -0.8623 -1.7211
 4944TIP3    H214797   3.719   6.546   5.498 -1.1200  0.5057  0.5084
 4945TIP3   OH214798   0.006   6.644   3.042  0.0757  0.4112 -0.3820
 4945TIP3    H114799   0.012   6.595   3.124 -0.9416 -1.4980 -1.3724
 4945TIP3    H214800   0.071   6.602   2.985  0.0952  1.0855 -0.8657
 4946TIP3   OH214801   2.571   5.375   3.764 -0.0961 -0.2539 -0.3831
 4946TIP3    H114802   2.625   5.449   3.794 -1.4317 -0.3917  2.6965
 4946TIP3    H214803   2.491   5.415   3.732 -0.6031 -0.3236  0.7807
 4947TIP3   OH214804   3.096   3.161   2.280 -0.0108 -0.5535 -0.1417
 4947TIP3    H114805   3.085   3.086   2.338  1.0826  0.3972  1.3637
 4947TIP3    H214806   3.069   3.236   2.332 -1.6530  0.0831 -1.8230
 4948TIP3   OH214807   6.692   2.398   3.216  0.1089 -0.4588  0.0195
 4948TIP3    H114808   6.775   2.444   3.232  1.1652 -2.0328 -0.6881
 4948TIP3    H214809   6.665   2.367   3.303  0.1980  0.1577  0.2735
 4949TIP3   OH214810   4.758   1.727   5.250 -0.4343 -0.2884  0.2595
 4949TIP3    H114811   4.668   1.709   5.224 -0.4557 -1.2657  0.9735
 4949TIP3    H214812   4.811   1.694   5.178 -0.6303 -0.0673  0.0136
 4950TIP3   OH214813   0.775   4.861   0.400 -0.6200 -0.1914 -0.4033
 4950TIP3    H114814   0.862   4.877   0.438 -0.5024  1.7321 -1.3644
 4950TIP3    H214815   0.715   4.864   0.474  0.0927 -1.2479  0.2357
 4951TIP3   OH214816   5.051   0.427   4.250  0.3049  0.0663 -0.4999
 4951TIP3    H114817   5.025   0.456   4.337 -1.7444 -1.8893 -0.3732
 4951TIP3    H214818   5.145   0.409   4.258  0.6531  2.0938  0.6148
 4952TIP3   OH214819   3.713   1.405   3.065  0.0984  0.2063  0.0297
 4952TIP3    H114820   3.658   1.424   3.141  2.5103  1.1721  1.6543
 4952TIP3    H214821   3.683   1.467   2.997 -0.5440  0.9946  1.0037
 4953TIP3   OH214822   5.885   2.944   0.977 -0.0967  0.5899  0.4803
 4953TIP3    H114823   5.926   3.017   0.932 -0.4604  1.5215  1.6126
 4953TIP3    H214824   5.923   2.866   0.936  1.3343  1.4057  0.1981
 4954TIP3   OH214825   2.936   6.238   1.149  0.2196 -0.1113 -0.3308
 4954TIP3    H114826   3.031   6.230   1.157  0.4305  1.5262 -0.8054
 4954TIP3    H214827   2.920   6.248   1.055 -0.6111 -2.0441 -0.4397
 4955TIP3   OH214828   2.606   3.238   1.542  0.1489  0.6334 -0.2114
 4955TIP3    H114829   2.516   3.221   1.513  0.5349  1.6779 -2.1827
 4955TIP3    H214830   2.596   3.266   1.633 -1.6558  1.8301 -0.7158
 4956TIP3   OH214831   2.541   1.654   2.052  0.0413 -0.6009  0.5775
 4956TIP3    H114832   2.544   1.610   2.137 -1.5992 -0.1757  0.8764
 4956TIP3    H214833   2.632   1.677   2.034  0.2665  0.6197  2.9287
 4957TIP3   OH214834   0.622   4.833   1.798 -0.2020 -0.0189 -0.1358
 4957TIP3    H114835   0.712   4.840   1.768  0.1816  1.1264  1.1711
 4957TIP3    H214836   0.605   4.739   1.805  0.6771 -0.2415 -0.9912
 4958TIP3   OH214837   2.251   2.251   2.885 -0.0537  0.1256 -0.0286
 4958TIP3    H114838   2.279   2.340   2.909  0.9064 -0.1389 -0.1328
 4958TIP3    H214839   2.253   2.203   2.968  3.5918 -0.8766 -0.5114
 4959TIP3   OH214840   4.838   1.156   1.818 -0.1603 -0.5145 -0.2260
 4959TIP3    H114841   4.751   1.169   1.781 -0.3679 -3.3670 -1.0285
 4959TIP3    H214842   4.856   1.236   1.867 -3.0430  0.3543 -0.3878
 4960TIP3   OH214843   6.551   0.545   1.715  0.3377  0.6170  0.5971
 4960TIP3    H114844   6.513   0.609   1.776 -0.2149  0.1700  0.7377
 4960TIP3    H214845   6.559   0.465   1.767  0.9875  0.5546  0.4119
 4961TIP3   OH214846   5.808   5.643   3.592 -0.2647  0.1175 -0.6720
 4961TIP3    H114847   5.800   5.710   3.524 -1.7171 -0.7486 -1.4054
 4961TIP3    H214848   5.822   5.562   3.544 -0.4777 -0.3882  0.1017
 4962TIP3   OH214849   4.545   3.656   4.888 -0.0960  0.6365 -0.0630
 4962TIP3    H114850   4.549   3.575   4.938 -0.5070  1.9476  2.2742
 4962TIP3    H214851   4.635   3.688   4.886 -0.1168  0.7102  0.1109
 4963TIP3   OH214852   4.481   4.343   1.653 -0.2375  0.0390 -0.5429
 4963TIP3    H114853   4.534   4.413   1.692 -1.9491  1.4167 -0.5970
 4963TIP3    H214854   4.391   4.370   1.666 -0.9324 -1.0257 -2.6119
 4964TIP3   OH214855   0.886   4.545   5.168 -0.4993  0.5935 -0.1974
 4964TIP3    H114856   0.955   4.609   5.154  0.0782 -0.1101 -0.6340
 4964TIP3    H214857   0.805   4.590   5.141 -0.2837  1.5495  0.6784
 4965TIP3   OH214858   1.189   2.068   3.723  0.0402  0.0282 -0.4088
 4965TIP3    H114859   1.268   2.120   3.732  0.5018 -0.3897 -1.7479
 4965TIP3    H214860   1.220   1.983   3.690 -0.7246 -0.9771  1.2998
 4966TIP3   OH214861   4.318   4.103   0.120  0.1840 -0.0090  0.6509
 4966TIP3    H114862   4.364   4.169   0.068  0.4016 -0.8483 -0.2787
 4966TIP3    H214863   4.384   4.071   0.182 -0.1760  1.2476  1.7127
 4967TIP3   OH214864   4.382   5.125   3.104 -0.6862  0.2429 -0.3636
 4967TIP3    H114865   4.369   5.034   3.080 -0.1793 -0.0033  0.2662
 4967TIP3    H214866   4.304   5.170   3.072 -1.0070 -0.4382 -0.5432
 4968TIP3   OH214867   1.302   2.287   5.152  0.7841  0.3765 -0.5951
 4968TIP3    H114868   1.357   2.255   5.080  1.7564 -0.7257  0.5856
 4968TIP3    H214869   1.365   2.323   5.215 -0.0091  0.7539 -0.0044
 4969TIP3   OH214870   3.212   3.739   1.793  0.0630  0.7012  0.1998
 4969TIP3    H114871   3.217   3.822   1.745  1.7819 -1.1072 -3.0540
 4969TIP3    H214872   3.295   3.734   1.841  1.4261 -0.4097 -2.1146
 4970TIP3   OH214873   2.638   0.522   4.507  0.1544  0.5242 -0.3851
 4970TIP3    H114874   2.550   0.487   4.520  0.6445 -0.5509  0.1404
 4970TIP3    H214875   2.649   0.585   4.578  1.1945 -2.1497  2.0277
 4971TIP3   OH214876   0.312   1.951   5.916  0.1794  0.0372  0.3737
 4971TIP3    H114877   0.239   1.935   5.856 -0.3116  0.2906  0.8902
 4971TIP3    H214878   0.387   1.906   5.876  0.0929  0.9429 -0.8955
 4972TIP3   OH214879   2.616   3.757   2.807 -0.5055  0.2470  0.3687
 4972TIP3    H114880   2.608   3.759   2.902 -0.4325 -1.3480  0.4450
 4972TIP3    H214881   2.658   3.839   2.784  1.5721 -0.2828  1.9345
 4973TIP3   OH214882   4.748   3.606   5.141 -0.3956  0.2630  0.1301
 4973TIP3    H114883   4.713   3.625   5.228 -0.4105  1.4905 -0.1242
 4973TIP3    H214884   4.702   3.527   5.113 -0.9779  0.3194  0.9052
 4974TIP3   OH214885   0.559   2.680   1.542 -0.0047  0.2186  0.4654
 4974TIP3    H114886   0.464   2.686   1.553 -0.3120 -0.4550 -1.5085
 4974TIP3    H214887   0.581   2.592   1.574 -0.3691 -0.3905 -0.8935
 4975TIP3   OH214888   5.272   6.625   2.418  0.4228  0.4305 -0.0114
 4975TIP3    H114889   5.255   6.706   2.467 -0.3337  0.0005  0.4632
 4975TIP3    H214890   5.222   6.559   2.465  1.1555 -0.3457 -0.3082
 4976TIP3   OH214891   3.477   6.543   1.259  0.3626  0.3640  0.4218
 4976TIP3    H114892   3.457   6.539   1.353  0.4074  0.1585  0.4228
 4976TIP3    H214893   3.444   6.629   1.232  1.2306  0.8326  0.8239
 4977TIP3   OH214894   3.011   4.018   2.788 -0.3496 -0.2722 -0.4206
 4977TIP3    H114895   3.037   4.020   2.696 -1.7274  3.4612 -0.8822
 4977TIP3    H214896   2.946   4.088   2.797 -0.7908 -0.9362  3.2680
 4978TIP3   OH214897   4.118   5.504   0.088 -0.0632  0.2850  0.0308
 4978TIP3    H114898   4.134   5.482   0.179 -2.1240  0.4965  0.4983
 4978TIP3    H214899   4.024   5.523   0.084 -0.1612 -0.3774 -2.2732
 4979TIP3   OH214900   1.661   5.557   3.013 -0.4374  0.7855 -0.5199
 4979TIP3    H114901   1.705   5.623   3.066 -0.9828  2.1654 -1.7356
 4979TIP3    H214902   1.572   5.590   3.001 -1.3156 -1.0813  0.3931
 4980TIP3   OH214903   4.335   3.917   1.829 -0.1181 -0.4128  0.2926
 4980TIP3    H114904   4.402   3.864   1.874 -1.6048 -2.2561  0.4733
 4980TIP3    H214905   4.380   3.951   1.751  0.5454 -3.3910 -0.7758
 4981TIP3   OH214906   3.876   3.174   3.998  0.1724  0.0085  0.4001
 4981TIP3    H114907   3.794   3.139   3.963  0.7804 -0.0927 -0.9979
 4981TIP3    H214908   3.940   3.105   3.981  0.2807 -0.6568  3.0102
 4982TIP3   OH214909   0.278   2.975   2.334 -0.1726 -0.0105 -0.7809
 4982TIP3    H114910   0.354   3.034   2.330 -0.4041  0.3953  0.4694
 4982TIP3    H214911   0.310   2.898   2.383 -0.8421  0.6304  0.7137
 4983TIP3   OH214912   0.920   2.783   3.114 -0.9665 -0.0297 -0.3896
 4983TIP3    H114913   0.843   2.813   3.163 -0.9817  0.3447 -0.6358
 4983TIP3    H214914   0.926   2.843   3.040  0.6857  1.2020  0.6385
 4984TIP3   OH214915   4.387   1.793   0.140  0.4544 -0.0868  0.4304
 4984TIP3    H114916   4.318   1.786   0.206  1.1645  0.1785  1.2160
 4984TIP3    H214917   4.423   1.704   0.134  0.5310 -0.0660  0.5661
 4985TIP3   OH214918   2.622   3.405   1.789  0.0127 -0.1519 -0.1785
 4985TIP3    H114919   2.616   3.494   1.753 -2.4388 -0.3628 -0.4662
 4985TIP3    H214920   2.547   3.399   1.848  0.4329 -1.8704  0.2098
 4986TIP3   OH214921   5.894   6.619   0.265  0.1727  0.0771  0.0100
 4986TIP3    H114922   5.881   6.524   0.271  1.1366 -0.2374 -1.9790
 4986TIP3    H214923   5.817   6.651   0.218  0.9087 -0.1087 -1.3976
 4987TIP3   OH214924   6.880   0.945   2.902 -0.7078 -0.2343  0.1104
 4987TIP3    H114925   6.842   0.901   2.826  0.0719 -1.0752  0.1900
 4987TIP3    H214926   6.913   0.874   2.957  1.2391  0.4382 -0.1015
 4988TIP3   OH214927   2.664   1.516   5.778 -0.1543  0.1990 -0.3173
 4988TIP3    H114928   2.746   1.561   5.756  0.1269 -1.0013 -1.9575
 4988TIP3    H214929   2.692   1.442   5.833 -0.2650  0.3690 -0.0315
 4989TIP3   OH214930   2.279   6.481   1.645 -0.0611 -0.0699 -0.7050
 4989TIP3    H114931   2.185   6.491   1.657 -0.0567 -0.7626  0.0276
 4989TIP3    H214932   2.289   6.454   1.554 -0.5657  0.0652 -0.8028
 4990TIP3   OH214933   4.393   4.318   1.214  0.9294  0.2823  0.1434
 4990TIP3    H114934   4.388   4.344   1.122 -1.2013  0.5955  0.2853
 4990TIP3    H214935   4.481   4.343   1.242  2.4413 -1.7757 -2.3438
 4991TIP3   OH214936   3.224   4.958   0.986  0.5215  0.1219  0.0149
 4991TIP3    H114937   3.291   4.903   0.946  0.7528 -0.5408  1.2688
 4991TIP3    H214938   3.254   4.972   1.076 -0.2328  1.1403  0.1258
 4992TIP3   OH214939   5.790   5.465   4.989  0.3220 -0.0979 -0.4172
 4992TIP3    H114940   5.700   5.484   5.016  0.4575  1.9366 -1.2207
 4992TIP3    H214941   5.818   5.395   5.049 -0.7225  1.3915  1.9810
 4993TIP3   OH214942   3.317   0.656   2.495 -0.6043 -0.0807 -0.1324
 4993TIP3    H114943   3.343   0.596   2.425  0.5811 -0.6784  0.7850
 4993TIP3    H214944   3.253   0.714   2.454 -1.6836 -1.8539 -1.0995
 4994TIP3   OH214945   7.098   5.621   1.247 -0.0409 -0.3500 -0.2414
 4994TIP3    H114946   7.134   5.658   1.328  0.0390 -1.8768  0.4433
 4994TIP3    H214947   7.134   5.677   1.177  0.0595  0.8567  0.7419
 4995TIP3   OH214948   6.462   2.392   3.071 -0.0193 -0.1184  0.5738
 4995TIP3    H114949   6.456   2.302   3.102  2.2731 -0.1429  1.1274
 4995TIP3    H214950   6.543   2.425   3.109  1.2217  0.9404 -2.6510
 4996TIP3   OH214951   4.217   3.966   4.855 -0.0595  0.2373  0.4536
 4996TIP3    H114952   4.225   3.877   4.891  0.8707 -0.2757 -0.9402
 4996TIP3    H214953   4.135   3.999   4.892 -0.1555 -0.9911  1.4210
 4997TIP3   OH214954   0.496   0.033   2.187  0.3054 -0.1954 -0.9011
 4997TIP3    H114955   0.469   0.096   2.120 -0.0401  1.6671  0.8783
 4997TIP3    H214956   0.429  -0.035   2.184 -0.3493  0.4611 -1.6815
 4998TIP3   OH214957   3.927   3.416   5.561 -0.2424 -0.6040  0.6408
 4998TIP3    H114958   4.007   3.453   5.525 -0.4314 -1.4427 -0.6950
 4998TIP3    H214959   3.863   3.486   5.555 -0.0096 -0.4201  0.2961
 4999TIP3   OH214960   1.393   3.474   4.870 -0.1877 -0.3426 -0.1658
 4999TIP3    H114961   1.303   3.456   4.842 -0.4460 -0.8294  0.8983
 4999TIP3    H214962   1.386   3.552   4.925 -0.1116 -0.8891  0.6383
 5000TIP3   OH214963   2.850   2.840   0.716  0.2144  0.2855  0.0152
 5000TIP3    H114964   2.823   2.762   0.667  0.6896  0.0464  0.1292
 5000TIP3    H214965   2.929   2.870   0.672  0.0499  0.6879 -0.0061
 5001TIP3   OH214966   5.539   6.723   3.809 -0.4875 -0.1456 -0.3857
 5001TIP3    H114967   5.493   6.752   3.730 -0.8268 -2.0927 -0.9580
 5001TIP3    H214968   5.540   6.800   3.865 -3.5208  0.3432 -0.7898
 5002TIP3   OH214969   6.155   5.652   5.365  0.0530 -0.0236 -0.1980
 5002TIP3    H114970   6.159   5.608   5.450  1.3209 -1.0431 -0.7612
 5002TIP3    H214971   6.165   5.745   5.386  1.7672 -0.3704  0.6796
 5003TIP3   OH214972   5.064   5.674   5.348  0.2977  0.5285 -0.2494
 5003TIP3    H114973   5.085   5.714   5.432  0.0947  0.0639  0.0259
 5003TIP3    H214974   5.079   5.581   5.362  1.7340  0.5860 -1.1628
 5004TIP3   OH214975   4.911   6.308   0.189 -0.0617 -0.0862 -0.1580
 5004TIP3    H114976   4.874   6.387   0.229  0.7984 -0.2017  0.9270
 5004TIP3    H214977   4.994   6.337   0.152  0.2531 -0.4633  0.2352
 5005TIP3   OH214978   1.020   6.552   0.507  0.3037 -0.4658 -0.4616
 5005TIP3    H114979   0.989   6.641   0.493 -1.6761 -1.1585 -0.7606
 5005TIP3    H214980   1.084   6.560   0.578 -0.5051  1.0689  0.1461
 5006TIP3   OH214981   6.295   4.234   3.284 -0.2626  0.2109  0.5480
 5006TIP3    H114982   6.262   4.322   3.264 -1.6974 -0.6474 -1.1529
 5006TIP3    H214983   6.290   4.187   3.200  1.1702 -1.2997  1.2523
 5007TIP3   OH214984   5.378   3.973   1.205  0.3892 -0.4620 -0.7495
 5007TIP3    H114985   5.322   3.917   1.259  0.2978 -0.3082 -0.6849
 5007TIP3    H214986   5.320   4.009   1.138  0.4391 -0.4133 -0.7668
 5008TIP3   OH214987   4.053   2.482   0.586 -0.0619 -0.2883 -0.4527
 5008TIP3    H114988   4.036   2.516   0.673 -0.9253  0.4347 -0.8844
 5008TIP3    H214989   4.099   2.400   0.600  1.5501  0.7449  0.6371
 5009TIP3   OH214990   5.166  -0.003   1.442 -0.0534  0.3140 -0.1861
 5009TIP3    H114991   5.176   0.054   1.518 -0.7688 -0.1481  0.2575
 5009TIP3    H214992   5.083  -0.049   1.456  0.9121 -1.4971 -0.1103
 5010TIP3   OH214993   4.275   6.108   0.272  0.0189 -0.4973  0.5830
 5010TIP3    H114994   4.353   6.053   0.281  0.1688 -0.4148 -0.2005
 5010TIP3    H214995   4.292   6.163   0.196 -0.9173 -0.6714  0.2355
 5011TIP3   OH214996   4.253   6.395   3.260 -0.2188  0.0296 -0.2910
 5011TIP3    H114997   4.288   6.330   3.321 -0.2683 -0.1611 -0.4669
 5011TIP3    H214998   4.288   6.369   3.175 -1.9043 -0.9944 -0.7170
 5012TIP3   OH214999   7.156   3.621   0.033  0.7291  0.4243 -0.5902
 5012TIP3    H115000   7.075   3.667   0.054 -0.4589 -1.2506 -1.3353
 5012TIP3    H215001   7.165   3.630  -0.062  2.1435  1.6993 -0.3721
 5013TIP3   OH215002   5.255   5.952   5.152 -0.3920  0.4887 -0.1653
 5013TIP3    H115003   5.228   6.005   5.078 -3.3535  2.6921  2.2099
 5013TIP3    H215004   5.173   5.929   5.196  1.1198 -2.0132  1.6354
 5014TIP3   OH215005   6.179   3.970   2.144  0.4361  0.7504  0.4964
 5014TIP3    H115006   6.127   3.942   2.068  0.2122  1.3003  0.4396
 5014TIP3    H215007   6.153   3.911   2.214  3.2688 -2.2266 -0.6882
 5015TIP3   OH215008   3.644   4.596   0.610 -0.1634 -0.3396  0.4919
 5015TIP3    H115009   3.626   4.681   0.650 -0.1956  0.0902 -0.3987
 5015TIP3    H215010   3.558   4.559   0.592 -0.2416  0.7550 -1.7778
 5016TIP3   OH215011   0.705   4.808   5.820 -0.2346  1.1525 -0.7149
 5016TIP3    H115012   0.745   4.892   5.839  3.0225 -0.4503  0.2938
 5016TIP3    H215013   0.748   4.747   5.880  0.9696 -2.0333 -4.4106
 5017TIP3   OH215014   3.874   1.430   3.389 -0.2876 -0.0346  0.2201
 5017TIP3    H115015   3.863   1.372   3.465  1.8547 -1.1916 -0.2589
 5017TIP3    H215016   3.804   1.405   3.329 -0.3712 -1.0166  0.7054
 5018TIP3   OH215017   3.711   3.696   5.291 -0.4261  0.1594  0.0171
 5018TIP3    H115018   3.701   3.640   5.214  2.0583  0.2778 -0.4722
 5018TIP3    H215019   3.674   3.645   5.363  0.0790 -1.3272 -0.7446
 5019TIP3   OH215020   2.825   0.466   4.778  0.0247  0.1130 -0.0911
 5019TIP3    H115021   2.784   0.546   4.747 -0.4224 -0.0853 -0.0194
 5019TIP3    H215022   2.844   0.416   4.698 -0.8850 -0.2801 -0.0724
 5020TIP3   OH215023   1.658   1.117   1.186  0.5283 -0.1838 -0.0804
 5020TIP3    H115024   1.711   1.103   1.107  0.7002  0.4211 -0.0809
 5020TIP3    H215025   1.569   1.097   1.158  0.5978 -0.0479 -0.4106
 5021TIP3   OH215026   0.174   3.364   2.510 -0.5282  0.4378 -0.1357
 5021TIP3    H115027   0.238   3.379   2.441 -1.7289  0.5684 -1.2579
 5021TIP3    H215028   0.114   3.438   2.503 -0.9492  0.1856  0.7243
 5022TIP3   OH215029   1.874   4.036   3.473  0.5252 -0.7662 -0.4692
 5022TIP3    H115030   1.924   3.982   3.534  0.3297 -0.2530  0.1660
 5022TIP3    H215031   1.923   4.033   3.391  1.9203  0.1804  0.2839
 5023TIP3   OH215032   3.606   3.723   2.579  0.0265  0.3459 -0.4393
 5023TIP3    H115033   3.635   3.633   2.597  1.1839  0.6339 -0.8176
 5023TIP3    H215034   3.513   3.723   2.603  0.2029 -0.7361  0.3199
 5024TIP3   OH215035   5.294   5.867   1.719  0.5330  0.2429  0.3951
 5024TIP3    H115036   5.272   5.905   1.804 -2.8699 -0.7353  0.0955
 5024TIP3    H215037   5.274   5.937   1.656 -0.3048 -0.1617  0.2035
 5025TIP3   OH215038   2.702   4.246   5.012  0.5694 -0.3854 -0.2031
 5025TIP3    H115039   2.677   4.327   5.055 -1.1400 -0.9681 -0.0131
 5025TIP3    H215040   2.627   4.223   4.957  1.5958 -1.1010 -1.3902
 5026TIP3   OH215041   4.704   1.021   5.264  0.9599  0.2299  0.2884
 5026TIP3    H115042   4.753   1.005   5.183 -2.1896  2.2555 -2.2744
 5026TIP3    H215043   4.672   0.935   5.290  1.2616 -0.3662 -1.1866
 5027TIP3   OH215044   5.503   2.405   2.907 -0.1554 -0.6616  0.1367
 5027TIP3    H115045   5.416   2.364   2.911 -0.3039 -0.4747 -0.8574
 5027TIP3    H215046   5.491   2.480   2.849  0.6713 -0.6218  0.0130
 5028TIP3   OH215047   4.723   1.069   5.564  0.0844  0.2646 -0.2213
 5028TIP3    H115048   4.700   1.054   5.473 -1.1075  2.5114 -0.3621
 5028TIP3    H215049   4.671   1.146   5.590  1.1046  0.2731  2.0574
 5029TIP3   OH215050   2.867   5.428   5.334  0.3294 -0.2461  0.2424
 5029TIP3    H115051   2.828   5.507   5.372  1.1196  0.2757  0.0118
 5029TIP3    H215052   2.943   5.461   5.286  0.7014 -1.1631  0.1896
 5030TIP3   OH215053   6.821   2.349   1.576 -0.0704  0.0423  0.2057
 5030TIP3    H115054   6.857   2.364   1.489 -0.5754  1.2357  0.1803
 5030TIP3    H215055   6.854   2.422   1.629 -1.1523  0.3040  0.5620
 5031TIP3   OH215056   5.728   3.036   2.036  0.2793 -0.1424 -0.1544
 5031TIP3    H115057   5.669   2.961   2.031 -0.4420  0.4333 -0.4771
 5031TIP3    H215058   5.739   3.065   1.946 -0.6305  1.0231  0.0723
 5032TIP3   OH215059   1.957   3.274   5.199 -0.3667 -0.0653 -0.6375
 5032TIP3    H115060   1.904   3.224   5.261 -1.3806  1.6261 -0.0574
 5032TIP3    H215061   1.899   3.290   5.125  0.7500 -1.8281 -1.9855
 5033TIP3   OH215062   3.975   3.299   1.376 -0.5076  0.0163 -0.1475
 5033TIP3    H115063   4.034   3.229   1.404  1.2822  0.3219 -2.8516
 5033TIP3    H215064   4.011   3.378   1.415 -0.7875 -0.1570  0.4735
 5034TIP3   OH215065   1.958   0.105   0.878  0.0526  0.2996 -0.1891
 5034TIP3    H115066   2.007   0.037   0.925  0.9319 -0.1568 -1.6935
 5034TIP3    H215067   1.922   0.160   0.947 -1.0803 -1.9242  1.1281
 5035TIP3   OH215068   1.530   4.061   2.283 -0.2232 -0.4807  0.0743
 5035TIP3    H115069   1.623   4.052   2.305  0.2204  0.2036 -1.3970
 5035TIP3    H215070   1.515   4.155   2.281 -0.6585 -0.5626 -0.7893
 5036TIP3   OH215071   5.459   2.417   3.196  0.3121 -0.8360 -0.3861
 5036TIP3    H115072   5.549   2.448   3.209 -0.5605  1.0197  1.7590
 5036TIP3    H215073   5.442   2.433   3.103  2.3318 -1.7497 -0.9766
 5037TIP3   OH215074   3.756   0.402   3.748 -0.2087  0.3940  0.4381
 5037TIP3    H115075   3.748   0.353   3.667  0.5595 -0.7617  1.0264
 5037TIP3    H215076   3.839   0.449   3.740  0.0994 -0.0857  0.7187
 5038TIP3   OH215077   0.119   5.688   4.279 -0.7009  0.4560 -0.1896
 5038TIP3    H115078   0.158   5.776   4.281 -1.6065  0.9207 -1.4817
 5038TIP3    H215079   0.186   5.632   4.318  1.0326  1.3219 -1.7258
 5039TIP3   OH215080   1.556   4.973   5.629  0.2093 -0.2519  0.0616
 5039TIP3    H115081   1.629   4.925   5.668 -1.7024 -3.4335  0.0603
 5039TIP3    H215082   1.570   4.966   5.535  0.2401 -0.3056  0.0701
 5040TIP3   OH215083   6.516   4.366   2.072  0.0026 -0.1714 -0.3866
 5040TIP3    H115084   6.611   4.358   2.082  0.2162  0.9724 -1.3557
 5040TIP3    H215085   6.483   4.277   2.084  1.0170 -0.3441  1.6311
 5041TIP3   OH215086   5.143   5.456   0.122  0.2171 -0.3234  0.4438
 5041TIP3    H115087   5.127   5.363   0.106  1.0710 -0.1010 -2.1882
 5041TIP3    H215088   5.234   5.469   0.095  0.2105  1.2340  1.0679
 5042TIP3   OH215089   3.402   6.157   4.638  0.6656 -0.3903 -0.6343
 5042TIP3    H115090   3.493   6.176   4.659  1.0648 -1.3424 -1.3920
 5042TIP3    H215091   3.352   6.197   4.708  1.3961  3.1982 -1.9801
 5043TIP3   OH215092   6.209   0.465   1.672  0.3478 -0.1168  0.0387
 5043TIP3    H115093   6.202   0.499   1.583  1.0504 -1.0510 -0.3967
 5043TIP3    H215094   6.119   0.447   1.698  0.1178  0.4122 -0.3833
 5044TIP3   OH215095   4.768   2.868   0.774 -0.2768 -0.1182 -0.1898
 5044TIP3    H115096   4.805   2.803   0.715 -0.0162  0.0429 -0.2091
 5044TIP3    H215097   4.714   2.818   0.835  0.2070 -0.3919  0.0157
 5045TIP3   OH215098   0.691   6.786   2.935  0.3329 -0.1403  0.8528
 5045TIP3    H115099   0.646   6.776   3.018 -0.1052  0.4620  0.6948
 5045TIP3    H215100   0.782   6.763   2.954  0.2038 -0.1578  1.4561
 5046TIP3   OH215101   5.915   1.775   5.433 -0.6138 -0.1680  0.1321
 5046TIP3    H115102   5.828   1.737   5.447 -0.6359 -1.5154 -2.8849
 5046TIP3    H215103   5.901   1.844   5.368  0.5864 -0.4851 -0.4853
 5047TIP3   OH215104   0.562   4.780   4.359 -0.7860  0.1454 -0.2822
 5047TIP3    H115105   0.509   4.795   4.281  0.0605 -3.6867 -1.7938
 5047TIP3    H215106   0.645   4.823   4.341 -0.5607 -0.7852 -1.6325
 5048TIP3   OH215107   6.330   4.723   5.186 -0.3101 -0.4353  0.3510
 5048TIP3    H115108   6.357   4.752   5.274 -0.7589  0.2797  0.2576
 5048TIP3    H215109   6.320   4.804   5.136 -1.1057 -0.7755 -0.0574
 5049TIP3   OH215110   2.775   0.153   1.282 -0.2032  0.2378 -0.2762
 5049TIP3    H115111   2.688   0.187   1.262 -0.4288  0.1275  0.4789
 5049TIP3    H215112   2.835   0.218   1.245 -0.5763 -0.2790 -1.8491
 5050TIP3   OH215113   5.794   1.793   1.706 -0.2176 -0.1541 -0.2405
 5050TIP3    H115114   5.840   1.876   1.710 -0.2781 -0.1663  2.0638
 5050TIP3    H215115   5.707   1.812   1.743 -1.5529 -0.5026 -2.9455
 5051TIP3   OH215116   2.310   3.970   4.310  0.2849 -0.2080  0.6101
 5051TIP3    H115117   2.237   4.019   4.346 -1.9185 -1.5256 -1.7034
 5051TIP3    H215118   2.284   3.878   4.320  1.7913 -0.7236  0.0524
 5052TIP3   OH215119   3.573   2.400   2.089  0.4225  0.6008 -0.0106
 5052TIP3    H115120   3.643   2.465   2.081 -0.8190  1.7810 -2.5220
 5052TIP3    H215121   3.605   2.325   2.039  0.5800  0.4939  0.2511
 5053TIP3   OH215122   0.269   1.249   0.407  0.2934  0.5089 -0.1185
 5053TIP3    H115123   0.204   1.235   0.338  1.7474 -0.8684 -1.3109
 5053TIP3    H215124   0.311   1.332   0.383  1.6688 -0.5719 -1.7482
 5054TIP3   OH215125   6.061   3.269   4.502  0.6733  0.1664  0.6983
 5054TIP3    H115126   5.979   3.299   4.461  0.5094 -0.5436  0.5021
 5054TIP3    H215127   6.035   3.242   4.590  0.7889  0.4170  0.8104
 5055TIP3   OH215128   3.563   3.103   1.333 -0.7457 -0.0057  0.0801
 5055TIP3    H115129   3.609   3.187   1.337  0.3898 -0.6209  0.4545
 5055TIP3    H215130   3.544   3.091   1.240 -2.5877  1.5012  0.2015
 5056TIP3   OH215131   0.599   5.588   5.765 -0.4494  0.3962 -0.0521
 5056TIP3    H115132   0.554   5.580   5.849 -0.6032 -1.5386 -0.2938
 5056TIP3    H215133   0.528   5.585   5.700 -0.1020 -1.4331 -0.3775
 5057TIP3   OH215134   3.626   1.759   1.533  0.1581 -0.0829  0.2281
 5057TIP3    H115135   3.679   1.792   1.461  0.9903  0.2090  0.9548
 5057TIP3    H215136   3.603   1.670   1.507  0.7305 -0.0961 -0.2460
 5058TIP3   OH215137   5.556   0.153   5.302 -0.3039 -0.4131 -0.0524
 5058TIP3    H115138   5.496   0.185   5.235 -1.5530 -0.9792  0.7663
 5058TIP3    H215139   5.643   0.163   5.263 -0.9672 -0.3010 -1.5682
 5059TIP3   OH215140   3.624   6.359   5.230 -0.0906  0.1028  0.8532
 5059TIP3    H115141   3.675   6.301   5.286 -2.0257 -3.8869 -1.1718
 5059TIP3    H215142   3.671   6.361   5.147 -0.5534  0.6645  0.5951
 5060TIP3   OH215143   0.167   0.816   5.556 -0.2165  0.1455  0.1390
 5060TIP3    H115144   0.231   0.746   5.564 -0.7275 -0.2445  0.9218
 5060TIP3    H215145   0.156   0.828   5.461  0.6390 -0.1148 -0.0004
 5061TIP3   OH215146   0.868   0.513   3.468 -0.3126 -0.0693 -0.0959
 5061TIP3    H115147   0.913   0.557   3.540 -1.8674 -1.0179  1.5311
 5061TIP3    H215148   0.794   0.569   3.448 -0.6805 -0.5056  0.0261
 5062TIP3   OH215149   6.362   4.037   0.235 -0.1763  0.1686 -0.5461
 5062TIP3    H115150   6.420   4.074   0.301 -0.6626 -0.1579  0.0742
 5062TIP3    H215151   6.345   4.110   0.175 -2.0598  1.3630  1.2925
 5063TIP3   OH215152   1.952   5.760   4.143 -0.3873  0.1168 -0.2642
 5063TIP3    H115153   1.938   5.681   4.090  1.1541 -0.2714 -0.1184
 5063TIP3    H215154   1.930   5.832   4.084  0.5089 -0.3425 -1.1845
 5064TIP3   OH215155   5.072   4.466   1.124 -0.1553  0.2239  0.0799
 5064TIP3    H115156   5.126   4.544   1.120 -1.3396  1.1153  0.7280
 5064TIP3    H215157   5.034   4.468   1.212  2.0772 -2.6876  1.2755
 5065TIP3   OH215158   5.722   3.762   2.200  0.6115  0.1043 -0.6177
 5065TIP3    H115159   5.707   3.775   2.293  0.0695 -0.1225 -0.6725
 5065TIP3    H215160   5.732   3.667   2.190 -1.7931 -0.1393 -1.1363
 5066TIP3   OH215161   0.726   5.389   1.996 -0.0636 -0.5072 -0.0528
 5066TIP3    H115162   0.786   5.409   1.924  0.9623  0.4179  1.0186
 5066TIP3    H215163   0.697   5.299   1.979 -0.9311  0.1395 -2.3391
 5067TIP3   OH215164   4.970   2.008   0.493  0.0535 -0.6592  0.4405
 5067TIP3    H115165   5.052   2.028   0.539  0.6803 -1.9844 -0.0488
 5067TIP3    H215166   4.966   2.073   0.423  0.7080 -0.5946  0.4542
 5068TIP3   OH215167   3.286   1.618   5.632 -0.3559  0.2095 -0.1069
 5068TIP3    H115168   3.290   1.532   5.590 -0.6871  1.4242 -2.8741
 5068TIP3    H215169   3.193   1.639   5.635 -0.1952  1.3146 -1.4991
 5069TIP3   OH215170   0.433   3.855   1.606  0.1908 -0.3877  0.1909
 5069TIP3    H115171   0.441   3.784   1.670 -1.0053 -1.3282 -0.6609
 5069TIP3    H215172   0.366   3.912   1.643 -0.6903 -1.0687 -0.3032
 5070TIP3   OH215173   4.378   4.650   1.223  0.3104  0.4430  0.3544
 5070TIP3    H115174   4.447   4.612   1.168  0.0378  0.5985 -0.1041
 5070TIP3    H215175   4.395   4.615   1.310  0.4116 -0.2735  0.0574
 5071TIP3   OH215176   0.433   5.000   0.154 -0.1300 -0.0825  0.3531
 5071TIP3    H115177   0.507   5.041   0.110 -1.6074  2.4648  0.0261
 5071TIP3    H215178   0.411   4.925   0.099  1.3629 -0.1073 -0.2625
 5072TIP3   OH215179   1.413   1.150   4.747 -0.0178  0.5457  0.6907
 5072TIP3    H115180   1.488   1.143   4.806 -0.6029 -0.6107  1.3258
 5072TIP3    H215181   1.427   1.081   4.682 -0.3209  0.5926  0.5749
 5073TIP3   OH215182   4.770   5.528   1.941 -0.1938  0.2117  0.6830
 5073TIP3    H115183   4.766   5.547   2.035  0.9013 -1.0328  0.9947
 5073TIP3    H215184   4.856   5.560   1.914 -1.1294  2.0769 -0.2834
 5074TIP3   OH215185   6.510   1.941   2.902  0.1190  0.0059  0.3177
 5074TIP3    H115186   6.535   1.993   2.825 -1.1694  0.0957 -0.0592
 5074TIP3    H215187   6.492   2.007   2.969 -1.2010  0.0540 -0.0648
 5075TIP3   OH215188   4.625   4.391   3.397 -0.0577 -0.1836  0.2868
 5075TIP3    H115189   4.543   4.358   3.434 -0.4123 -0.0391 -0.3588
 5075TIP3    H215190   4.601   4.425   3.311  0.1452  2.3048  1.1061
 5076TIP3   OH215191   0.298   3.801   1.116  0.6622  0.4497  0.0017
 5076TIP3    H115192   0.361   3.737   1.083  1.7407  0.6497  1.5599
 5076TIP3    H215193   0.264   3.844   1.037  1.7076 -0.3773 -0.9307
 5077TIP3   OH215194   1.861   5.072   4.292  0.6316 -0.5479  0.1721
 5077TIP3    H115195   1.779   5.103   4.332  0.5061 -1.1449  0.3879
 5077TIP3    H215196   1.930   5.114   4.343  0.4768  0.9561 -0.7892
 5078TIP3   OH215197   2.822   1.426   2.463  0.8941  0.0888 -0.2315
 5078TIP3    H115198   2.846   1.348   2.413 -2.1339 -1.0985 -0.0908
 5078TIP3    H215199   2.850   1.407   2.552 -0.2199 -1.1422 -0.0995
 5079TIP3   OH215200   1.442   6.308   1.541 -0.4320  0.4273  0.0452
 5079TIP3    H115201   1.405   6.373   1.481 -3.8417 -2.6801 -1.5998
 5079TIP3    H215202   1.517   6.272   1.495 -1.4192 -0.0578 -1.2483
 5080TIP3   OH215203   1.712   2.467   4.634 -0.6731  0.4704 -0.2738
 5080TIP3    H115204   1.686   2.448   4.724 -1.4167  1.6449 -0.2248
 5080TIP3    H215205   1.640   2.433   4.580 -0.5522  0.3832 -0.3806
 5081TIP3   OH215206   6.028   4.845   5.342  0.1756  0.0622  0.1246
 5081TIP3    H115207   6.089   4.801   5.284 -0.0634  0.5968 -0.5419
 5081TIP3    H215208   6.039   4.801   5.427  0.3421 -0.8833 -0.3807
 5082TIP3   OH215209   3.195   6.358   3.537 -0.0416  0.4704  0.4452
 5082TIP3    H115210   3.125   6.418   3.562 -0.3776 -0.5210  1.9634
 5082TIP3    H215211   3.255   6.357   3.611 -0.1760 -1.2415  0.5844
 5083TIP3   OH215212   4.487   5.248   3.646 -0.2054  0.1473  0.1122
 5083TIP3    H115213   4.439   5.249   3.729  0.3426 -1.9602  0.5207
 5083TIP3    H215214   4.420   5.231   3.580 -0.2714 -1.3035  0.5156
 5084TIP3   OH215215   5.111   0.954   2.112 -0.1947 -0.2297  0.3250
 5084TIP3    H115216   5.110   0.877   2.169  0.4736  0.4220  1.2352
 5084TIP3    H215217   5.041   1.010   2.146  0.7723  0.5519  1.0792
 5085TIP3   OH215218   0.111   2.495   4.199 -0.6264  0.0516 -0.4765
 5085TIP3    H115219   0.132   2.584   4.229  1.7374  0.0377 -1.8609
 5085TIP3    H215220   0.071   2.508   4.113 -0.3900 -0.2367 -0.6273
 5086TIP3   OH215221   5.195   3.500   2.929  0.0867  0.1393 -0.1229
 5086TIP3    H115222   5.160   3.520   2.842  0.6429  2.8887  0.1971
 5086TIP3    H215223   5.271   3.557   2.938 -0.0673  0.0780  2.2422
 5087TIP3   OH215224   1.011   1.666   3.750 -0.0064  0.0430 -0.1374
 5087TIP3    H115225   1.020   1.578   3.713 -1.1405 -0.2807  0.3177
 5087TIP3    H215226   1.091   1.712   3.723  0.3474 -0.9559 -0.8376
 5088TIP3   OH215227   2.224   6.409   5.640 -0.1371  0.0617 -0.3100
 5088TIP3    H115228   2.259   6.476   5.580 -1.6014  2.4330  1.3047
 5088TIP3    H215229   2.129   6.413   5.627 -0.4259  0.0256  1.4970
 5089TIP3   OH215230   3.745   4.479   1.496 -0.1187  0.5147  0.4448
 5089TIP3    H115231   3.771   4.528   1.418 -0.5796  0.9008  0.5290
 5089TIP3    H215232   3.654   4.453   1.479 -0.0084  0.0417  0.5742
 5090TIP3   OH215233   3.359   1.044   5.880  0.2921  0.1696 -0.5041
 5090TIP3    H115234   3.439   1.096   5.871  0.4552  0.2412  1.0465
 5090TIP3    H215235   3.386   0.955   5.860  0.9382  0.0864  0.6727
 5091TIP3   OH215236   0.304   1.462   3.841  0.2201 -0.0234  0.3919
 5091TIP3    H115237   0.220   1.501   3.816  0.1668 -0.5786 -0.3143
 5091TIP3    H215238   0.368   1.530   3.819  0.0492  0.0147 -0.0038
 5092TIP3   OH215239   4.485   5.565   0.281  0.1178 -0.2731  0.0105
 5092TIP3    H115240   4.486   5.484   0.331 -1.8000 -0.0137  0.5228
 5092TIP3    H215241   4.393   5.579   0.258 -0.2643  3.4977  2.8617
 5093TIP3   OH215242   1.249   4.278   5.597 -0.0626  0.4508 -0.4882
 5093TIP3    H115243   1.169   4.255   5.549  0.6245  0.3323 -1.6261
 5093TIP3    H215244   1.320   4.240   5.545  0.7316  0.3933  0.5971
 5094TIP3   OH215245   4.952   4.256   0.309  0.1060 -0.0313  0.3855
 5094TIP3    H115246   4.964   4.236   0.216  1.9594 -1.2115  0.8216
 5094TIP3    H215247   4.861   4.232   0.327  0.4441 -2.3460 -0.5872
 5095TIP3   OH215248   3.672   5.028   3.782  0.3364 -0.7647 -0.1061
 5095TIP3    H115249   3.700   5.078   3.706  1.6012 -2.0277 -0.5106
 5095TIP3    H215250   3.621   4.955   3.745  1.1129 -1.4885  0.2215
 5096TIP3   OH215251   2.169   0.933   1.526 -0.8996  0.6481 -0.0690
 5096TIP3    H115252   2.257   0.969   1.541 -0.8095  1.4249 -2.0730
 5096TIP3    H215253   2.178   0.840   1.548  1.0806  0.2283 -2.1186
 5097TIP3   OH215254   1.653   6.392   5.392  0.0570 -0.5662  0.0615
 5097TIP3    H115255   1.717   6.331   5.354 -0.7798 -2.1940  1.1264
 5097TIP3    H215256   1.601   6.338   5.451 -0.1752  1.3893  1.7525
 5098TIP3   OH215257   0.324   2.878   0.956 -0.1965 -0.0338 -0.4231
 5098TIP3    H115258   0.249   2.855   0.900 -1.0424  1.6161 -0.0309
 5098TIP3    H215259   0.298   2.960   0.998  1.1036 -0.3689  1.1306
 5099TIP3   OH215260   0.090   1.756   2.566 -0.3529  0.1218  0.1077
 5099TIP3    H115261   0.050   1.669   2.561  0.3557 -0.1932 -0.3121
 5099TIP3    H215262   0.178   1.744   2.530  0.5321  0.5531  2.0153
 5100TIP3   OH215263   6.696   1.100   1.218 -0.1693  0.0986 -0.0520
 5100TIP3    H115264   6.632   1.046   1.263  0.5634  1.9359  3.6058
 5100TIP3    H215265   6.780   1.059   1.238  0.0700 -0.3932 -1.9201
 5101TIP3   OH215266   6.909   1.198   0.724 -0.1353 -0.1226 -0.1028
 5101TIP3    H115267   6.966   1.256   0.674 -0.2245 -0.4428 -0.5822
 5101TIP3    H215268   6.874   1.137   0.659  1.7554 -2.1976  0.7118
 5102TIP3   OH215269   6.407   1.907   4.329 -0.3012 -0.1400  0.3145
 5102TIP3    H115270   6.447   1.884   4.412  0.2488 -0.2692  0.0202
 5102TIP3    H215271   6.421   1.830   4.273 -2.5762 -0.9576  0.7385
 5103TIP3   OH215272   3.225   2.803   5.883  0.3668 -0.7145  0.2163
 5103TIP3    H115273   3.306   2.766   5.847  0.1045 -0.1143 -1.0640
 5103TIP3    H215274   3.162   2.732   5.878 -0.2767 -0.0658 -2.7120
 5104TIP3   OH215275   2.597   5.540   1.288 -0.1998  0.5278  0.3981
 5104TIP3    H115276   2.539   5.547   1.364  0.1691 -0.1083  0.7448
 5104TIP3    H215277   2.544   5.573   1.215 -1.2549 -0.6702  0.5835
 5105TIP3   OH215278   6.720   1.236   3.516  0.2226  0.3218 -0.2985
 5105TIP3    H115279   6.706   1.150   3.556  0.5365 -0.2228 -1.3162
 5105TIP3    H215280   6.705   1.299   3.587 -1.0844 -0.5189  0.1899
 5106TIP3   OH215281   5.587   5.989   1.371 -0.0643 -0.0013  0.2502
 5106TIP3    H115282   5.613   5.942   1.292  0.9500  0.2251  0.4353
 5106TIP3    H215283   5.495   5.966   1.383 -0.1163 -0.3815 -0.7513
 5107TIP3   OH215284   0.092   4.077   3.661  0.6856  0.0306 -0.3293
 5107TIP3    H115285   0.033   4.110   3.729  1.7635  1.6253 -0.1235
 5107TIP3    H215286   0.034   4.031   3.599 -0.7356  1.2771  0.0266
 5108TIP3   OH215287   4.492   4.636   4.418  0.3764 -0.0683  0.3222
 5108TIP3    H115288   4.452   4.551   4.436 -1.5570  0.7347 -0.0326
 5108TIP3    H215289   4.471   4.655   4.327  0.0362  1.1583  0.6289
 5109TIP3   OH215290   4.720   4.827   4.068  0.1318  1.0003 -0.3768
 5109TIP3    H115291   4.760   4.776   3.998 -2.2551  0.2214 -1.2731
 5109TIP3    H215292   4.700   4.912   4.027  0.0123  1.0437 -0.2309
 5110TIP3   OH215293   0.842   1.946   1.649 -0.6716  0.0324 -0.3440
 5110TIP3    H115294   0.846   1.863   1.602  0.1180 -0.3025  0.2852
 5110TIP3    H215295   0.934   1.972   1.659 -0.9239  2.6653 -3.4176
 5111TIP3   OH215296   2.688   6.776   2.980  0.2002 -0.1255 -0.0355
 5111TIP3    H115297   2.716   6.695   3.021 -1.6450 -0.9354 -0.2880
 5111TIP3    H215298   2.764   6.805   2.929  0.2875 -2.7150 -1.5086
 5112TIP3   OH215299   6.839   4.903   0.475  0.8312 -0.3493  0.5410
 5112TIP3    H115300   6.822   4.981   0.527 -1.7033 -0.9636  0.7591
 5112TIP3    H215301   6.881   4.842   0.535  0.2511 -0.1475  1.1598
 5113TIP3   OH215302   5.101   5.327   5.860  0.6546  0.4820 -1.0713
 5113TIP3    H115303   5.017   5.307   5.819 -0.5099 -0.0681  1.4050
 5113TIP3    H215304   5.125   5.248   5.908  0.1535  2.0795  2.0923
 5114TIP3   OH215305   5.948   3.086   3.405  0.1091 -0.1222  0.1006
 5114TIP3    H115306   5.877   3.122   3.351  1.1848  1.5292 -0.2927
 5114TIP3    H215307   5.905   3.057   3.485 -0.9598  1.3484  0.0949
 5115TIP3   OH215308   3.403   5.923   2.730 -0.0641 -0.0750  0.4879
 5115TIP3    H115309   3.485   5.949   2.687 -1.5473  0.2768 -2.4041
 5115TIP3    H215310   3.403   5.827   2.727  0.6408 -0.1114  1.3769
 5116TIP3   OH215311   6.964   3.737   5.122  0.0247  0.0707  0.2185
 5116TIP3    H115312   6.987   3.816   5.074 -0.9149 -0.6260 -1.4745
 5116TIP3    H215313   6.965   3.763   5.214  0.3221  1.8764 -0.2632
 5117TIP3   OH215314   3.581   2.406   1.143  0.2880  0.2747 -0.0185
 5117TIP3    H115315   3.498   2.418   1.189 -0.9430 -0.8094 -1.8238
 5117TIP3    H215316   3.596   2.490   1.100  0.6496  0.7859  1.0693
 5118TIP3   OH215317   2.349   6.043   4.128 -0.1523 -0.0949  0.0057
 5118TIP3    H115318   2.363   5.950   4.110 -0.3134 -0.3554  1.1076
 5118TIP3    H215319   2.436   6.077   4.149 -0.0238  0.1146 -0.8607
 5119TIP3   OH215320   4.571   0.733   0.543 -0.3077  0.6172 -0.1470
 5119TIP3    H115321   4.489   0.753   0.589  0.9449  1.9856  1.6131
 5119TIP3    H215322   4.617   0.673   0.601 -0.2352 -0.6020 -1.3951
 5120TIP3   OH215323   1.012   2.831   2.614 -0.1451  0.8132 -0.7081
 5120TIP3    H115324   1.076   2.887   2.658 -0.2816  1.6094 -1.4989
 5120TIP3    H215325   0.953   2.892   2.571  0.3284  0.0628 -2.4830
 5121TIP3   OH215326   7.062   3.897   2.043  0.2654 -0.1638  0.1314
 5121TIP3    H115327   7.057   3.825   1.980 -0.4954 -0.6505  0.7228
 5121TIP3    H215328   7.048   3.976   1.991 -3.4361 -0.7140  0.0036
 5122TIP3   OH215329   3.500   4.579   1.068  0.2969 -0.1037 -0.0649
 5122TIP3    H115330   3.592   4.555   1.054 -0.0188 -0.9473 -0.7626
 5122TIP3    H215331   3.452   4.499   1.050 -0.5323  0.1221  1.0449
 5123TIP3   OH215332   5.710   3.684   2.841 -0.3004 -0.9125  0.4232
 5123TIP3    H115333   5.779   3.672   2.906 -0.5235  1.5846  1.2082
 5123TIP3    H215334   5.745   3.749   2.780 -0.7537 -1.9715 -1.0199
 5124TIP3   OH215335   0.114   0.238   1.967  1.2257  0.0623 -0.0016
 5124TIP3    H115336   0.071   0.319   1.940  0.7852 -0.6285 -1.4981
 5124TIP3    H215337   0.180   0.265   2.031  2.3913  1.8543 -1.8699
 5125TIP3   OH215338   2.858   5.517   3.543 -0.1112  0.1421  0.3470
 5125TIP3    H115339   2.828   5.434   3.579 -0.4435  0.5840  1.1240
 5125TIP3    H215340   2.873   5.572   3.620 -1.4244  1.3148 -0.1925
 5126TIP3   OH215341   6.040   0.994   5.150  0.5234 -0.4206 -0.1245
 5126TIP3    H115342   6.013   1.068   5.206  1.0303  0.4977 -1.0648
 5126TIP3    H215343   6.131   1.013   5.127  0.7209 -1.4449 -0.2393
 5127TIP3   OH215344   5.138   0.259   2.157 -0.4708 -0.6058  0.0824
 5127TIP3    H115345   5.148   0.192   2.089  1.6474  0.1066 -0.3813
 5127TIP3    H215346   5.159   0.213   2.238 -2.6961 -1.3773  0.3088
 5128TIP3   OH215347   1.548   0.610   1.795  0.0359  0.3004  0.0793
 5128TIP3    H115348   1.584   0.691   1.761  2.0244  0.0900  1.5162
 5128TIP3    H215349   1.453   0.623   1.795  0.2860  2.3393 -0.3561
 5129TIP3   OH215350   3.608   6.421   4.262  0.2493  0.4404  0.0026
 5129TIP3    H115351   3.569   6.409   4.175  0.7337  0.3972 -0.2133
 5129TIP3    H215352   3.555   6.489   4.303  1.3963  2.1827 -1.2214
 5130TIP3   OH215353   3.803   4.734   1.670  0.0027  0.4956  0.4081
 5130TIP3    H115354   3.888   4.691   1.662 -0.6461 -0.9537  0.8317
 5130TIP3    H215355   3.784   4.767   1.583  0.0975 -0.9907 -0.2084
 5131TIP3   OH215356   0.072   2.347   5.674 -0.1960 -0.1453  0.1697
 5131TIP3    H115357   0.095   2.436   5.697 -1.0206  0.0908  0.1186
 5131TIP3    H215358   0.035   2.310   5.755  1.4491 -0.9107  0.6041
 5132TIP3   OH215359   3.815   3.246   0.330 -0.2028 -0.2625  0.6638
 5132TIP3    H115360   3.851   3.314   0.274 -1.3929  0.1317  0.3638
 5132TIP3    H215361   3.777   3.182   0.270  1.3736 -1.5174  0.9110
 5133TIP3   OH215362   2.798   4.255   2.092  0.2580 -0.0404  0.7814
 5133TIP3    H115363   2.853   4.198   2.039 -1.3623  0.8861 -2.1188
 5133TIP3    H215364   2.724   4.199   2.117 -0.0259  0.0720  0.2069
 5134TIP3   OH215365   2.590   2.501   1.990 -0.4271 -0.1748  0.1348
 5134TIP3    H115366   2.647   2.513   1.914  0.2798  1.9504  0.9230
 5134TIP3    H215367   2.618   2.418   2.029  0.0137 -0.6845 -1.2182
 5135TIP3   OH215368   5.482   1.237   4.225 -0.1537 -0.4200 -0.2495
 5135TIP3    H115369   5.406   1.237   4.282 -0.2017 -0.6778 -0.3143
 5135TIP3    H215370   5.460   1.176   4.155 -0.2760  0.2156 -0.7813
 5136TIP3   OH215371   4.549   5.828   5.711 -0.7205 -0.7019  0.2199
 5136TIP3    H115372   4.562   5.772   5.787 -0.8512  0.6707  1.2888
 5136TIP3    H215373   4.566   5.917   5.743 -0.5610 -0.1095 -1.4088
 5137TIP3   OH215374   4.582   5.239   0.373 -0.3399  0.5393  0.8103
 5137TIP3    H115375   4.609   5.191   0.294 -2.1695 -0.4885  0.7485
 5137TIP3    H215376   4.614   5.186   0.446 -4.4954 -2.4794  0.8250
 5138TIP3   OH215377   2.387   3.393   0.782  0.4372 -0.1244  0.3442
 5138TIP3    H115378   2.423   3.452   0.715 -0.5586  0.7412  0.5630
 5138TIP3    H215379   2.298   3.423   0.795  0.0700 -1.3763  0.8335
 5139TIP3   OH215380   6.687   4.292   1.223  0.4160 -0.6873  0.0069
 5139TIP3    H115381   6.672   4.298   1.317 -1.2544  0.3550 -0.2850
 5139TIP3    H215382   6.670   4.200   1.202 -2.9921 -0.2296  0.2185
 5140TIP3   OH215383   3.636   4.763   0.837  0.0422  0.7633 -0.1721
 5140TIP3    H115384   3.628   4.857   0.850 -0.9145  0.4235  2.0577
 5140TIP3    H215385   3.664   4.729   0.922 -2.8614 -1.3020  0.1043
 5141TIP3   OH215386   2.925  -0.001   3.957 -0.2940 -0.5026  1.0094
 5141TIP3    H115387   2.885   0.086   3.946  0.4627 -0.3770 -1.1651
 5141TIP3    H215388   2.851  -0.060   3.969 -0.9472  0.1515  0.3159
 5142TIP3   OH215389   2.326   6.484   1.388 -0.2935 -0.2917 -0.3074
 5142TIP3    H115390   2.255   6.541   1.360 -1.3965 -1.0192  0.9251
 5142TIP3    H215391   2.313   6.403   1.338 -1.3395 -1.0188  1.0725
 5143TIP3   OH215392   6.440   0.062   1.283  0.0259 -0.0347  0.7607
 5143TIP3    H115393   6.465   0.143   1.239  1.8002 -0.9916 -0.0956
 5143TIP3    H215394   6.424   0.088   1.374 -0.0634  1.3639  0.3598
 5144TIP3   OH215395   1.633   3.842   4.498  0.0330  0.2491  0.1823
 5144TIP3    H115396   1.637   3.854   4.403  2.1591 -1.4025  0.0027
 5144TIP3    H215397   1.642   3.931   4.533  1.6702  0.6747 -1.1640
 5145TIP3   OH215398   5.391   2.690   0.627  0.0268  0.3117  0.2560
 5145TIP3    H115399   5.434   2.775   0.628  2.7470 -0.9725  0.6650
 5145TIP3    H215400   5.326   2.695   0.698 -0.4529  2.2502 -0.2587
 5146TIP3   OH215401   2.822   0.368   0.955  0.2258  0.1394  0.1364
 5146TIP3    H115402   2.848   0.454   0.988  3.1858 -0.3447 -0.6962
 5146TIP3    H215403   2.820   0.312   1.032 -0.5775  0.6564  0.5117
 5147TIP3   OH215404   2.566   2.392   0.009 -0.0229  0.1115 -0.3161
 5147TIP3    H115405   2.480   2.386   0.051  0.0589  0.3405 -0.1142
 5147TIP3    H215406   2.624   2.428   0.076  0.4660 -0.9894 -0.1268
 5148TIP3   OH215407   3.074   3.317   1.664  0.0092 -0.1190  0.1362
 5148TIP3    H115408   3.074   3.377   1.739  0.3684 -0.3744  0.3438
 5148TIP3    H215409   2.998   3.344   1.612 -0.3892 -0.1019  0.7200
 5149TIP3   OH215410   0.853   3.737   2.946 -0.7845  0.1728  0.4451
 5149TIP3    H115411   0.848   3.739   3.041  0.7363 -1.1168  0.5905
 5149TIP3    H215412   0.885   3.824   2.922 -0.7504  0.3590  1.1555
 5150TIP3   OH215413   5.782   3.517   5.827 -0.3002  0.1097 -0.2319
 5150TIP3    H115414   5.715   3.449   5.823 -0.2622  0.1103 -0.9763
 5150TIP3    H215415   5.779   3.559   5.741  0.0092  0.7305  0.0546
 5151TIP3   OH215416   6.426   1.820   0.619 -0.3821 -0.3664 -0.0728
 5151TIP3    H115417   6.468   1.737   0.640 -0.2166 -0.5019 -0.9121
 5151TIP3    H215418   6.334   1.798   0.605 -0.7552 -0.0774  1.7173
 5152TIP3   OH215419   1.005   0.825   0.923 -0.0880  0.2651 -0.0801
 5152TIP3    H115420   0.915   0.834   0.954 -0.4969 -1.6922 -0.5698
 5152TIP3    H215421   1.027   0.912   0.889 -1.6231  0.8990  0.4335
 5153TIP3   OH215422   1.894   5.586   1.422  0.4505  0.1145 -0.1438
 5153TIP3    H115423   1.827   5.517   1.427  0.4363  0.1959  0.9653
 5153TIP3    H215424   1.898   5.622   1.510  1.1449  0.8961 -0.4835
 5154TIP3   OH215425   6.774   0.419   0.641  0.3978 -0.2253  0.3009
 5154TIP3    H115426   6.784   0.513   0.658  0.4848 -0.5518  2.2593
 5154TIP3    H215427   6.703   0.414   0.577  1.0090  1.1976 -0.5613
 5155TIP3   OH215428   6.425   3.647   3.704  0.0997 -0.1704 -0.3585
 5155TIP3    H115429   6.456   3.690   3.625 -0.7892  0.0314 -0.6009
 5155TIP3    H215430   6.395   3.561   3.674  1.5801 -0.8636  0.0727
 5156TIP3   OH215431   6.226   6.039   5.838  0.6384 -0.5397  0.0768
 5156TIP3    H115432   6.316   6.069   5.821 -0.3556  2.2328 -0.8679
 5156TIP3    H215433   6.202   6.079   5.921 -0.6039  1.1717 -1.0301
 5157TIP3   OH215434   5.127   3.814   4.238  0.0507 -0.9439 -0.0516
 5157TIP3    H115435   5.122   3.903   4.204  0.6880  0.3101  2.8731
 5157TIP3    H215436   5.089   3.760   4.168 -1.1541  1.6722 -1.5699
 5158TIP3   OH215437   5.684   1.634   3.639 -0.1611 -0.0218 -0.3727
 5158TIP3    H115438   5.732   1.578   3.578 -1.4119 -1.2583 -0.2700
 5158TIP3    H215439   5.651   1.705   3.584  2.0599  1.0960 -0.3724
 5159TIP3   OH215440   0.115   1.119   4.522 -0.0935 -0.1345  0.0134
 5159TIP3    H115441   0.211   1.121   4.513  0.0782 -0.9001  1.4472
 5159TIP3    H215442   0.100   1.097   4.614 -1.6629  1.2319  0.1273
 5160TIP3   OH215443   1.757   4.853   2.100  0.2061 -0.7924 -0.0980
 5160TIP3    H115444   1.732   4.945   2.102  0.0898 -0.8152  2.4902
 5160TIP3    H215445   1.680   4.808   2.064 -0.2121 -0.0133 -0.1960
 5161TIP3   OH215446   2.690   1.435   4.746  0.3852  0.2170 -0.7228
 5161TIP3    H115447   2.771   1.383   4.750  1.5602  1.9190 -1.1433
 5161TIP3    H215448   2.700   1.487   4.666  0.4857  2.9253  0.9266
 5162TIP3   OH215449   2.915   1.467   2.707 -0.2395  0.4045  0.0397
 5162TIP3    H115450   2.919   1.400   2.775  1.2167 -1.3940 -1.6935
 5162TIP3    H215451   2.953   1.545   2.747 -0.5153 -0.2359  1.6234
 5163TIP3   OH215452   7.168   6.478   3.291  0.1386  0.1189  0.4769
 5163TIP3    H115453   7.182   6.420   3.216  1.9070 -0.6786  1.3578
 5163TIP3    H215454   7.123   6.423   3.355 -0.3861  0.4778  0.4228
 5164TIP3   OH215455   3.763   0.920   3.726  0.0047  0.1261 -0.1990
 5164TIP3    H115456   3.798   0.951   3.810  2.0761 -0.9258 -0.5853
 5164TIP3    H215457   3.723   0.836   3.747  1.6741 -0.7654 -0.4069
 5165TIP3   OH215458   1.737   4.109   2.874 -0.8810 -0.6910 -0.1925
 5165TIP3    H115459   1.807   4.093   2.810 -0.9332  1.2825 -0.8269
 5165TIP3    H215460   1.680   4.032   2.867  1.2384 -2.4132  0.4387
 5166TIP3   OH215461   5.946   2.389   4.452  0.0516  0.5377 -0.5780
 5166TIP3    H115462   6.030   2.350   4.475 -1.1849 -2.2163 -0.4106
 5166TIP3    H215463   5.965   2.445   4.377  2.1007  0.3499 -0.2467
 5167TIP3   OH215464   4.639   4.514   4.030 -0.1846  0.4169 -0.4348
 5167TIP3    H115465   4.642   4.458   3.953  0.3015  0.0862 -0.1837
 5167TIP3    H215466   4.728   4.510   4.065 -0.5730 -0.0151  0.5473
 5168TIP3   OH215467   3.900   6.169   0.520  0.3908  0.3760  0.5825
 5168TIP3    H115468   3.968   6.115   0.479 -0.0511 -0.6075  1.1320
 5168TIP3    H215469   3.931   6.183   0.609 -0.5096 -0.7986  1.1061
 5169TIP3   OH215470   1.550   3.281   5.175  0.2154 -0.6911 -0.2772
 5169TIP3    H115471   1.589   3.347   5.232 -3.4005  0.9181  0.6306
 5169TIP3    H215472   1.584   3.197   5.208  1.0072  0.4076  1.8907
 5170TIP3   OH215473   0.706   4.157   2.684 -0.5591 -0.5720  0.2453
 5170TIP3    H115474   0.740   4.246   2.699  0.0142 -0.9834  1.5711
 5170TIP3    H215475   0.710   4.146   2.589 -0.0647  0.6026  0.1048
 5171TIP3   OH215476   1.308   6.551   3.508 -0.0656 -0.1069  0.3626
 5171TIP3    H115477   1.225   6.534   3.551 -0.0039 -0.2422  0.4289
 5171TIP3    H215478   1.333   6.639   3.537 -0.8492  0.5037 -0.7232
 5172TIP3   OH215479   2.575   4.075   4.411 -0.1486 -0.4874  0.2399
 5172TIP3    H115480   2.497   4.047   4.364  1.1321 -1.4404 -1.4059
 5172TIP3    H215481   2.622   4.132   4.350  0.9057 -0.6791  0.8377
 5173TIP3   OH215482   0.914   0.895   4.047 -0.1727 -0.3513  0.0430
 5173TIP3    H115483   0.927   0.968   4.107  0.7766 -1.0826  0.7631
 5173TIP3    H215484   0.955   0.922   3.966  2.0330 -0.8495  0.9219
 5174TIP3   OH215485   0.037   3.102   4.832 -0.7373 -0.5367  0.5731
 5174TIP3    H115486   0.079   3.098   4.918  0.8509  0.8417 -0.0773
 5174TIP3    H215487   0.082   3.173   4.786 -3.2257  0.4353 -0.5508
 5175TIP3   OH215488   3.603   1.147   5.856  0.1628 -0.2188  0.5427
 5175TIP3    H115489   3.656   1.182   5.929  0.5190 -1.6257  0.9935
 5175TIP3    H215490   3.666   1.100   5.802 -0.4279 -0.8810  0.4208
 5176TIP3   OH215491   6.163   4.349   2.374 -0.6302 -0.0432  0.1692
 5176TIP3    H115492   6.155   4.377   2.283 -0.3574 -1.4493 -0.3168
 5176TIP3    H215493   6.113   4.267   2.377 -2.7998  1.2205  1.9052
 5177TIP3   OH215494   3.307   5.001   1.301  0.0006 -0.0542 -0.1434
 5177TIP3    H115495   3.258   5.075   1.265 -1.6820  0.0730  2.1128
 5177TIP3    H215496   3.368   5.041   1.364 -0.5570 -0.5077  0.7061
 5178TIP3   OH215497   5.306   4.822   1.428  0.9010  0.2816  0.2314
 5178TIP3    H115498   5.399   4.842   1.425  0.9371 -0.0032 -1.2238
 5178TIP3    H215499   5.280   4.816   1.336 -0.2021 -1.2235  0.6042
 5179TIP3   OH215500   3.078   5.520   5.777  0.3813  0.5997  0.0154
 5179TIP3    H115501   3.101   5.608   5.807 -0.7131  0.5400  1.1038
 5179TIP3    H215502   3.084   5.466   5.856  1.5728 -0.4427 -0.7382
 5180TIP3   OH215503   2.570   5.262   0.965  0.1112 -0.3568 -0.1792
 5180TIP3    H115504   2.544   5.178   0.928  3.2968 -0.9824 -1.3380
 5180TIP3    H215505   2.619   5.240   1.044 -2.8835  0.7798  2.1894
 5181TIP3   OH215506   6.203   5.885   4.283  0.3481  0.0539  0.1716
 5181TIP3    H115507   6.129   5.944   4.273  0.1424 -0.2467 -0.0978
 5181TIP3    H215508   6.259   5.904   4.207  0.1589 -0.2729 -0.0491
 5182TIP3   OH215509   2.991   3.393   2.470 -0.3211  0.0458 -0.1579
 5182TIP3    H115510   2.922   3.376   2.535 -0.5387 -0.1564 -0.4386
 5182TIP3    H215511   3.046   3.460   2.510 -1.4677  1.2218 -0.4924
 5183TIP3   OH215512   6.582   1.776   0.280 -0.0096  0.1322  0.4589
 5183TIP3    H115513   6.650   1.830   0.239 -0.0583  1.6134  2.2007
 5183TIP3    H215514   6.593   1.790   0.374 -1.2904 -1.4064  0.8955
 5184TIP3   OH215515   1.386   1.045   1.182  0.2187  0.3900  0.3467
 5184TIP3    H115516   1.385   1.069   1.090  0.8535  1.1003  0.5218
 5184TIP3    H215517   1.294   1.035   1.205  0.0869 -1.4184 -0.7685
 5185TIP3   OH215518   7.011   1.619   0.933  0.9120 -0.3862  0.4607
 5185TIP3    H115519   6.944   1.682   0.905  2.5780  0.4915 -1.8099
 5185TIP3    H215520   7.051   1.660   1.010 -0.7321 -0.6707  1.5158
 5186TIP3   OH215521   6.564   4.623   5.427  0.2533  0.0101 -0.0259
 5186TIP3    H115522   6.598   4.710   5.449  0.7179 -0.0887 -0.3256
 5186TIP3    H215523   6.500   4.604   5.495  0.2901  0.5052  0.1513
 5187TIP3   OH215524   4.840   3.685   4.859 -0.2114 -0.2203  0.5810
 5187TIP3    H115525   4.845   3.653   4.949  2.0087 -0.9283  0.2598
 5187TIP3    H215526   4.862   3.778   4.866  1.7133 -0.6437  0.6225
 5188TIP3   OH215527   4.592   6.538   5.376 -0.4887  0.1978 -0.4459
 5188TIP3    H115528   4.629   6.566   5.292 -0.5233  0.5112 -0.3572
 5188TIP3    H215529   4.499   6.527   5.357 -0.2558 -1.3006 -0.8569
 5189TIP3   OH215530   4.803   2.772   5.474  0.3996 -0.0360  0.1864
 5189TIP3    H115531   4.810   2.854   5.426  2.7226 -1.2047 -1.5951
 5189TIP3    H215532   4.765   2.710   5.412  1.9263 -1.1679  0.3357
 5190TIP3   OH215533   0.549   3.637   4.089  0.6202 -0.3274  0.0144
 5190TIP3    H115534   0.515   3.594   4.168  1.3329 -0.8485  0.0486
 5190TIP3    H215535   0.627   3.586   4.066  0.5744 -0.0124 -0.8735
 5191TIP3   OH215536   4.273   2.962   0.222 -0.1479 -0.0705 -0.2551
 5191TIP3    H115537   4.326   2.925   0.292 -0.1636  0.8019  0.2292
 5191TIP3    H215538   4.227   3.035   0.263 -0.9600 -0.1963 -0.9168
 5192TIP3   OH215539   1.962   3.809   4.581 -0.6679  0.1626  0.3362
 5192TIP3    H115540   2.048   3.778   4.552 -0.8449 -0.9834  0.9828
 5192TIP3    H215541   1.900   3.763   4.525 -0.8566  1.5038 -0.5909
 5193TIP3   OH215542   5.730   3.316   2.641 -0.3569  0.2429 -0.0364
 5193TIP3    H115543   5.637   3.302   2.658 -0.3379  0.8306  0.5750
 5193TIP3    H215544   5.770   3.320   2.727  0.0823  1.0239 -0.2672
 5194TIP3   OH215545   3.826   0.903   1.095 -0.1280 -0.0247  0.4604
 5194TIP3    H115546   3.872   0.965   1.038 -0.8714  0.7806  0.7237
 5194TIP3    H215547   3.846   0.817   1.058  0.4062  0.4064 -0.2745
 5195TIP3   OH215548   3.795   2.227   5.839  0.4518 -0.3593  0.1374
 5195TIP3    H115549   3.874   2.279   5.856 -0.1716  0.3436  0.9730
 5195TIP3    H215550   3.753   2.270   5.764  0.6862 -0.5429 -0.1029
 5196TIP3   OH215551   4.048   5.491   2.729  0.2562 -0.2397 -0.0617
 5196TIP3    H115552   4.087   5.505   2.643 -0.2523 -1.8927 -0.6087
 5196TIP3    H215553   3.973   5.550   2.731 -0.2026 -0.7363 -1.1182
 5197TIP3   OH215554   2.933   2.677   5.345 -0.0074 -0.1108  0.7373
 5197TIP3    H115555   2.842   2.708   5.353 -0.1789 -0.5800  0.6464
 5197TIP3    H215556   2.962   2.663   5.435  0.3846  1.1818  0.8316
 5198TIP3   OH215557   0.859   6.267   1.265  0.0125  0.1740  0.7187
 5198TIP3    H115558   0.824   6.291   1.351  1.3607  0.6276  1.1746
 5198TIP3    H215559   0.801   6.197   1.234 -0.7068  0.2456  1.8373
 5199TIP3   OH215560   3.835   6.308   0.924  0.3232  0.0776 -0.0756
 5199TIP3    H115561   3.807   6.315   0.833 -0.9205 -3.5742 -0.1240
 5199TIP3    H215562   3.754   6.294   0.973  1.0026  1.6269  1.6223
 5200TIP3   OH215563   3.634   3.950   5.838  0.0903  0.5745 -0.0417
 5200TIP3    H115564   3.727   3.962   5.860 -0.3119  1.9670  1.0226
 5200TIP3    H215565   3.633   3.870   5.784  1.9006  0.5555 -0.1320
 5201TIP3   OH215566   3.533   6.242   3.451 -0.1411  0.3733  0.2518
 5201TIP3    H115567   3.462   6.183   3.476 -0.8938  1.4041  0.5958
 5201TIP3    H215568   3.535   6.308   3.520  0.0091  1.3398 -0.6522
 5202TIP3   OH215569   1.696   3.910   1.779  0.0025 -0.0572 -0.6177
 5202TIP3    H115570   1.736   3.996   1.770  0.0681  0.3435  2.3400
 5202TIP3    H215571   1.635   3.904   1.706  2.0301  1.2538 -2.5510
 5203TIP3   OH215572   7.202   1.679   5.501  0.0962 -0.1182  0.0571
 5203TIP3    H115573   7.114   1.698   5.469  0.6723 -0.1316 -1.6332
 5203TIP3    H215574   7.257   1.685   5.423  1.7411  0.8034  1.2363
 5204TIP3   OH215575   0.988   6.341   0.776 -0.2625  0.1194  0.0055
 5204TIP3    H115576   1.076   6.343   0.815 -0.6749  0.7064  0.9482
 5204TIP3    H215577   0.996   6.282   0.701  0.4031 -1.6717  1.4155
 5205TIP3   OH215578   6.869   3.686   2.121 -0.2775 -0.3661  0.3354
 5205TIP3    H115579   6.926   3.628   2.071  0.6929  0.3800  0.5374
 5205TIP3    H215580   6.877   3.771   2.078 -0.6855 -0.0863  0.7960
 5206TIP3   OH215581   5.509   3.974   0.023 -0.1842  0.8824  0.0314
 5206TIP3    H115582   5.467   4.033   0.086  0.7880  0.6895  0.8707
 5206TIP3    H215583   5.549   3.906   0.076 -2.4239 -1.3858 -0.9561
 5207TIP3   OH215584   6.962   4.850   1.263 -0.3603 -0.1810  0.4261
 5207TIP3    H115585   6.938   4.766   1.224 -2.0475  0.4505  0.0175
 5207TIP3    H215586   6.991   4.829   1.351  1.5001 -1.4262 -0.4258
 5208TIP3   OH215587   0.739   4.937   1.358 -0.1969 -0.3611  0.1404
 5208TIP3    H115588   0.738   5.030   1.381  3.1212 -0.4920  1.4151
 5208TIP3    H215589   0.754   4.936   1.264  0.2253  0.4143  0.1914
 5209TIP3   OH215590   3.613   2.109   4.113  0.2755  0.0741 -0.0835
 5209TIP3    H115591   3.628   2.037   4.175 -0.5889 -0.3378 -0.3252
 5209TIP3    H215592   3.519   2.128   4.121  0.5208  1.2750  0.0692
 5210TIP3   OH215593   0.689   3.137   4.684  0.3160  0.4760 -0.5716
 5210TIP3    H115594   0.630   3.182   4.744  1.0590 -0.1227  0.6342
 5210TIP3    H215595   0.740   3.077   4.739  0.2622 -0.9020 -1.9415
 5211TIP3   OH215596   5.427   0.610   3.823  0.1844 -0.0142  0.2660
 5211TIP3    H115597   5.384   0.696   3.815  2.0295  1.0273  0.8217
 5211TIP3    H215598   5.458   0.591   3.734 -0.2334 -0.1067  0.1398
 5212TIP3   OH215599   4.372   6.191   5.782 -0.0096  0.1352  0.3964
 5212TIP3    H115600   4.349   6.142   5.703 -2.7777  1.0158  0.5447
 5212TIP3    H215601   4.390   6.124   5.847 -0.0070 -0.6344 -0.3705
 5213TIP3   OH215602   1.293   1.724   2.688  1.1158  0.2706  0.5493
 5213TIP3    H115603   1.340   1.730   2.772  1.3894 -1.3560  0.5426
 5213TIP3    H215604   1.345   1.776   2.627  0.7834  1.6830  1.4228
 5214TIP3   OH215605   6.022   2.201   4.998 -0.1702 -0.1539  0.2001
 5214TIP3    H115606   6.070   2.282   4.982 -0.3418 -0.3438 -1.5403
 5214TIP3    H215607   5.932   2.229   5.014 -0.0474  0.0439  0.5514
 5215TIP3   OH215608   2.369   0.764   1.344 -0.0431 -0.0901  0.3652
 5215TIP3    H115609   2.323   0.729   1.421  1.4239  0.0216  1.3313
 5215TIP3    H215610   2.456   0.786   1.376 -0.1083  2.1703 -0.7803
 5216TIP3   OH215611   3.304   0.893   4.890  0.2008 -0.2322 -0.4845
 5216TIP3    H115612   3.264   0.978   4.872  3.1668  1.3487 -0.2925
 5216TIP3    H215613   3.321   0.895   4.984 -0.4899 -1.4342 -0.3255
 5217TIP3   OH215614   3.084   2.127   4.299 -0.0314  0.6432 -0.4413
 5217TIP3    H115615   2.989   2.137   4.306 -0.3816 -1.8331 -0.8444
 5217TIP3    H215616   3.118   2.155   4.384 -1.4770 -1.5637  0.9714
 5218TIP3   OH215617   5.711   3.365   1.828 -0.2635 -0.1457 -0.3711
 5218TIP3    H115618   5.766   3.393   1.755  0.9911 -0.8760  0.2726
 5218TIP3    H215619   5.675   3.281   1.799  1.4216 -1.1698  0.4180
 5219TIP3   OH215620   3.587   2.397   0.397  0.2132 -0.4166  0.1726
 5219TIP3    H115621   3.539   2.320   0.427 -0.3170 -0.0480  0.2773
 5219TIP3    H215622   3.587   2.456   0.472 -0.3984  0.1668 -0.2787
 5220TIP3   OH215623   4.085   4.491   1.894  0.4397  0.0351 -0.0658
 5220TIP3    H115624   4.129   4.416   1.935  0.1976 -0.7929 -1.2447
 5220TIP3    H215625   4.087   4.471   1.800 -3.1008 -0.4298 -0.1669
 5221TIP3   OH215626   4.474   5.055   1.749 -0.3771 -0.5346  0.6283
 5221TIP3    H115627   4.463   4.960   1.761 -0.5679 -0.5716  0.1824
 5221TIP3    H215628   4.475   5.067   1.654  1.9612 -0.3530  0.6152
 5222TIP3   OH215629   0.212   4.546   2.500  0.2778 -0.2318 -0.3061
 5222TIP3    H115630   0.191   4.550   2.593 -1.1085 -1.1497 -0.5535
 5222TIP3    H215631   0.240   4.455   2.486 -0.0911 -0.2581 -0.8912
 5223TIP3   OH215632   4.488   1.533   0.104 -0.0643 -0.4412 -0.1199
 5223TIP3    H115633   4.571   1.490   0.127 -0.0085  0.1449  0.8656
 5223TIP3    H215634   4.486   1.533   0.009  1.7156  0.7246 -0.1919
 5224TIP3   OH215635   0.706   6.663   2.693  0.5772 -0.5326  0.1630
 5224TIP3    H115636   0.799   6.674   2.672 -0.2648  1.6304 -3.1632
 5224TIP3    H215637   0.685   6.738   2.748  0.6150 -0.6991  0.4117
 5225TIP3   OH215638   1.452   4.537   2.534  0.1801  0.5076 -0.2775
 5225TIP3    H115639   1.460   4.448   2.501  1.6386 -0.4334  2.3762
 5225TIP3    H215640   1.511   4.589   2.479 -1.2129  0.0612 -2.3046
 5226TIP3   OH215641   5.670   1.261   2.587  0.1483 -0.0360 -0.2340
 5226TIP3    H115642   5.756   1.224   2.608 -0.6289 -3.1669 -1.8568
 5226TIP3    H215643   5.608   1.202   2.630 -1.3092  2.6011  1.5763
 5227TIP3   OH215644   5.021   2.922   3.840 -0.3140  0.0487 -0.1385
 5227TIP3    H115645   5.006   3.009   3.875 -1.0338 -0.2153  0.2335
 5227TIP3    H215646   4.955   2.912   3.771  1.2788  0.6838 -1.8480
 5228TIP3   OH215647   7.149   1.486   3.315  0.0997 -0.0210  0.4717
 5228TIP3    H115648   7.096   1.429   3.371 -0.5969  0.3643  0.2059
 5228TIP3    H215649   7.130   1.575   3.345  0.1955  0.1532  0.0269
 5229TIP3   OH215650   1.910   1.521   0.007  1.0211 -0.0355  0.2870
 5229TIP3    H115651   1.827   1.474  -0.002  0.9010  0.4421 -1.4693
 5229TIP3    H215652   1.938   1.502   0.096 -0.8834 -0.3425  0.8772
 5230TIP3   OH215653   4.343   4.771   2.603 -0.1671  0.0146 -0.2328
 5230TIP3    H115654   4.343   4.834   2.675  1.2766 -0.1180 -0.0783
 5230TIP3    H215655   4.339   4.825   2.524 -0.3018  0.2265 -0.0820
 5231TIP3   OH215656   1.149   3.943   2.593  0.2544 -0.4043  0.2318
 5231TIP3    H115657   1.197   4.025   2.580  0.6793 -0.8591 -1.3211
 5231TIP3    H215658   1.182   3.909   2.676 -0.6201  1.4183  1.3990
 5232TIP3   OH215659   7.086   0.267   3.361  0.4008 -0.4915  0.3571
 5232TIP3    H115660   7.083   0.356   3.396  0.6374 -0.3078 -0.0839
 5232TIP3    H215661   7.027   0.270   3.285  1.9075 -0.1845 -0.8371
 5233TIP3   OH215662   3.588   3.202   4.568  0.7607 -0.1368 -0.0048
 5233TIP3    H115663   3.569   3.255   4.490 -1.4964  0.1154  0.6411
 5233TIP3    H215664   3.553   3.116   4.547 -0.4564  0.1079  0.9391
 5234TIP3   OH215665   5.758   3.107   2.479 -0.1296  0.4759  0.0629
 5234TIP3    H115666   5.765   3.196   2.514 -0.1101  1.0370 -1.2951
 5234TIP3    H215667   5.665   3.095   2.463 -0.2194 -0.0395  0.9397
 5235TIP3   OH215668   1.104   3.798   2.333 -0.0953  0.3424 -0.5512
 5235TIP3    H115669   1.119   3.851   2.411 -1.2713 -0.6151  0.3729
 5235TIP3    H215670   1.165   3.724   2.341 -1.2645 -0.5610  0.2779
 5236TIP3   OH215671   1.651   5.179   0.076  0.3334 -0.3854 -0.2317
 5236TIP3    H115672   1.628   5.265   0.041  2.6445  0.4992  0.2296
 5236TIP3    H215673   1.702   5.198   0.155  0.1296 -2.2236  0.4002
 5237TIP3   OH215674   6.198   2.157   0.531 -0.1177 -0.5780  0.4312
 5237TIP3    H115675   6.264   2.124   0.470 -2.0250 -1.0294 -1.4750
 5237TIP3    H215676   6.207   2.253   0.525 -1.1416 -0.5549 -1.6522
 5238TIP3   OH215677   1.014   2.930   4.277 -0.3420  0.1670  0.5566
 5238TIP3    H115678   0.987   2.848   4.236 -0.1647  0.6009 -0.4730
 5238TIP3    H215679   1.102   2.914   4.310  0.1012  0.2230 -0.5456
 5239TIP3   OH215680   5.258   3.112   5.297 -0.3774 -0.6179 -0.1289
 5239TIP3    H115681   5.223   3.161   5.371  1.9711  0.0713  0.6362
 5239TIP3    H215682   5.333   3.065   5.333  1.3249  0.3620 -2.1657
 5240TIP3   OH215683   1.516   2.051   0.535 -0.4957  0.1990 -0.1119
 5240TIP3    H115684   1.465   2.015   0.462 -0.1076  1.2350 -0.9247
 5240TIP3    H215685   1.455   2.052   0.609 -0.5072 -2.1021 -0.0397
 5241TIP3   OH215686   0.372   0.824   3.116 -0.0570 -0.0075 -0.8864
 5241TIP3    H115687   0.313   0.855   3.047  0.0775 -0.2978 -1.1369
 5241TIP3    H215688   0.460   0.839   3.081  0.0150  0.1254 -0.6500
 5242TIP3   OH215689   0.390   5.243   0.270 -0.2056  0.0454  0.5751
 5242TIP3    H115690   0.356   5.301   0.202 -0.0989  1.0942  1.3787
 5242TIP3    H215691   0.381   5.155   0.235  1.4224  0.6371 -1.5132
 5243TIP3   OH215692   3.069   3.857   1.010  0.0441 -0.1521 -0.2640
 5243TIP3    H115693   3.125   3.929   0.982 -1.4069  1.8157  1.5602
 5243TIP3    H215694   2.999   3.853   0.944 -1.4179  2.0884  1.0391
 5244TIP3   OH215695   2.378   2.238   3.421 -0.0159 -0.3408 -0.3634
 5244TIP3    H115696   2.302   2.180   3.421 -0.2396 -0.2342 -3.9979
 5244TIP3    H215697   2.345   2.321   3.387  1.3675  0.2900 -0.2176
 5245TIP3   OH215698   5.151   6.311   0.464  0.8657 -0.1034  0.2358
 5245TIP3    H115699   5.227   6.258   0.487  0.5373 -0.6263  0.1278
 5245TIP3    H215700   5.102   6.258   0.402  1.5505  1.1292 -1.4493
 5246TIP3   OH215701   5.499   0.977   4.504 -0.0410  0.4199 -0.0095
 5246TIP3    H115702   5.419   0.960   4.454  0.5754  1.2634 -1.3345
 5246TIP3    H215703   5.570   0.957   4.443  0.9857 -3.9646  2.2106
 5247TIP3   OH215704   1.923   2.812   5.707  0.0579 -0.0029  0.2621
 5247TIP3    H115705   1.933   2.731   5.656 -0.0600  0.7533 -1.0024
 5247TIP3    H215706   2.010   2.828   5.743 -0.2124 -1.3746  1.6346
 5248TIP3   OH215707   3.934   5.299   4.086 -0.3141  0.4248  0.4087
 5248TIP3    H115708   3.869   5.369   4.095 -0.7918  0.0301  0.0531
 5248TIP3    H215709   3.926   5.249   4.168 -1.0008 -0.0719  0.0506
 5249TIP3   OH215710   3.856   0.781   1.774  0.2987  0.2548  0.4154
 5249TIP3    H115711   3.873   0.735   1.691  2.5925 -1.4355  1.7158
 5249TIP3    H215712   3.786   0.732   1.815  1.2285 -0.7993  0.7925
 5250TIP3   OH215713   6.428   1.557   0.694  0.1434  0.4307 -0.3522
 5250TIP3    H115714   6.508   1.565   0.746 -0.4531 -0.3672  0.7251
 5250TIP3    H215715   6.452   1.497   0.623  0.1375 -0.9361  0.7619
 5251TIP3   OH215716   3.288   6.647   2.832  0.0893 -0.4511 -0.4898
 5251TIP3    H115717   3.219   6.692   2.879 -1.3050 -2.3923 -0.5771
 5251TIP3    H215718   3.291   6.559   2.870  2.6092 -0.4092 -0.4058
 5252TIP3   OH215719   5.107   0.887   4.595  0.2743 -0.0638  0.0300
 5252TIP3    H115720   5.084   0.842   4.676 -0.3119  1.6013  0.8483
 5252TIP3    H215721   5.140   0.972   4.624  3.2315 -0.6287 -1.3272
 5253TIP3   OH215722   6.197   5.092   2.237  0.1132  0.6000 -0.2066
 5253TIP3    H115723   6.128   5.082   2.303 -0.9019 -0.3580 -1.3417
 5253TIP3    H215724   6.243   5.008   2.238 -0.4672  0.2495 -1.2789
 5254TIP3   OH215725   5.662   0.775   3.202  0.1862 -0.4386  0.0869
 5254TIP3    H115726   5.728   0.833   3.239 -0.7116  0.8237 -0.2105
 5254TIP3    H215727   5.674   0.782   3.107  0.2960 -1.0248  0.0533
 5255TIP3   OH215728   0.657   0.819   1.583  0.2405  0.7606  0.1540
 5255TIP3    H115729   0.573   0.800   1.625  1.0132 -1.5146  0.8105
 5255TIP3    H215730   0.722   0.775   1.638  1.7977  1.8297 -0.7608
 5256TIP3   OH215731   0.860   3.543   1.720 -0.1041  0.0515  0.2143
 5256TIP3    H115732   0.917   3.477   1.760 -1.3727 -0.2423  1.6675
 5256TIP3    H215733   0.869   3.619   1.776 -0.1631  0.4356 -0.2946
 5257TIP3   OH215734   5.010   3.487   0.779  0.4214  0.1304 -0.4053
 5257TIP3    H115735   5.016   3.470   0.685 -0.3606  0.8408 -0.5924
 5257TIP3    H215736   5.021   3.401   0.820 -0.5632 -0.3979 -1.2069
 5258TIP3   OH215737   4.745   5.043   5.186  0.3744 -0.1881 -0.8334
 5258TIP3    H115738   4.715   5.069   5.273  0.0585  1.5226 -1.4011
 5258TIP3    H215739   4.665   5.016   5.141  0.7321 -2.5198 -0.1789
 5259TIP3   OH215740   6.061   1.022   5.536 -0.6913 -0.2489  0.1720
 5259TIP3    H115741   6.139   1.076   5.549  0.0172 -1.1734 -0.1717
 5259TIP3    H215742   6.087   0.957   5.471 -1.7132 -0.6479  0.1434
 5260TIP3   OH215743   2.633   2.725   3.403 -0.4232  0.1644 -0.4410
 5260TIP3    H115744   2.543   2.730   3.373 -0.5206 -0.5895 -0.3034
 5260TIP3    H215745   2.626   2.701   3.496 -0.0778 -0.1623 -0.4966
 5261TIP3   OH215746   0.145   4.361   4.663  0.3844 -0.0118  0.6098
 5261TIP3    H115747   0.141   4.451   4.697  1.3933 -0.0311  0.7985
 5261TIP3    H215748   0.237   4.336   4.671  0.6807 -0.0466 -2.1312
 5262TIP3   OH215749   6.066   5.012   2.894  0.4307  0.4420  0.0940
 5262TIP3    H115750   6.102   5.083   2.948  0.0235  0.2906  0.5763
 5262TIP3    H215751   6.013   5.057   2.828  0.6438  0.6182  0.0446
 5263TIP3   OH215752   4.266   5.762   4.085  0.2088 -0.4507  0.3525
 5263TIP3    H115753   4.194   5.822   4.107  1.5449  0.6822  1.8179
 5263TIP3    H215754   4.222   5.679   4.065 -1.5619  0.4371  0.3088
 5264TIP3   OH215755   4.344   2.094   0.152 -1.0505 -0.3645  0.1049
 5264TIP3    H115756   4.321   2.109   0.244 -0.9582 -0.0701  0.0833
 5264TIP3    H215757   4.393   2.012   0.153  1.3791  1.0035  0.7327
 5265TIP3   OH215758   2.788   3.311   2.656  0.2296  0.6534  0.0701
 5265TIP3    H115759   2.745   3.388   2.620 -1.4132 -0.2032  0.1000
 5265TIP3    H215760   2.751   3.301   2.743 -2.0454 -1.9045 -1.0333
 5266TIP3   OH215761   1.198   3.810   2.832  0.4174  0.1030  0.3123
 5266TIP3    H115762   1.147   3.864   2.892  0.2847  0.7670 -0.3737
 5266TIP3    H215763   1.216   3.729   2.880  0.5354  0.7201  1.3275
 5267TIP3   OH215764   7.042   4.426   0.875  0.3974 -0.0199 -0.3532
 5267TIP3    H115765   6.956   4.397   0.906  0.5235 -0.5818 -0.5192
 5267TIP3    H215766   7.032   4.435   0.780  0.8131 -1.1598 -0.5229
 5268TIP3   OH215767   0.860   4.405   5.811  0.1021 -0.1505 -0.2248
 5268TIP3    H115768   0.941   4.366   5.844  0.6341 -0.1074 -1.4301
 5268TIP3    H215769   0.878   4.499   5.807  0.0699 -0.1637 -0.6981
 5269TIP3   OH215770   5.935   1.630   2.124 -0.1287 -0.7289 -0.1940
 5269TIP3    H115771   5.930   1.645   2.029 -0.9218  0.4043  0.0035
 5269TIP3    H215772   5.992   1.554   2.133 -0.3939 -1.1310 -1.6042
 5270TIP3   OH215773   1.727   0.573   4.563  0.1163 -0.8557  0.5326
 5270TIP3    H115774   1.666   0.617   4.622  0.4226 -0.2445  0.3995
 5270TIP3    H215775   1.682   0.573   4.478  1.5999  2.6084 -0.4016
 5271TIP3   OH215776   2.348   4.221   4.084  0.1871  0.4676 -0.5659
 5271TIP3    H115777   2.405   4.239   4.009  0.4666  3.7094  0.3033
 5271TIP3    H215778   2.260   4.229   4.049  0.2842 -0.2247 -0.9884
 5272TIP3   OH215779   6.062   3.997   4.337  0.3933 -0.2022 -0.6843
 5272TIP3    H115780   6.045   3.995   4.243  2.7185 -3.2379 -1.2230
 5272TIP3    H215781   6.111   4.078   4.350 -3.9523  2.7632 -1.0432
 5273TIP3   OH215782   1.085   1.645   3.008  0.4743  0.2543 -0.3451
 5273TIP3    H115783   1.032   1.710   2.963 -0.8368  0.3762  1.2832
 5273TIP3    H215784   1.161   1.693   3.040 -0.0267  0.7861  0.0496
 5274TIP3   OH215785   4.127   3.580   5.480  0.5300 -0.0424  0.0119
 5274TIP3    H115786   4.107   3.661   5.433 -0.7848  0.1144  0.7919
 5274TIP3    H215787   4.194   3.606   5.544 -0.4522  0.6324  0.7899
 5275TIP3   OH215788   1.834   0.046   1.155  0.2326  0.2922  0.3295
 5275TIP3    H115789   1.742   0.051   1.128  0.2472  0.6938  0.3529
 5275TIP3    H215790   1.868   0.134   1.139  0.9686 -0.2042 -0.9563
 5276TIP3   OH215791   2.791   4.548   4.536 -0.3908  0.1336 -0.0508
 5276TIP3    H115792   2.871   4.586   4.500 -0.3601  1.7131  1.5263
 5276TIP3    H215793   2.821   4.493   4.609 -0.7220  0.5807  0.4286
 5277TIP3   OH215794   5.715   5.209   1.320  0.1312 -0.4328 -0.1720
 5277TIP3    H115795   5.648   5.208   1.388  1.8651 -0.3383  1.6311
 5277TIP3    H215796   5.732   5.302   1.304 -1.4374 -0.3923 -2.0519
 5278TIP3   OH215797   4.241   5.278   3.505 -0.0934 -0.3095  0.2829
 5278TIP3    H115798   4.208   5.190   3.486  0.1484 -0.3129 -0.1376
 5278TIP3    H215799   4.255   5.317   3.418 -0.6012  0.2931  0.4695
 5279TIP3   OH215800   2.311   3.650   0.898  0.5626  0.0230 -0.2461
 5279TIP3    H115801   2.286   3.715   0.964  0.5069  0.5470 -0.7859
 5279TIP3    H215802   2.370   3.590   0.945 -0.0856 -0.0576  0.4924
 5280TIP3   OH215803   2.901   6.277   0.134  0.3237  0.1857  0.1866
 5280TIP3    H115804   2.827   6.326   0.170  0.0789  0.7813 -1.0761
 5280TIP3    H215805   2.905   6.197   0.187 -1.6518 -0.1802 -0.1349
 5281TIP3   OH215806   6.331   5.700   2.077 -0.2136 -0.8227  0.3717
 5281TIP3    H115807   6.381   5.669   2.002 -0.6323 -0.7485  0.0524
 5281TIP3    H215808   6.396   5.726   2.141  0.1965  0.6447 -0.5796
 5282TIP3   OH215809   3.160   2.962   5.070  0.3035 -0.4058 -0.4092
 5282TIP3    H115810   3.221   3.004   5.131 -0.0913 -0.9656  0.3903
 5282TIP3    H215811   3.204   2.966   4.985  0.5612  1.0283 -0.2318
 5283TIP3   OH215812   1.751   2.455   0.077 -0.1035 -0.1327 -0.9812
 5283TIP3    H115813   1.660   2.479   0.060 -0.8854 -2.3256 -0.2951
 5283TIP3    H215814   1.778   2.408  -0.002  0.1365 -0.2320 -0.8405
 5284TIP3   OH215815   1.888   0.736   5.308 -0.6547 -0.0289 -0.2215
 5284TIP3    H115816   1.881   0.704   5.398 -2.1148 -1.9079 -0.9180
 5284TIP3    H215817   1.925   0.823   5.315  0.8514 -0.7864  2.0764
 5285TIP3   OH215818   1.676   3.439   1.621  0.3576 -0.0198  0.4736
 5285TIP3    H115819   1.701   3.414   1.709  0.5122  2.5879  1.2583
 5285TIP3    H215820   1.588   3.404   1.609 -0.4369  1.1448  2.4394
 5286TIP3   OH215821   3.068   1.065   5.410 -0.4446  0.2106  0.0311
 5286TIP3    H115822   2.975   1.046   5.403 -0.7641  1.4282  0.6362
 5286TIP3    H215823   3.096   1.021   5.490 -0.0349 -1.7443 -1.1254
 5287TIP3   OH215824   6.039   2.928   2.573  0.2081  0.0108  0.2491
 5287TIP3    H115825   6.042   2.862   2.504  1.3781  1.6038 -1.3114
 5287TIP3    H215826   5.971   2.990   2.543 -2.7452 -1.6393  2.9195
 5288TIP3   OH215827   6.162   6.443   5.126 -0.0633  0.3994 -0.2069
 5288TIP3    H115828   6.073   6.415   5.105 -0.4235  0.9294  0.5707
 5288TIP3    H215829   6.200   6.370   5.174 -1.1011  1.2674  2.0820
 5289TIP3   OH215830   0.287   3.897   0.314 -0.0448  0.3613  0.1010
 5289TIP3    H115831   0.247   3.905   0.227 -1.1923 -0.8223  0.4871
 5289TIP3    H215832   0.367   3.847   0.299 -0.8442 -0.8769 -0.1365
 5290TIP3   OH215833   0.575   0.667   5.066 -0.3283  0.0267  0.3375
 5290TIP3    H115834   0.498   0.721   5.085 -1.1723 -0.9854 -0.0902
 5290TIP3    H215835   0.576   0.601   5.134 -0.5102 -0.6457 -0.2939
 5291TIP3   OH215836   3.376   1.158   4.234 -0.1232  0.3308  0.2434
 5291TIP3    H115837   3.347   1.108   4.157  0.5157 -0.2338  0.3608
 5291TIP3    H215838   3.351   1.249   4.214 -0.9512  0.0256 -0.1416
 5292TIP3   OH215839   3.798   5.393   1.711 -0.0851  0.2902 -0.0588
 5292TIP3    H115840   3.703   5.402   1.722 -0.1547  0.4364 -0.7183
 5292TIP3    H215841   3.809   5.307   1.670  0.1744 -0.3050  1.2082
 5293TIP3   OH215842   1.248   5.996   0.584 -0.1394 -0.6052 -0.5248
 5293TIP3    H115843   1.273   5.977   0.493 -1.0337 -2.4810 -0.4186
 5293TIP3    H215844   1.257   5.912   0.629 -3.2130 -0.5863  0.2907
 5294TIP3   OH215845   0.527   2.070   4.817 -0.5350 -0.0171 -0.1493
 5294TIP3    H115846   0.621   2.053   4.821 -0.4366  0.2508 -1.0103
 5294TIP3    H215847   0.512   2.096   4.726 -1.2828  0.8445  0.2028
 5295TIP3   OH215848   1.631   1.690   5.815 -0.3430  0.2775  0.5599
 5295TIP3    H115849   1.715   1.733   5.826  0.1534 -0.6260  0.4556
 5295TIP3    H215850   1.650   1.616   5.756 -1.0864 -0.2637  0.9834
 5296TIP3   OH215851   4.832   6.128   0.383 -0.5722  0.1333 -0.4573
 5296TIP3    H115852   4.877   6.153   0.302 -0.2931  1.1358 -0.0061
 5296TIP3    H215853   4.873   6.045   0.407 -1.8836 -1.1107 -2.2660
 5297TIP3   OH215854   5.184   5.322   1.348 -0.4425  0.1133  0.2906
 5297TIP3    H115855   5.207   5.415   1.350 -0.1911  0.0476  0.5576
 5297TIP3    H215856   5.122   5.314   1.275  0.9681  0.1752 -0.9719
 5298TIP3   OH215857   4.682   0.874   0.811  0.0238  0.6592 -0.6682
 5298TIP3    H115858   4.641   0.940   0.867 -0.2448  0.6652 -0.8718
 5298TIP3    H215859   4.728   0.924   0.744  2.7338  0.7809  1.1214
 5299TIP3   OH215860   0.928   4.004   2.835  0.0616  0.5334 -0.1977
 5299TIP3    H115861   0.909   4.098   2.830 -0.3811  0.4568 -0.0396
 5299TIP3    H215862   0.945   3.978   2.745 -0.2261  0.6857 -0.2977
 5300TIP3   OH215863   1.968   3.036   1.885 -0.4944 -0.2918 -0.6355
 5300TIP3    H115864   1.923   3.052   1.968 -0.7551 -0.2239 -0.7884
 5300TIP3    H215865   2.037   3.102   1.883 -0.5221 -0.2574 -0.4980
 5301TIP3   OH215866   0.754   3.677   3.845  0.0111  0.0439  0.0197
 5301TIP3    H115867   0.711   3.680   3.760 -0.5302  1.4108  0.3134
 5301TIP3    H215868   0.742   3.586   3.875  0.6271 -0.5820 -1.5327
 5302TIP3   OH215869   3.209   4.163   3.204  0.0459 -0.2378 -0.6679
 5302TIP3    H115870   3.163   4.081   3.189  1.5530 -1.2846  0.0785
 5302TIP3    H215871   3.269   4.143   3.276 -1.5288  2.3281  1.5590
 5303TIP3   OH215872   0.383   1.868   3.940 -0.5988  0.2160  0.0893
 5303TIP3    H115873   0.315   1.897   4.001  0.1457 -2.2998  2.3341
 5303TIP3    H215874   0.449   1.937   3.943 -1.1008  0.6761  1.3073
 5304TIP3   OH215875   0.762   0.121   2.009 -0.4129  0.7490  0.1467
 5304TIP3    H115876   0.672   0.146   1.987 -0.1821  0.2618 -1.4220
 5304TIP3    H215877   0.795   0.195   2.060 -1.0867  1.8135 -0.9096
 5305TIP3   OH215878   1.698   0.451   5.032 -0.6612  0.6064 -0.2543
 5305TIP3    H115879   1.731   0.368   4.997  1.0391  0.5030  1.4361
 5305TIP3    H215880   1.603   0.439   5.037 -0.4090 -1.4670  0.4445
 5306TIP3   OH215881   0.476   0.541   2.465  0.0117 -0.1153  0.0712
 5306TIP3    H115882   0.490   0.449   2.441 -0.9167 -0.0751 -0.6828
 5306TIP3    H215883   0.551   0.562   2.520 -0.4362 -1.6955  1.3596
 5307TIP3   OH215884   5.262   4.646   4.093 -0.3414 -0.3782 -0.4569
 5307TIP3    H115885   5.218   4.694   4.023  0.3226  0.6516 -0.2018
 5307TIP3    H215886   5.242   4.554   4.076 -0.3779 -0.1292 -1.8675
 5308TIP3   OH215887   6.503   5.979   0.481  0.2011  0.1881  0.3039
 5308TIP3    H115888   6.543   6.063   0.504  2.6861 -0.5608 -0.8289
 5308TIP3    H215889   6.545   5.916   0.540  0.5384 -0.6181 -0.7596
 5309TIP3   OH215890   2.054   0.564   1.707 -0.1320 -0.0093  0.3936
 5309TIP3    H115891   2.097   0.490   1.748 -1.1744  0.0352  1.6532
 5309TIP3    H215892   1.969   0.569   1.751 -1.0727  0.4222 -1.3866
 5310TIP3   OH215893   3.034   0.776   5.066  0.2820 -0.7906 -0.1539
 5310TIP3    H115894   3.056   0.706   5.004 -2.9500 -2.3439  0.2005
 5310TIP3    H215895   2.940   0.765   5.081 -0.2005  3.0586  0.7427
 5311TIP3   OH215896   3.638   4.559   2.674  0.7600  0.0247 -0.0448
 5311TIP3    H115897   3.635   4.556   2.770  0.7184 -0.9779 -0.0696
 5311TIP3    H215898   3.588   4.637   2.651  1.8281  0.9987  0.7965
 5312TIP3   OH215899   3.768   4.926   1.175  0.4522  0.1901 -0.5796
 5312TIP3    H115900   3.742   5.005   1.128  0.5565 -1.3511 -3.4557
 5312TIP3    H215901   3.837   4.887   1.120 -0.7447 -2.7176 -0.2192
 5313TIP3   OH215902   7.077   5.125   2.654 -0.2532  0.4743 -0.4578
 5313TIP3    H115903   7.019   5.057   2.688 -0.1032  1.5270  2.1655
 5313TIP3    H215904   7.159   5.080   2.636 -0.5392 -0.2741  0.0707
 5314TIP3   OH215905   3.960   4.237   2.427  0.1769  0.1332  0.0565
 5314TIP3    H115906   4.026   4.268   2.365 -1.6325  0.7452 -1.6756
 5314TIP3    H215907   3.962   4.142   2.417 -1.3134  0.2530 -2.4579
 5315TIP3   OH215908   6.710   5.995   4.610  0.2661 -0.9197  0.4148
 5315TIP3    H115909   6.695   6.043   4.529  1.9635 -1.0826 -0.0515
 5315TIP3    H215910   6.796   6.026   4.640  0.2076 -1.7509  1.5071
 5316TIP3   OH215911   3.038   2.915   2.387 -0.4245 -0.3350 -0.2959
 5316TIP3    H115912   2.989   2.833   2.380 -0.2148 -0.4694 -0.2116
 5316TIP3    H215913   2.993   2.964   2.456  0.1461 -0.8836  0.4875
 5317TIP3   OH215914   5.179   3.796   1.223 -0.7420 -0.6945  0.0907
 5317TIP3    H115915   5.126   3.725   1.259 -0.4426 -0.1385  1.7004
 5317TIP3    H215916   5.125   3.875   1.235 -1.0326 -0.5970 -1.5862
 5318TIP3   OH215917   5.191   4.212   5.618 -0.2167 -0.2099  0.0781
 5318TIP3    H115918   5.218   4.121   5.607 -1.2932 -0.4592 -0.6532
 5318TIP3    H215919   5.111   4.208   5.669 -0.7939  0.2483 -0.7680
 5319TIP3   OH215920   3.260   6.329   4.254  0.2619 -0.3626  0.4032
 5319TIP3    H115921   3.254   6.324   4.158  2.1319  0.3590  0.2108
 5319TIP3    H215922   3.251   6.422   4.274  0.3652 -0.4561  0.9013
 5320TIP3   OH215923   0.330   0.655   0.106  0.2203 -0.3533 -0.1753
 5320TIP3    H115924   0.277   0.727   0.140  1.5853  1.2552 -1.2740
 5320TIP3    H215925   0.269   0.581   0.100 -1.7186  1.1810 -0.6693
 5321TIP3   OH215926   0.549   3.178   5.338  0.2231 -0.1827  0.2391
 5321TIP3    H115927   0.550   3.269   5.309  0.3154  0.2581  1.5868
 5321TIP3    H215928   0.622   3.172   5.400  1.0509 -1.5182 -0.7992
 5322TIP3   OH215929   5.222   1.107   5.077  0.0254  0.0764  0.2936
 5322TIP3    H115930   5.127   1.106   5.065 -0.1963 -3.3831  1.3613
 5322TIP3    H215931   5.235   1.155   5.159 -0.9196 -0.3606  0.7180
 5323TIP3   OH215932   3.576   5.951   4.180  0.3925 -0.0684  0.0368
 5323TIP3    H115933   3.523   6.021   4.218  1.5522  0.3026  0.9997
 5323TIP3    H215934   3.561   5.876   4.237  0.0200 -0.3049 -0.3614
 5324TIP3   OH215935   5.393   4.636   4.815 -0.5378 -0.1665  0.2466
 5324TIP3    H115936   5.340   4.601   4.887 -0.7549 -0.7334 -0.1801
 5324TIP3    H215937   5.399   4.729   4.833 -3.1065  0.2426 -0.5590
 5325TIP3   OH215938   2.004   6.174   2.454 -0.2674  0.4161  0.5880
 5325TIP3    H115939   2.012   6.239   2.385  1.0494 -0.8261 -0.4928
 5325TIP3    H215940   2.076   6.193   2.514 -0.0675  0.1623  0.4331
 5326TIP3   OH215941   3.195   2.373   3.363 -0.4047 -0.2443 -0.4754
 5326TIP3    H115942   3.128   2.393   3.429 -0.6097  1.9342 -1.2738
 5326TIP3    H215943   3.161   2.412   3.282  1.3505  0.0200 -1.1190
 5327TIP3   OH215944   2.260   2.277   4.736  0.4639  0.0897  0.0106
 5327TIP3    H115945   2.184   2.303   4.684 -0.4187 -0.0592  1.1949
 5327TIP3    H215946   2.227   2.208   4.794  1.9555 -1.2953 -0.7315
 5328TIP3   OH215947   5.531   3.991   3.220  0.5264 -0.5316 -0.0984
 5328TIP3    H115948   5.532   3.981   3.125 -1.0939 -0.0112 -0.2001
 5328TIP3    H215949   5.507   3.904   3.252 -1.0914 -0.2063 -0.3174
 5329TIP3   OH215950   4.391   0.795   1.602 -0.1611 -0.1079 -0.4044
 5329TIP3    H115951   4.482   0.765   1.610  0.0073  0.3964 -0.3634
 5329TIP3    H215952   4.338   0.716   1.615  0.2430 -0.2333  0.5714
 5330TIP3   OH215953   0.444   6.622   3.063 -0.3343  0.1098  0.3063
 5330TIP3    H115954   0.363   6.573   3.076 -0.2976 -0.3138 -0.8847
 5330TIP3    H215955   0.508   6.556   3.037  0.2924  0.4998  0.8369
 5331TIP3   OH215956   5.551   0.657   2.902 -0.0644 -0.0409 -0.0680
 5331TIP3    H115957   5.632   0.704   2.924 -0.7399  1.2229 -0.1653
 5331TIP3    H215958   5.550   0.656   2.806 -0.1979  0.0180 -0.0669
 5332TIP3   OH215959   1.567   0.422   5.517 -0.0483  0.8008  0.1909
 5332TIP3    H115960   1.569   0.334   5.556  0.7005  0.2807 -0.9566
 5332TIP3    H215961   1.590   0.481   5.589  1.3047 -0.1318  0.5651
 5333TIP3   OH215962   3.385   3.705   0.120 -0.0162  0.0591 -0.0722
 5333TIP3    H115963   3.343   3.625   0.089  0.7307 -0.5348  0.3913
 5333TIP3    H215964   3.469   3.675   0.156  0.5211  1.1244 -0.4051
 5334TIP3   OH215965   6.290   3.610   0.846  0.5810 -0.0485 -0.4949
 5334TIP3    H115966   6.230   3.675   0.882 -0.1345 -0.4828 -0.8933
 5334TIP3    H215967   6.293   3.541   0.912  1.3917  0.4028 -0.0421
 5335TIP3   OH215968   2.390   6.172   3.867  0.5435 -0.6252 -0.8216
 5335TIP3    H115969   2.361   6.092   3.911 -1.3756  0.5448  0.1742
 5335TIP3    H215970   2.316   6.197   3.811  0.9461  0.6615 -0.8105
 5336TIP3   OH215971   6.915   4.086   3.815 -0.0061 -0.1546 -0.4243
 5336TIP3    H115972   6.857   4.146   3.768 -0.0849  0.1416  0.0470
 5336TIP3    H215973   6.988   4.140   3.845  0.9331 -0.6767 -1.6933
 5337TIP3   OH215974   2.890   3.543   3.275  0.5744  0.2059  0.1912
 5337TIP3    H115975   2.852   3.455   3.277 -0.9264  0.8151 -0.1754
 5337TIP3    H215976   2.951   3.545   3.349  0.9853 -1.2814 -0.0782
 5338TIP3   OH215977   6.544   1.273   1.394  0.3632  0.0304 -0.7748
 5338TIP3    H115978   6.626   1.262   1.346  1.3483 -0.6883  1.0153
 5338TIP3    H215979   6.476   1.266   1.326  1.6433 -1.9125 -1.9419
 5339TIP3   OH215980   0.116   5.369   4.822 -0.1865  0.3633 -0.2963
 5339TIP3    H115981   0.094   5.460   4.801 -3.8021  0.2488  2.0979
 5339TIP3    H215982   0.196   5.375   4.874 -0.5325  2.2362  0.0861
 5340TIP3   OH215983   2.353   2.505   4.810 -0.0011 -0.2446 -0.2857
 5340TIP3    H115984   2.287   2.566   4.777 -0.9104 -1.3723 -0.6282
 5340TIP3    H215985   2.323   2.419   4.781  1.1657 -0.8838  0.3094
 5341TIP3   OH215986   0.210   4.959   4.019  0.5641 -0.3682  0.4272
 5341TIP3    H115987   0.184   4.868   4.004  3.1335 -1.2977  1.1069
 5341TIP3    H215988   0.204   4.971   4.114  2.0524 -0.4810  0.5585
 5342TIP3   OH215989   0.808   3.240   0.434 -0.1184  0.2075 -0.0921
 5342TIP3    H115990   0.792   3.327   0.398  1.3144 -0.0003 -1.3614
 5342TIP3    H215991   0.897   3.218   0.405  0.2837 -0.9112  1.7937
 5343TIP3   OH215992   5.906   4.094   4.996  0.0271  0.3155  0.5043
 5343TIP3    H115993   5.825   4.043   4.995  0.2362 -0.0278  0.8034
 5343TIP3    H215994   5.888   4.166   5.057 -0.1606  0.4221  0.3242
 5344TIP3   OH215995   2.091   5.080   0.778 -0.4042  0.7079  0.1390
 5344TIP3    H115996   2.142   5.029   0.841 -1.9466 -0.0672  0.8020
 5344TIP3    H215997   2.111   5.171   0.799  1.4891  0.4238 -0.3023
 5345TIP3   OH215998   1.680   0.698   4.057 -0.1117 -0.4464  0.1201
 5345TIP3    H115999   1.584   0.704   4.060 -0.1243 -0.7597  0.3040
 5345TIP3    H216000   1.697   0.624   3.998  0.0114 -0.7269  0.5087
 5346TIP3   OH216001   6.798   1.843   0.125  0.1715  0.2609  0.2292
 5346TIP3    H116002   6.793   1.748   0.137  1.0108  0.2138  0.2785
 5346TIP3    H216003   6.802   1.854   0.030  1.1913  0.1700  0.2504
 5347TIP3   OH216004   5.330   3.190   2.043 -0.4525 -0.6328 -0.4580
 5347TIP3    H116005   5.284   3.131   2.103 -0.1471 -0.3372  0.0655
 5347TIP3    H216006   5.332   3.274   2.089 -0.6947 -0.2611 -1.1088
 5348TIP3   OH216007   3.343   1.530   3.336  0.2039  0.0507 -0.7912
 5348TIP3    H116008   3.344   1.624   3.356  0.9058 -0.3525  1.3960
 5348TIP3    H216009   3.250   1.506   3.336 -0.0662 -0.2430  4.7506
 5349TIP3   OH216010   0.024   3.719   0.690 -0.4478 -0.1310  0.2122
 5349TIP3    H116011  -0.012   3.800   0.653 -0.4064 -0.1913  0.0405
 5349TIP3    H216012   0.116   3.720   0.664  0.1478  0.9042  2.1091
 5350TIP3   OH216013   3.345   6.250   1.985  0.4618  0.3339 -0.0648
 5350TIP3    H116014   3.407   6.314   2.018  0.1393  0.1080  1.0037
 5350TIP3    H216015   3.307   6.210   2.063  0.4972 -1.0090 -0.7015
 5351TIP3   OH216016   1.090   5.934   3.116  0.3885 -0.1757  0.0446
 5351TIP3    H116017   1.077   6.005   3.053 -0.2556 -0.7534 -0.4738
 5351TIP3    H216018   1.137   5.867   3.068  0.2467 -0.4565  0.2952
 5352TIP3   OH216019   5.034   0.385   4.774  0.0426 -0.1664 -0.5547
 5352TIP3    H116020   5.007   0.323   4.843 -1.3727  1.6349  0.5942
 5352TIP3    H216021   5.130   0.388   4.781  0.0689 -1.5224 -0.0244
 5353TIP3   OH216022   2.352   0.371   5.646  0.5700 -0.3654  0.6980
 5353TIP3    H116023   2.412   0.309   5.603  0.3902  0.7583 -1.3212
 5353TIP3    H216024   2.265   0.339   5.623  0.4480 -0.3091  1.0848
 5354TIP3   OH216025   4.495   5.374   3.252  0.5050  0.7456 -0.2903
 5354TIP3    H116026   4.463   5.284   3.242  0.7212  0.6253  0.0538
 5354TIP3    H216027   4.584   5.372   3.215 -0.1452  1.2718 -1.9895
 5355TIP3   OH216028   2.580   4.711   4.629  0.4303 -0.0953 -0.0042
 5355TIP3    H116029   2.665   4.668   4.620 -0.1911 -1.1434 -1.0898
 5355TIP3    H216030   2.526   4.649   4.677  0.6432  1.1488  1.9512
 5356TIP3   OH216031   6.874   6.112   2.912  0.3762 -0.3278 -0.4658
 5356TIP3    H116032   6.794   6.161   2.929 -0.9015 -1.8769 -1.6477
 5356TIP3    H216033   6.864   6.031   2.961  0.9241 -0.8131 -1.1370
 5357TIP3   OH216034   6.508   1.875   3.503 -0.0993 -0.1802  0.2576
 5357TIP3    H116035   6.512   1.780   3.489 -1.2538  0.0269 -2.0959
 5357TIP3    H216036   6.561   1.912   3.432  0.1543  0.9505  1.0064
 5358TIP3   OH216037   4.731   4.021   0.346 -0.1458  0.2414 -0.3253
 5358TIP3    H116038   4.636   4.037   0.344  0.0427  1.5628  0.4078
 5358TIP3    H216039   4.739   3.928   0.327 -1.6989 -0.2610  1.2117
 5359TIP3   OH216040   1.239   2.944   1.092 -0.1107  0.7481 -0.0054
 5359TIP3    H116041   1.236   2.908   1.004 -0.7151 -0.2847  0.4188
 5359TIP3    H216042   1.333   2.952   1.112  0.0288  1.0113 -0.7305
 5360TIP3   OH216043   5.711   6.579   1.045  0.1500 -0.0800  0.1670
 5360TIP3    H116044   5.685   6.490   1.022 -0.8181  0.1934  0.1626
 5360TIP3    H216045   5.685   6.589   1.136  0.0621  0.2622  0.1060
 5361TIP3   OH216046   4.347   1.930   5.276  0.0838 -0.0798  0.0581
 5361TIP3    H116047   4.309   1.904   5.191  0.9012 -0.7944 -0.1100
 5361TIP3    H216048   4.274   1.924   5.337  0.1670 -2.8554  0.0235
 5362TIP3   OH216049   5.757   5.953   5.726 -0.3889 -0.4095  0.4527
 5362TIP3    H116050   5.765   5.889   5.798 -0.0096 -0.6423  0.2095
 5362TIP3    H216051   5.768   6.038   5.769  2.0547 -0.6278  0.3969
 5363TIP3   OH216052   6.440   2.880   4.829 -0.1903  0.2614 -0.1740
 5363TIP3    H116053   6.445   2.917   4.917 -1.2938  0.3964 -0.1515
 5363TIP3    H216054   6.402   2.950   4.776 -1.5431 -0.5342 -0.2963
 5364TIP3   OH216055   1.318   3.528   0.608 -0.2792  0.0730 -0.4414
 5364TIP3    H116056   1.243   3.472   0.625 -0.1435 -0.3285 -1.1291
 5364TIP3    H216057   1.373   3.478   0.548  1.9150 -0.8180  2.0787
 5365TIP3   OH216058   4.512   2.583   3.804  0.0786 -0.7700 -0.1092
 5365TIP3    H116059   4.517   2.552   3.894  0.1281 -2.4239 -0.6533
 5365TIP3    H216060   4.466   2.667   3.810  0.2334 -0.7739  1.4652
 5366TIP3   OH216061   2.259   5.061   2.775  0.0524  0.2347 -0.0889
 5366TIP3    H116062   2.222   5.145   2.749 -0.1254  0.2721  0.2816
 5366TIP3    H216063   2.287   5.021   2.693  0.4070  0.7814 -0.2412
 5367TIP3   OH216064   2.359   2.610   5.120  0.1333  0.1718 -0.2388
 5367TIP3    H116065   2.388   2.527   5.158  0.7676  0.2645 -0.4975
 5367TIP3    H216066   2.411   2.619   5.040 -1.5810 -0.2956 -1.4682
 5368TIP3   OH216067   7.143   0.423   4.665  0.2059  0.3952  0.2673
 5368TIP3    H116068   7.194   0.344   4.647 -0.0287 -0.0987  1.6330
 5368TIP3    H216069   7.092   0.437   4.585  2.0797  0.6278 -0.9598
 5369TIP3   OH216070   4.113   3.608   3.508 -0.3525 -0.0364 -0.1665
 5369TIP3    H116071   4.205   3.582   3.508 -0.6848 -1.3090 -0.0932
 5369TIP3    H216072   4.072   3.548   3.445 -0.9741  1.1419 -0.9169
 5370TIP3   OH216073   4.522   0.610   3.381  0.1339 -0.5847 -0.1851
 5370TIP3    H116074   4.441   0.566   3.356 -0.3357 -0.3899  0.9258
 5370TIP3    H216075   4.585   0.585   3.314 -0.8821 -0.6275 -1.1433
 5371TIP3   OH216076   6.194   3.820   1.609  0.2246 -0.5467 -0.2516
 5371TIP3    H116077   6.116   3.836   1.555  0.4151  0.3779 -0.2816
 5371TIP3    H216078   6.246   3.758   1.558  0.7138  0.8118 -1.4838
 5372TIP3   OH216079   3.291   2.104   2.236 -0.0269  0.2053 -0.3047
 5372TIP3    H116080   3.211   2.072   2.277  0.9636  0.5696  2.0977
 5372TIP3    H216081   3.305   2.191   2.274  0.2832  1.2074 -2.4987
 5373TIP3   OH216082   3.678   3.640   3.027 -0.0929  0.5457 -0.3198
 5373TIP3    H116083   3.668   3.690   3.108  0.3425  0.1496 -0.0161
 5373TIP3    H216084   3.655   3.702   2.957 -1.0208  0.7294  0.1307
 5374TIP3   OH216085   6.367   1.748   3.241 -0.2118  0.1690 -0.0930
 5374TIP3    H116086   6.318   1.828   3.259 -0.7262 -0.1049 -0.2419
 5374TIP3    H216087   6.448   1.777   3.200 -0.3746  0.6125 -0.0982
 5375TIP3   OH216088   0.646   5.838   1.812  0.1895  0.5773 -0.2982
 5375TIP3    H116089   0.577   5.816   1.749 -0.0481 -1.5554  0.5989
 5375TIP3    H216090   0.611   5.808   1.896  2.1844 -0.5865  0.1861
 5376TIP3   OH216091   7.182   1.758   4.204 -0.4139 -0.7643 -0.3326
 5376TIP3    H116092   7.212   1.722   4.287 -0.5955 -0.1117  0.0312
 5376TIP3    H216093   7.103   1.708   4.183  1.1280 -2.8377 -1.5592
 5377TIP3   OH216094   2.691   2.654   4.038  0.0780  0.2938  0.6105
 5377TIP3    H116095   2.717   2.736   3.995  1.1033  0.2468  1.1061
 5377TIP3    H216096   2.626   2.681   4.103 -0.4336  0.5526  0.0042
 5378TIP3   OH216097   1.621   5.934   2.106  0.1482 -0.2159 -0.1394
 5378TIP3    H116098   1.695   5.879   2.133 -0.7060 -0.8107  1.0857
 5378TIP3    H216099   1.593   5.896   2.023 -1.4865 -2.8030  1.4642
 5379TIP3   OH216100   3.077   0.833   5.566 -0.4463  0.2548  0.3953
 5379TIP3    H116101   3.159   0.795   5.537 -1.3751 -0.8495 -0.8868
 5379TIP3    H216102   3.032   0.761   5.611 -0.7585  0.8335  1.0347
 5380TIP3   OH216103   6.370   4.275   0.052 -0.0053  0.2198  0.0904
 5380TIP3    H116104   6.327   4.319  -0.022  3.3947 -0.5927 -2.6376
 5380TIP3    H216105   6.421   4.344   0.094 -1.0340  0.4348  1.0466
 5381TIP3   OH216106   1.193   6.545   4.161 -0.2810  0.2217 -0.2107
 5381TIP3    H116107   1.132   6.518   4.229 -1.8358 -0.9136 -1.9871
 5381TIP3    H216108   1.278   6.514   4.192 -1.1650 -1.6075  0.5559
 5382TIP3   OH216109   1.687   1.664   4.400  0.0183 -0.6634 -0.0309
 5382TIP3    H116110   1.710   1.686   4.491 -0.3503 -0.9922  0.1428
 5382TIP3    H216111   1.750   1.596   4.376 -0.5210 -1.3024  0.3236
 5383TIP3   OH216112   2.034   0.381   4.910  0.0305 -0.1279  0.3562
 5383TIP3    H116113   2.010   0.437   4.984 -0.1372 -2.9130  2.5408
 5383TIP3    H216114   1.978   0.412   4.838 -2.0923  0.6858  2.2464
 5384TIP3   OH216115   0.220   6.210   3.942  0.1304  1.0895 -0.2064
 5384TIP3    H116116   0.303   6.169   3.916 -0.4115  0.3499 -0.8185
 5384TIP3    H216117   0.165   6.137   3.969  0.0370  1.6759  1.3026
 5385TIP3   OH216118   2.636   6.046   5.693 -0.2669 -0.0279  0.3135
 5385TIP3    H116119   2.561   5.991   5.713  0.1350 -0.3075  1.0778
 5385TIP3    H216120   2.626   6.122   5.750 -0.3225  0.2472 -0.0631
 5386TIP3   OH216121   4.600   6.497   3.685  0.6371  0.0270 -0.4631
 5386TIP3    H116122   4.630   6.473   3.772 -0.0829  0.6300 -0.0362
 5386TIP3    H216123   4.597   6.593   3.686 -0.0898  0.0183 -0.8937
 5387TIP3   OH216124   2.018   1.176   1.939  0.3892  0.0698  0.4576
 5387TIP3    H116125   1.994   1.085   1.919  1.1602 -0.2403  0.9048
 5387TIP3    H216126   2.064   1.207   1.862  2.2160 -0.7041  1.1745
 5388TIP3   OH216127   6.297   3.034   3.722 -0.2115 -0.2108 -0.1047
 5388TIP3    H116128   6.315   2.940   3.724  1.1350 -0.0118 -1.2163
 5388TIP3    H216129   6.302   3.062   3.814 -2.9724 -1.5661  0.5735
 5389TIP3   OH216130   0.192   4.424   3.238 -0.0958 -0.1314  0.0655
 5389TIP3    H116131   0.231   4.510   3.250 -1.7582  0.7791 -0.6969
 5389TIP3    H216132   0.258   4.363   3.269  0.7379  1.4615  1.5988
 5390TIP3   OH216133   4.466   1.398   1.076  0.2296 -0.2474 -0.2996
 5390TIP3    H116134   4.552   1.435   1.056  0.0751  1.0891  1.3247
 5390TIP3    H216135   4.483   1.333   1.144 -0.2155  1.6194  1.7215
 5391TIP3   OH216136   0.709   0.065   3.449 -0.1113  0.2746 -0.8787
 5391TIP3    H116137   0.762   0.139   3.478  0.0253  0.6558 -2.0318
 5391TIP3    H216138   0.657   0.101   3.377 -0.3694 -0.6398 -1.1537
 5392TIP3   OH216139   3.330   4.154   2.162  0.0372 -0.1158  0.4414
 5392TIP3    H116140   3.251   4.200   2.135  0.2657 -0.6641 -1.3070
 5392TIP3    H216141   3.383   4.221   2.204 -0.4768  0.7714 -0.2740
 5393TIP3   OH216142   2.138   1.749   4.840 -0.0591 -0.4358  0.0967
 5393TIP3    H116143   2.070   1.795   4.789  0.4537  1.0668  0.7051
 5393TIP3    H216144   2.185   1.819   4.886  2.0018 -1.4037 -0.4013
 5394TIP3   OH216145   1.320   0.739   3.519  0.1774 -0.3320 -0.2898
 5394TIP3    H116146   1.337   0.685   3.442  1.6701 -0.6231  0.2058
 5394TIP3    H216147   1.382   0.707   3.585 -0.9295  0.0254  0.9872
 5395TIP3   OH216148   2.538   4.395   3.165  0.0337  0.3211 -0.0628
 5395TIP3    H116149   2.593   4.428   3.236 -1.8275  0.0146  1.6094
 5395TIP3    H216150   2.553   4.456   3.093 -0.7940  2.9335  1.8197
 5396TIP3   OH216151   6.297   3.645   1.426  0.4116 -0.0996 -0.3268
 5396TIP3    H116152   6.230   3.577   1.430 -0.1545  0.3538 -1.4599
 5396TIP3    H216153   6.379   3.598   1.410  0.0734 -0.5461 -0.7884
 5397TIP3   OH216154   6.610   2.542   5.263 -0.3109 -0.4995 -0.3236
 5397TIP3    H116155   6.687   2.496   5.230  1.8073  2.3535  0.2951
 5397TIP3    H216156   6.603   2.620   5.208 -2.4596 -0.3761  0.0185
 5398TIP3   OH216157   3.731   0.014   3.577  0.4568 -0.2212  0.0013
 5398TIP3    H116158   3.744   0.109   3.573  1.6374 -0.3962 -1.2673
 5398TIP3    H216159   3.661   0.002   3.641  1.1494  1.4216  1.1639
 5399TIP3   OH216160   5.323   1.571   5.504 -0.4397 -0.1287 -0.7480
 5399TIP3    H116161   5.409   1.600   5.475 -0.0131 -0.8106 -0.2073
 5399TIP3    H216162   5.283   1.532   5.427 -0.8133  1.3769 -1.3495
 5400TIP3   OH216163   1.916   6.579   3.057  0.3461 -0.0934 -0.0541
 5400TIP3    H116164   1.982   6.510   3.059  0.6540  0.1795 -0.7484
 5400TIP3    H216165   1.833   6.532   3.062  0.5470 -0.5422 -0.7620
 5401TIP3   OH216166   5.803   5.817   0.454 -0.1008  0.6105 -0.5098
 5401TIP3    H116167   5.846   5.786   0.374  1.7875 -0.8283  0.9608
 5401TIP3    H216168   5.874   5.855   0.506 -0.8715 -0.3622  1.3213
 5402TIP3   OH216169   5.640   5.676   0.128 -0.3312 -0.2072 -0.4294
 5402TIP3    H116170   5.705   5.746   0.129  0.9148 -1.3207 -0.4749
 5402TIP3    H216171   5.685   5.600   0.165 -0.8281 -1.6633 -2.6077
 5403TIP3   OH216172   2.065   1.195   4.113 -0.2029 -0.0435  0.3210
 5403TIP3    H116173   2.075   1.106   4.080  2.4587  0.9506 -1.8926
 5403TIP3    H216174   2.008   1.238   4.050  1.2190  0.6517 -0.5385
 5404TIP3   OH216175   2.022   1.765   4.491  0.3417  0.1070 -0.3293
 5404TIP3    H116176   1.991   1.709   4.562  0.5157 -0.5483 -0.7599
 5404TIP3    H216177   2.068   1.705   4.432  0.8216  0.7605 -0.6276
 5405TIP3   OH216178   4.479   4.734   0.929  0.1492  0.1120 -0.1912
 5405TIP3    H116179   4.525   4.803   0.975  1.5295 -0.3162 -0.8793
 5405TIP3    H216180   4.517   4.653   0.964  0.3733 -0.2345 -1.2132
 5406TIP3   OH216181   6.737   6.681   5.793 -0.3988 -0.1929  0.1412
 5406TIP3    H116182   6.692   6.598   5.778 -0.6171  0.0551 -0.6629
 5406TIP3    H216183   6.788   6.668   5.873  0.4091 -1.4439 -0.5482
 5407TIP3   OH216184   6.074   2.777   3.917  0.2191 -0.2646 -0.3150
 5407TIP3    H116185   5.991   2.750   3.877  0.3132  1.6803 -1.9965
 5407TIP3    H216186   6.049   2.810   4.003 -0.7327  0.0872 -0.7142
 5408TIP3   OH216187   6.391   2.653   1.143 -0.4844 -0.3242 -0.2893
 5408TIP3    H116188   6.457   2.696   1.198  0.0642 -0.2063 -1.0320
 5408TIP3    H216189   6.440   2.589   1.092 -0.8738  0.0069 -1.1066
 5409TIP3   OH216190   7.074   6.354   1.941  0.0644 -0.3097 -0.4216
 5409TIP3    H116191   7.116   6.302   1.873 -0.7406  0.4737 -1.5657
 5409TIP3    H216192   6.988   6.314   1.952 -0.1713  0.1481 -0.5748
 5410TIP3   OH216193   1.515   1.899   1.539 -0.7584  0.0997  1.0560
 5410TIP3    H116194   1.429   1.867   1.514 -0.1585 -0.2335 -0.7141
 5410TIP3    H216195   1.509   1.994   1.531 -0.7798  0.0363  0.2639
 5411TIP3   OH216196   1.968   5.695   2.308  0.1386 -0.0761 -0.2501
 5411TIP3    H116197   1.945   5.786   2.328 -0.6346 -0.1359 -0.8165
 5411TIP3    H216198   1.884   5.650   2.298  0.5073 -0.6576 -0.8326
 5412TIP3   OH216199   2.081   6.586   0.206 -0.2098  0.4472 -0.3673
 5412TIP3    H116200   2.011   6.601   0.143  0.3845  1.5711 -0.8009
 5412TIP3    H216201   2.151   6.544   0.156 -0.4464 -0.3945 -0.0068
 5413TIP3   OH216202   5.028   0.666   3.810  0.1309 -0.2984  0.3454
 5413TIP3    H116203   5.102   0.627   3.763  1.1959  1.1007  0.8221
 5413TIP3    H216204   4.952   0.618   3.777  0.7011  1.0445 -3.4343
 5414TIP3   OH216205   2.571   5.956   0.649 -0.0838  0.7636 -0.4823
 5414TIP3    H116206   2.537   6.030   0.599 -1.2280  0.5806  0.0001
 5414TIP3    H216207   2.575   5.885   0.584  0.3416  1.0573 -0.7800
 5415TIP3   OH216208   4.941   2.024   2.566 -0.2134 -0.2003 -0.1429
 5415TIP3    H116209   5.008   2.014   2.634 -0.9158 -0.9181  0.4544
 5415TIP3    H216210   4.876   2.082   2.604 -1.5777 -2.1125  0.5890
 5416TIP3   OH216211   2.568   4.701   3.260 -0.4752 -0.5229  0.0404
 5416TIP3    H116212   2.623   4.716   3.337 -1.2223 -2.2501  0.9709
 5416TIP3    H216213   2.619   4.735   3.187 -1.0341  4.2030  1.5096
 5417TIP3   OH216214   6.601   1.161   2.471  0.3261  0.2303  0.1220
 5417TIP3    H116215   6.594   1.235   2.411  1.3472 -0.1445 -0.4818
 5417TIP3    H216216   6.532   1.177   2.537 -0.0814  1.2145 -0.5168
 5418TIP3   OH216217   1.452   2.878   3.177  0.2786 -0.0221 -0.4526
 5418TIP3    H116218   1.417   2.801   3.133  0.6919  0.7809 -2.3009
 5418TIP3    H216219   1.376   2.935   3.189  0.0043 -0.6186  0.7537
 5419TIP3   OH216220   6.608   5.312   5.394  0.1776  0.1207  0.6354
 5419TIP3    H116221   6.688   5.365   5.385  1.0264 -1.1009  0.7642
 5419TIP3    H216222   6.537   5.374   5.378  1.1262  1.3522  0.9879
 5420TIP3   OH216223   5.434   1.245   4.592  0.2208  0.2016 -0.1115
 5420TIP3    H116224   5.453   1.155   4.564  0.6592 -0.4742  2.1519
 5420TIP3    H216225   5.519   1.281   4.617  0.1578  1.5449 -1.6339
 5421TIP3   OH216226   5.527   1.862   1.821  0.5747  0.3138  0.5331
 5421TIP3    H116227   5.501   1.786   1.872  2.8794 -1.4693 -0.7513
 5421TIP3    H216228   5.545   1.930   1.886 -0.0060 -0.7279  1.8284
 5422TIP3   OH216229   0.189   3.033   4.011 -0.1592  0.0552  0.1024
 5422TIP3    H116230   0.207   2.942   3.987 -0.2358 -0.3151  1.3527
 5422TIP3    H216231   0.260   3.056   4.071 -0.1265  0.8363 -0.2226
 5423TIP3   OH216232   3.282   1.123   0.559 -0.0042 -0.3324  0.3308
 5423TIP3    H116233   3.363   1.076   0.541  0.9131 -0.0429  3.2322
 5423TIP3    H216234   3.293   1.208   0.516  1.8969  0.2518  1.8425
 5424TIP3   OH216235   4.293   5.676   3.465  0.2771 -0.6612 -0.1099
 5424TIP3    H116236   4.327   5.699   3.378  0.2943  0.0029  0.0640
 5424TIP3    H216237   4.338   5.595   3.488 -0.7632 -1.5999 -1.3086
 5425TIP3   OH216238   4.615   4.212   0.665  0.1294 -0.0178  0.0433
 5425TIP3    H116239   4.664   4.132   0.650 -1.1871 -0.8521  0.0544
 5425TIP3    H216240   4.548   4.213   0.596 -1.8426 -0.5452  1.8515
 5426TIP3   OH216241   1.042   2.402   5.267  0.0388 -0.8304  0.2271
 5426TIP3    H116242   0.984   2.354   5.327  0.1607  0.5813  1.5317
 5426TIP3    H216243   1.094   2.459   5.324  0.5610  0.1693 -1.1895
 5427TIP3   OH216244   4.007   0.059   2.102 -0.0172 -0.1737 -0.9001
 5427TIP3    H116245   4.097   0.028   2.116  0.5995  0.9314 -2.1667
 5427TIP3    H216246   4.009   0.096   2.014 -0.9318  2.5832  0.1632
 5428TIP3   OH216247   1.126   4.624   2.726 -0.0598  0.1916 -0.0110
 5428TIP3    H116248   1.074   4.654   2.800  0.2563 -0.1850  0.3674
 5428TIP3    H216249   1.191   4.566   2.764  0.4865  0.4605 -0.5091
 5429TIP3   OH216250   7.158   5.297   5.678 -0.0233  0.0415  0.0790
 5429TIP3    H116251   7.065   5.288   5.697  0.1399 -0.0992  0.8416
 5429TIP3    H216252   7.161   5.321   5.585 -1.0328  3.9468  0.8591
 5430TIP3   OH216253   2.525   1.072   0.040  0.3815  0.7291 -0.2137
 5430TIP3    H116254   2.466   1.064   0.114  0.5294 -0.1762 -0.1819
 5430TIP3    H216255   2.469   1.100  -0.033 -0.1225 -0.2278 -0.2123
 5431TIP3   OH216256   3.753   2.836   0.197  0.4164 -0.3958  0.2311
 5431TIP3    H116257   3.729   2.927   0.183  1.0635 -0.1378  0.7445
 5431TIP3    H216258   3.845   2.839   0.223  0.2843 -1.1374  0.8395
 5432TIP3   OH216259   3.655   5.856   1.311  0.3705  0.0945 -0.3774
 5432TIP3    H116260   3.707   5.934   1.332 -0.7067  0.8788 -0.5770
 5432TIP3    H216261   3.701   5.817   1.237 -0.2849  1.7846 -1.7476
 5433TIP3   OH216262   1.707   2.926   0.805 -0.0271  0.6373  0.0242
 5433TIP3    H116263   1.630   2.934   0.748 -0.3940  0.7823  0.5280
 5433TIP3    H216264   1.734   3.016   0.822 -0.0538  0.6008  0.2588
 5434TIP3   OH216265   0.850   1.895   3.847 -0.4275  0.1359 -0.0607
 5434TIP3    H116266   0.897   1.816   3.820 -0.0333 -0.0880  1.2398
 5434TIP3    H216267   0.784   1.908   3.779 -0.0822 -0.9461 -0.6171
 5435TIP3   OH216268   5.618   4.340   5.771  1.0103  0.7144 -0.3911
 5435TIP3    H116269   5.548   4.306   5.826  1.9693 -2.0936 -0.6985
 5435TIP3    H216270   5.630   4.431   5.799 -0.2691  0.1716  2.1955
 5436TIP3   OH216271   6.616   2.809   3.929 -0.4980 -0.0676  0.0870
 5436TIP3    H116272   6.709   2.793   3.912  0.3531  2.3012  1.8432
 5436TIP3    H216273   6.572   2.790   3.847  2.0448  1.9266 -1.9012
 5437TIP3   OH216274   3.553   0.820   2.963  0.0527 -0.1049 -0.4271
 5437TIP3    H116275   3.527   0.777   2.881 -0.4090  0.5154 -0.6129
 5437TIP3    H216276   3.556   0.749   3.027 -2.4905 -0.1926 -0.3067
 5438TIP3   OH216277   6.263   1.112   2.902  0.7794 -0.8108 -0.3475
 5438TIP3    H116278   6.322   1.059   2.957  0.6113 -0.9560 -0.3040
 5438TIP3    H216279   6.240   1.187   2.957 -0.8404 -1.8601  0.5054
 5439TIP3   OH216280   0.592   0.124   2.616  0.0227 -0.3862 -0.2297
 5439TIP3    H116281   0.674   0.164   2.588 -0.0836  0.5769  0.7865
 5439TIP3    H216282   0.615   0.067   2.689 -0.1199 -0.6589 -0.3926
 5440TIP3   OH216283   4.695   4.195   2.854 -0.2638 -0.0189 -0.5161
 5440TIP3    H116284   4.633   4.212   2.784  0.2673 -1.4148 -1.3676
 5440TIP3    H216285   4.642   4.194   2.934 -1.0308  0.6152 -1.0124
 5441TIP3   OH216286   0.091   0.456   1.587  0.1884  0.2548  0.6761
 5441TIP3    H116287   0.072   0.544   1.554  0.2852  1.1811  2.8918
 5441TIP3    H216288   0.036   0.398   1.535  0.1865  1.6106 -0.8940
 5442TIP3   OH216289   0.702   0.809   0.705 -0.0747 -0.2169  0.1573
 5442TIP3    H116290   0.699   0.714   0.705  2.0852 -0.3304  0.1635
 5442TIP3    H216291   0.779   0.831   0.653 -1.0515  1.5708 -0.6324
 5443TIP3   OH216292   0.573   5.184   5.846  0.4443 -0.1127  0.1119
 5443TIP3    H116293   0.584   5.258   5.906 -0.0117  1.2952 -1.4602
 5443TIP3    H216294   0.494   5.205   5.796  1.1835 -0.8637 -1.4529
 5444TIP3   OH216295   6.597   2.556   2.309  1.0064  0.2016 -0.1375
 5444TIP3    H116296   6.683   2.587   2.337  0.9446 -0.2587  0.6084
 5444TIP3    H216297   6.616   2.489   2.244  1.2139  0.1741 -0.0500
 5445TIP3   OH216298   5.489   0.917   3.355  0.6247 -0.4196 -0.1122
 5445TIP3    H116299   5.434   0.842   3.381  0.0869 -0.3101 -0.9083
 5445TIP3    H216300   5.561   0.878   3.306  0.5848 -0.4552 -0.1432
 5446TIP3   OH216301   4.476   2.745   5.689  0.3056  0.3985  0.6440
 5446TIP3    H116302   4.433   2.812   5.742 -0.8208 -0.8431  1.3601
 5446TIP3    H216303   4.431   2.748   5.604  0.2622  0.5524  0.6736
 5447TIP3   OH216304   2.180   0.173   1.587 -0.4029 -0.2959 -0.2307
 5447TIP3    H116305   2.085   0.187   1.590 -0.7842 -2.3847 -0.7973
 5447TIP3    H216306   2.190   0.081   1.560  1.7887 -0.0812 -0.3463
 5448TIP3   OH216307   5.914   0.521   1.771  0.1592  0.1757  0.5520
 5448TIP3    H116308   5.894   0.444   1.718  3.0898 -0.6537  0.4838
 5448TIP3    H216309   5.846   0.523   1.838 -0.4358 -1.9830  0.0779
 5449TIP3   OH216310   2.589   4.303   0.922 -0.1943  0.5545  0.2901
 5449TIP3    H116311   2.515   4.361   0.943  0.0534  0.8730  0.2895
 5449TIP3    H216312   2.656   4.362   0.888  0.2025  0.3133  0.6532
 5450TIP3   OH216313   0.839   2.135   3.631 -0.2353  0.3448 -0.0231
 5450TIP3    H116314   0.862   2.094   3.548  2.6002 -1.4371  1.5211
 5450TIP3    H216315   0.767   2.082   3.665  1.1359 -1.3388  0.3654
 5451TIP3   OH216316   0.136   5.937   0.460  0.3277  0.4260 -0.1953
 5451TIP3    H116317   0.218   5.893   0.481  0.5557  1.4432  1.1712
 5451TIP3    H216318   0.077   5.912   0.531 -0.5676 -0.2908 -1.1631
 5452TIP3   OH216319   2.872   2.622   3.290  0.0485 -0.1877 -0.3348
 5452TIP3    H116320   2.808   2.675   3.338  1.7611  1.7330 -0.0256
 5452TIP3    H216321   2.875   2.662   3.203  2.4609  1.3453  0.3549
 5453TIP3   OH216322   5.125   3.222   5.533  0.2536 -0.0113 -0.0167
 5453TIP3    H116323   5.093   3.301   5.490 -0.5598  0.2639  1.0491
 5453TIP3    H216324   5.047   3.183   5.573  1.0939  0.2737  2.0266
 5454TIP3   OH216325   6.331   5.874   2.701  0.6366 -0.2709  0.5125
 5454TIP3    H116326   6.306   5.951   2.753  0.9717 -0.7565  1.4237
 5454TIP3    H216327   6.426   5.884   2.688  0.5286 -0.0710 -0.1632
 5455TIP3   OH216328   5.841   4.214   5.623  0.2482  0.3496  0.8799
 5455TIP3    H116329   5.799   4.202   5.538  1.6367 -0.3860  0.2622
 5455TIP3    H216330   5.777   4.263   5.675 -0.0618  2.0548 -1.0202
 5456TIP3   OH216331   4.630   3.796   0.530  0.0519 -0.4029  0.7526
 5456TIP3    H116332   4.638   3.769   0.438 -3.1718  1.8536 -0.3806
 5456TIP3    H216333   4.561   3.741   0.565 -0.3599  0.3044  1.0800
 5457TIP3   OH216334   1.057   4.095   1.073 -0.0070 -0.4742  0.0368
 5457TIP3    H116335   0.985   4.111   1.013 -0.2231 -0.3396  0.3255
 5457TIP3    H216336   1.129   4.147   1.039 -0.0897 -0.4939 -0.1704
 5458TIP3   OH216337   4.269   6.616   4.335  0.0824  0.5630  0.8167
 5458TIP3    H116338   4.224   6.536   4.311  0.5840  0.5545 -0.1510
 5458TIP3    H216339   4.214   6.687   4.300  1.1216  0.5344 -1.0190
 5459TIP3   OH216340   6.299   5.620   3.408  0.1381 -0.0654  0.2678
 5459TIP3    H116341   6.326   5.711   3.413  0.1002 -0.0961  3.5502
 5459TIP3    H216342   6.205   5.623   3.388 -0.1238  0.7159  1.5410
 5460TIP3   OH216343   0.559   6.604   0.899  0.0930  0.1618  0.3303
 5460TIP3    H116344   0.648   6.586   0.870 -0.1287 -0.7234  0.1843
 5460TIP3    H216345   0.569   6.636   0.989  0.6065  0.7815  0.0608
 5461TIP3   OH216346   1.569   0.406   1.208  0.4762  0.6349 -0.1796
 5461TIP3    H116347   1.574   0.359   1.124  2.0203 -0.4816  0.4890
 5461TIP3    H216348   1.576   0.499   1.184  0.7786  0.3418 -1.2895
 5462TIP3   OH216349   3.516   5.808   1.544  0.1835  0.2687 -0.1141
 5462TIP3    H116350   3.556   5.781   1.461  1.6001  0.5860  0.4381
 5462TIP3    H216351   3.565   5.886   1.570  0.3044 -0.2884  1.4215
 5463TIP3   OH216352   2.662   6.012   2.901 -0.1463  0.0076  0.0927
 5463TIP3    H116353   2.706   5.927   2.907  1.5125  0.8430  0.3873
 5463TIP3    H216354   2.659   6.044   2.991 -1.1162  0.0979  0.0356
 5464TIP3   OH216355   1.495   2.518   2.611 -0.1374 -0.0667 -0.1999
 5464TIP3    H116356   1.533   2.581   2.671 -0.7450  0.8619 -0.7545
 5464TIP3    H216357   1.568   2.462   2.584 -0.1088 -1.4431  2.4737
 5465TIP3   OH216358   6.178   1.399   5.195 -0.4873  0.0358  0.1232
 5465TIP3    H116359   6.146   1.489   5.198  0.3620  0.3776 -0.4231
 5465TIP3    H216360   6.100   1.345   5.179 -0.9658  0.6993  0.2090
 5466TIP3   OH216361   3.202   0.544   4.045 -0.6845 -0.0479  0.0923
 5466TIP3    H116362   3.115   0.581   4.060 -1.0333 -0.3056 -1.1667
 5466TIP3    H216363   3.195   0.454   4.076 -0.9542 -0.1559 -0.2830
 5467TIP3   OH216364   4.545   4.907   4.291 -0.2338 -0.2385 -0.0982
 5467TIP3    H116365   4.544   5.001   4.271  1.4153 -0.1074  0.3249
 5467TIP3    H216366   4.583   4.867   4.213  1.4159 -0.2571  0.6702
 5468TIP3   OH216367   5.968   2.070   5.233 -0.7292 -1.1094 -0.3463
 5468TIP3    H116368   5.993   2.106   5.148 -0.9604  0.1292  0.0846
 5468TIP3    H216369   5.926   1.986   5.212  0.5825 -1.5554 -1.3226
 5469TIP3   OH216370   5.005   4.780   4.246  1.0185  0.1972 -0.7533
 5469TIP3    H116371   5.065   4.735   4.305  1.0103  1.5183  0.3032
 5469TIP3    H216372   4.925   4.727   4.248  0.3856  1.1127  1.8318
 5470TIP3   OH216373   6.277   0.750   2.336  1.3051  0.0423 -0.8414
 5470TIP3    H116374   6.229   0.668   2.340  0.1538  0.6994 -0.7376
 5470TIP3    H216375   6.323   0.755   2.419  1.3207 -0.4608 -0.8180
 5471TIP3   OH216376   3.593   1.568   1.783 -0.1688 -0.4589  0.3326
 5471TIP3    H116377   3.582   1.491   1.727 -1.8861  0.6296 -0.9542
 5471TIP3    H216378   3.667   1.616   1.745 -0.5525 -0.3410 -0.2721
 5472TIP3   OH216379   6.602   3.290   5.162 -0.4284  0.2512 -0.5215
 5472TIP3    H116380   6.526   3.285   5.104 -0.0314 -0.2686 -1.0122
 5472TIP3    H216381   6.641   3.375   5.144 -0.5685  0.2807 -0.6867
 5473TIP3   OH216382   1.628   0.758   5.204 -0.3180 -1.0628 -0.1145
 5473TIP3    H116383   1.566   0.722   5.267  1.0632 -0.8661  1.4169
 5473TIP3    H216384   1.714   0.733   5.237  0.5007 -0.2136 -1.4697
 5474TIP3   OH216385   1.159   4.998   3.430  0.3597  0.0378 -0.6589
 5474TIP3    H116386   1.137   4.946   3.507  0.3263 -2.2610 -2.1128
 5474TIP3    H216387   1.110   5.080   3.441 -0.0525 -0.4466  1.4751
 5475TIP3   OH216388   3.293   1.615   3.934 -0.5166  0.4774 -0.0375
 5475TIP3    H116389   3.217   1.573   3.975 -0.2437 -0.1167 -0.1329
 5475TIP3    H216390   3.256   1.690   3.886 -1.2848 -0.8081 -1.5451
 5476TIP3   OH216391   0.714   1.980   0.152  0.3107 -0.1605  0.5553
 5476TIP3    H116392   0.794   2.013   0.194  0.9130 -0.9036  0.0259
 5476TIP3    H216393   0.650   1.974   0.223  0.9543 -0.2629  1.1376
 5477TIP3   OH216394   5.972   4.371   2.026  0.4100  0.1162 -0.1377
 5477TIP3    H116395   6.055   4.327   2.010  0.5293 -0.2083  1.2274
 5477TIP3    H216396   5.935   4.385   1.939  1.7655  0.0315 -0.7499
 5478TIP3   OH216397   5.564   1.673   4.776  0.4557  0.1966 -0.4634
 5478TIP3    H116398   5.646   1.664   4.728  0.8020 -0.7301  0.2697
 5478TIP3    H216399   5.499   1.630   4.721  0.6118  0.2218 -0.6685
 5479TIP3   OH216400   6.893   1.300   4.214  0.4803 -0.5978 -0.0383
 5479TIP3    H116401   6.852   1.262   4.291 -0.2002 -0.9251 -0.5514
 5479TIP3    H216402   6.822   1.347   4.170  1.5289  2.5626  1.3226
 5480TIP3   OH216403   3.830   5.655   2.804  0.0144 -0.4958 -0.2817
 5480TIP3    H116404   3.867   5.675   2.890 -2.4738 -0.8529  0.9710
 5480TIP3    H216405   3.838   5.737   2.754  3.0610 -0.7686 -0.4171
 5481TIP3   OH216406   3.915   5.243   1.362 -0.1953 -0.4626  0.2541
 5481TIP3    H116407   3.891   5.188   1.437  1.1807 -1.0593  0.2854
 5481TIP3    H216408   3.971   5.187   1.309  1.2647  0.9066  0.2843
 5482TIP3   OH216409   1.531   0.580   5.789 -0.5390  0.6460  0.7049
 5482TIP3    H116410   1.624   0.566   5.805 -0.1491  2.5237  0.3092
 5482TIP3    H216411   1.488   0.547   5.868  0.4631 -0.0107  1.0002
 5483TIP3   OH216412   7.118   1.973   5.062  0.1092 -0.0397  0.3817
 5483TIP3    H116413   7.100   1.931   4.978 -0.6141 -0.8156  0.9039
 5483TIP3    H216414   7.210   1.999   5.057  0.2527 -0.6623 -0.4028
 5484TIP3   OH216415   5.298   4.026   1.507 -0.2589 -0.3862  0.0644
 5484TIP3    H116416   5.326   4.104   1.460  0.8491 -0.5125  0.4768
 5484TIP3    H216417   5.204   4.020   1.490 -0.0226 -0.0444 -1.5429
 5485TIP3   OH216418   1.474   3.356   3.005 -0.2247  0.1850 -0.0798
 5485TIP3    H116419   1.492   3.323   2.917 -0.4299  0.6387 -0.2971
 5485TIP3    H216420   1.388   3.319   3.027  0.5180 -1.2318  0.5883
 5486TIP3   OH216421   3.921   1.484   1.826  0.2501 -0.4810 -0.5857
 5486TIP3    H116422   4.006   1.441   1.829 -0.3799 -1.7481 -0.0747
 5486TIP3    H216423   3.876   1.442   1.752 -0.7720 -1.5318  0.5763
 5487TIP3   OH216424   1.745  -0.024   1.781 -0.2528 -0.5413  0.2572
 5487TIP3    H116425   1.839  -0.042   1.785  0.0969  1.1151  0.4031
 5487TIP3    H216426   1.739   0.070   1.764 -1.8854 -0.9103 -1.7150
 5488TIP3   OH216427   4.093   3.382   0.796  0.0240  0.0936  0.3527
 5488TIP3    H116428   4.164   3.443   0.818  0.7513 -1.1371  1.5619
 5488TIP3    H216429   4.096   3.376   0.701  0.2494  1.5478  0.2352
 5489TIP3   OH216430   6.878   1.545   2.044 -0.0903  0.3844 -0.3555
 5489TIP3    H116431   6.973   1.557   2.050 -0.2146  1.1438  0.3233
 5489TIP3    H216432   6.847   1.553   2.134 -0.7321 -0.5783 -0.4804
 5490TIP3   OH216433   3.914   0.236   1.264 -0.8648 -0.0310 -0.7816
 5490TIP3    H116434   3.832   0.242   1.312  0.3646  0.2084  1.4011
 5490TIP3    H216435   3.965   0.311   1.293  0.7761 -1.0908 -0.7942
 5491TIP3   OH216436   3.341   3.462   3.273  0.2350  0.4067  0.0418
 5491TIP3    H116437   3.344   3.504   3.187 -0.7418 -1.0596 -0.7576
 5491TIP3    H216438   3.321   3.370   3.254  3.2306 -0.6978  1.6439
 5492TIP3   OH216439   5.179   4.013   0.983 -0.0323  0.1288  0.0485
 5492TIP3    H116440   5.163   3.919   0.973  1.3252 -0.1620  0.3959
 5492TIP3    H216441   5.099   4.055   0.949 -0.4035 -1.1235 -0.6840
 5493TIP3   OH216442   3.156   1.133   1.300  0.2131  0.2355  0.6328
 5493TIP3    H116443   3.176   1.052   1.253  0.9852  1.0579 -0.5032
 5493TIP3    H216444   3.062   1.126   1.320  0.0091 -0.4292 -0.4722
 5494TIP3   OH216445   5.401   1.049   4.058  0.0549 -0.3058 -0.4491
 5494TIP3    H116446   5.435   1.022   3.972  0.8475 -0.5166 -0.0820
 5494TIP3    H216447   5.312   1.077   4.041  0.8066  1.4725 -1.6772
 5495TIP3   OH216448   2.206   4.184   2.958  0.2659  0.2948 -0.5091
 5495TIP3    H116449   2.209   4.191   2.862 -1.9625 -1.5319 -0.7924
 5495TIP3    H216450   2.193   4.274   2.988  1.1939  0.9257 -1.8889
 5496TIP3   OH216451   2.024   6.292   3.575 -0.2098  0.0549  0.0820
 5496TIP3    H116452   1.981   6.376   3.591  2.1035  2.1297 -3.5070
 5496TIP3    H216453   1.963   6.243   3.520 -0.1904  0.8000 -0.6091
 5497TIP3   OH216454   6.563   6.304   1.917 -0.5802 -0.8690  0.0846
 5497TIP3    H116455   6.502   6.337   1.983  1.3792 -0.9590  2.0134
 5497TIP3    H216456   6.543   6.210   1.911 -2.3021 -0.4818 -1.2323
 5498TIP3   OH216457   6.004   5.864   2.794 -0.4217 -0.7843  0.4295
 5498TIP3    H116458   6.033   5.896   2.709  3.6795 -2.4479  1.0069
 5498TIP3    H216459   5.958   5.939   2.834  0.6865  1.1997 -1.7984
 5499TIP3   OH216460   0.556   2.618   2.290  0.1086  0.4084  0.0318
 5499TIP3    H116461   0.611   2.643   2.216  0.9423  0.1742  0.5512
 5499TIP3    H216462   0.605   2.549   2.335 -1.2408 -0.7684 -0.2364
 5500TIP3   OH216463   1.428   0.626   5.392 -0.0902  0.2522  0.0365
 5500TIP3    H116464   1.455   0.538   5.421 -0.0008  0.4495  0.5670
 5500TIP3    H216465   1.347   0.611   5.343 -1.3755  0.0991  2.0762
 5501TIP3   OH216466   3.009   4.774   3.378 -0.2745 -0.2964  0.2449
 5501TIP3    H116467   2.926   4.814   3.350  1.9929  2.7403 -3.0929
 5501TIP3    H216468   3.026   4.812   3.464 -1.1161  1.2328 -0.2217
 5502TIP3   OH216469   0.571   2.667   1.151  0.1276 -0.7037 -0.1519
 5502TIP3    H116470   0.591   2.575   1.170  2.4039 -0.2766 -0.1977
 5502TIP3    H216471   0.632   2.717   1.206 -1.2022  0.8075  0.0239
 5503TIP3   OH216472   4.595   0.349   5.586  0.6203 -0.0868 -0.5159
 5503TIP3    H116473   4.503   0.325   5.601  0.3702  0.0234 -1.7605
 5503TIP3    H216474   4.610   0.327   5.494  1.7413  0.2293 -0.4159
 5504TIP3   OH216475   3.895   4.285   2.083  0.0473  0.3658 -0.1237
 5504TIP3    H116476   3.908   4.220   2.015  0.3106 -1.1365  1.2935
 5504TIP3    H216477   3.980   4.291   2.128 -0.1829  1.1315  0.2344
 5505TIP3   OH216478   2.111   1.056   1.243 -0.4857  0.0049  0.1687
 5505TIP3    H116479   2.045   1.125   1.230  1.9034  2.7024  1.2101
 5505TIP3    H216480   2.111   1.040   1.337  0.9577  0.7806  0.3281
 5506TIP3   OH216481   1.880   0.896   2.014  0.4610  0.6537 -0.2175
 5506TIP3    H116482   1.790   0.907   2.045  1.1443  2.2653  1.3951
 5506TIP3    H216483   1.919   0.834   2.076  0.3002 -0.6473 -1.3669
 5507TIP3   OH216484   2.723   2.996   4.206 -0.0478 -0.4175 -0.0962
 5507TIP3    H116485   2.637   3.021   4.173 -0.4162 -2.6490 -1.0292
 5507TIP3    H216486   2.719   3.014   4.300 -0.3018  2.5794 -0.5930
 5508TIP3   OH216487   5.987   1.608   5.144 -0.0864  0.0305 -0.3280
 5508TIP3    H116488   5.931   1.609   5.222 -0.6831  1.2799 -0.7474
 5508TIP3    H216489   5.928   1.588   5.072  0.6968 -2.6155 -0.3596
 5509TIP3   OH216490   5.643   4.132   4.968  0.0814 -0.7314  0.1752
 5509TIP3    H116491   5.555   4.158   4.994 -0.3096 -0.5777 -1.2078
 5509TIP3    H216492   5.630   4.063   4.903  1.0330 -2.0902  1.3806
 5510TIP3   OH216493   5.739   4.572   1.575  0.2019 -0.7287  0.2711
 5510TIP3    H116494   5.656   4.573   1.623 -0.8636 -0.3150 -1.5014
 5510TIP3    H216495   5.793   4.637   1.620  0.3453 -2.3529  2.6536
 5511TIP3   OH216496   6.254   2.340   5.267  0.3286 -0.5735  0.1428
 5511TIP3    H116497   6.319   2.361   5.334 -1.3842  1.6367  1.2726
 5511TIP3    H216498   6.219   2.425   5.240 -1.6596 -1.6309 -0.8604
 5512TIP3   OH216499   3.345   1.108   3.771 -0.0725 -0.7461 -0.0916
 5512TIP3    H116500   3.438   1.113   3.794 -0.1895 -1.0921  0.4920
 5512TIP3    H216501   3.309   1.193   3.795 -0.2505 -1.1949  1.3355
 5513TIP3   OH216502   1.696   6.160   2.875 -0.3458  0.0956  0.0813
 5513TIP3    H116503   1.645   6.082   2.893 -0.8139  0.6162  1.0861
 5513TIP3    H216504   1.785   6.128   2.857 -0.3960 -0.6347  1.0570
 5514TIP3   OH216505   4.957   3.501   3.097  0.2141  0.5553 -0.5348
 5514TIP3    H116506   4.948   3.452   3.180 -0.5292  0.0631 -0.8898
 5514TIP3    H216507   5.033   3.462   3.054  0.7797  1.0053  0.0370
 5515TIP3   OH216508   6.279   4.635   1.253 -0.8368  0.0027 -0.0442
 5515TIP3    H116509   6.202   4.654   1.199  0.1884  0.5037 -1.3820
 5515TIP3    H216510   6.338   4.588   1.194 -0.5392 -1.3348  1.2775
 5516TIP3   OH216511   6.233   1.914   2.933 -0.0983  0.2338 -0.2450
 5516TIP3    H116512   6.204   1.825   2.915  1.7991 -0.4808  0.0423
 5516TIP3    H216513   6.273   1.944   2.852  0.6176  0.2467  0.1036
 5517TIP3   OH216514   1.979   0.242   2.772 -0.7058 -0.3640 -0.0426
 5517TIP3    H116515   1.941   0.230   2.859 -2.6207 -1.0487 -0.9219
 5517TIP3    H216516   2.002   0.154   2.744  2.5493  0.0913  0.8117
 5518TIP3   OH216517   1.637   3.518   0.254 -0.1234 -0.0835  0.5475
 5518TIP3    H116518   1.723   3.547   0.222 -0.4180  0.0988 -0.0958
 5518TIP3    H216519   1.585   3.598   0.260 -0.7445 -0.3673 -0.6347
 5519TIP3   OH216520   3.695   3.255   4.859 -0.1499 -0.3284  0.5936
 5519TIP3    H116521   3.670   3.229   4.770 -3.4910 -0.4414  1.4049
 5519TIP3    H216522   3.761   3.192   4.885  1.4984  0.1838 -2.0246
 5520TIP3   OH216523   2.479   2.361   2.246 -0.2576 -0.4171 -0.4004
 5520TIP3    H116524   2.565   2.322   2.228  0.7937  0.9864  1.2139
 5520TIP3    H216525   2.496   2.424   2.317 -2.7482 -0.5850  0.4464
 5521TIP3   OH216526   0.658   1.339   0.346 -0.4507  0.0766 -0.5288
 5521TIP3    H116527   0.615   1.306   0.267  0.0061  0.6660 -1.0430
 5521TIP3    H216528   0.611   1.420   0.367  0.1695  0.5488 -0.9018
 5522TIP3   OH216529   3.697   4.415   1.815  0.5041  0.0031  0.0420
 5522TIP3    H116530   3.733   4.477   1.878 -0.4583  0.9110 -0.2650
 5522TIP3    H216531   3.720   4.451   1.730 -1.0250  0.5856 -0.1622
 5523TIP3   OH216532   3.510   4.474   4.115 -0.1360  0.4769  0.1919
 5523TIP3    H116533   3.545   4.562   4.129  2.1209  0.0595 -2.1743
 5523TIP3    H216534   3.496   4.468   4.020  3.1496 -2.7671 -0.3020
 5524TIP3   OH216535   6.885   3.787   5.807 -0.0779  0.4178  0.1688
 5524TIP3    H116536   6.920   3.761   5.893 -0.8407 -1.9848 -0.1691
 5524TIP3    H216537   6.810   3.843   5.828  0.5724  0.9811  1.0303
 5525TIP3   OH216538   2.671   1.816   2.672 -0.3203 -0.5620 -0.6417
 5525TIP3    H116539   2.629   1.830   2.587  1.0975 -0.1146 -1.3087
 5525TIP3    H216540   2.676   1.721   2.682  0.7326 -0.6431 -1.7276
 5526TIP3   OH216541   3.237   1.198   2.487 -0.1713 -0.5804 -0.2879
 5526TIP3    H116542   3.324   1.237   2.493 -0.4053 -0.2213  1.1297
 5526TIP3    H216543   3.239   1.125   2.548 -0.4625 -1.4194 -1.2463
 5527TIP3   OH216544   1.769   5.600   4.952  0.2309  0.2085 -0.0533
 5527TIP3    H116545   1.819   5.655   4.892 -0.0237  0.3335 -0.1485
 5527TIP3    H216546   1.760   5.652   5.032  0.4509  0.0953  0.0496
 5528TIP3   OH216547   1.531   6.234   5.598  0.4684  0.0711 -0.0641
 5528TIP3    H116548   1.474   6.192   5.533 -0.2751 -0.8402  1.1324
 5528TIP3    H216549   1.471   6.288   5.650  0.7786 -0.4406  0.8407
 5529TIP3   OH216550   0.063   0.122   1.059 -0.4690 -0.4807  0.1694
 5529TIP3    H116551   0.095   0.193   1.004 -0.8880 -0.3502  0.0914
 5529TIP3    H216552  -0.031   0.135   1.064 -0.3406  0.1153  1.7633
 5530TIP3   OH216553   0.917   0.621   3.808  0.0388 -0.1593  0.0561
 5530TIP3    H116554   0.889   0.712   3.802 -1.1512 -0.6025 -3.2669
 5530TIP3    H216555   1.005   0.621   3.771 -0.0259 -0.3645 -0.0994
 5531TIP3   OH216556   0.524   0.913   3.371 -0.7189 -0.2065  0.1115
 5531TIP3    H116557   0.490   0.917   3.461  0.1304 -0.3584  0.4452
 5531TIP3    H216558   0.447   0.893   3.318 -0.8749 -2.4091  1.0522
 5532TIP3   OH216559   1.378   4.705   4.154 -0.1963 -0.9074  0.4312
 5532TIP3    H116560   1.290   4.677   4.129 -1.7661  3.3690  0.3595
 5532TIP3    H216561   1.365   4.762   4.230  2.5501 -0.3499  0.5943
 5533TIP3   OH216562   3.606   4.751   4.104  0.2876 -0.0710  0.3533
 5533TIP3    H116563   3.672   4.815   4.079 -1.6602  1.6750 -0.6093
 5533TIP3    H216564   3.634   4.720   4.190  2.3945  0.4829 -0.0686
 5534TIP3   OH216565   5.466   2.923   0.878 -0.0870 -0.1391 -0.6433
 5534TIP3    H116566   5.457   2.840   0.926 -0.1335 -0.1108 -0.6031
 5534TIP3    H216567   5.480   2.897   0.787 -0.0458 -0.1923 -0.6220
 5535TIP3   OH216568   4.674   2.791   0.268 -0.3982 -0.1309 -0.1193
 5535TIP3    H116569   4.673   2.838   0.351 -1.0136 -0.4574  0.0658
 5535TIP3    H216570   4.588   2.748   0.263 -1.2468  1.6150 -1.9205
 5536TIP3   OH216571   3.505   1.336   2.399 -0.0478 -0.8013  0.3556
 5536TIP3    H116572   3.502   1.420   2.444 -0.8016 -1.3607  1.3863
 5536TIP3    H216573   3.470   1.354   2.312 -1.3175 -0.2714  0.9566
 5537TIP3   OH216574   5.478   0.639   5.779 -0.1200 -0.3440 -0.1173
 5537TIP3    H116575   5.506   0.730   5.795  0.0116 -0.3808 -0.1331
 5537TIP3    H216576   5.556   0.596   5.743 -0.0451 -0.5733  0.3063
 5538TIP3   OH216577   6.895   5.184   2.429  0.0708 -0.1520 -0.0962
 5538TIP3    H116578   6.969   5.158   2.484  0.4532  2.1599  0.5823
 5538TIP3    H216579   6.927   5.170   2.339  0.5182 -1.2038  0.2104
 5539TIP3   OH216580   2.955   2.108   5.868 -0.2373 -0.7809 -0.1743
 5539TIP3    H116581   2.974   2.202   5.865 -0.9212 -0.6337 -0.0137
 5539TIP3    H216582   2.964   2.078   5.778 -1.6015 -0.2320 -0.5195
 5540TIP3   OH216583   2.604   3.815   1.323  0.8431  0.3826  0.3578
 5540TIP3    H116584   2.632   3.874   1.393  1.5893  1.5463 -0.8812
 5540TIP3    H216585   2.601   3.870   1.245  0.6658 -1.0355 -0.6689
 5541TIP3   OH216586   6.306   1.475   0.451  0.0831  0.8078  0.1260
 5541TIP3    H116587   6.234   1.509   0.503 -0.0178  0.8544 -0.0454
 5541TIP3    H216588   6.334   1.396   0.499  0.4214  1.2124  0.6062
 5542TIP3   OH216589   5.282   6.280   0.755 -0.8235 -0.5740 -0.2724
 5542TIP3    H116590   5.208   6.231   0.788 -1.1719 -1.1267 -1.7791
 5542TIP3    H216591   5.303   6.238   0.671  0.8204 -0.0665 -0.1473
 5543TIP3   OH216592   4.320   0.269   1.369  0.4521 -0.3973 -0.2713
 5543TIP3    H116593   4.408   0.294   1.339  0.2501 -0.0547 -0.5765
 5543TIP3    H216594   4.315   0.175   1.353  0.5014 -0.2904 -0.9120
 5544TIP3   OH216595   0.135   6.791   5.615  0.0563 -0.1257 -0.4410
 5544TIP3    H116596   0.150   6.779   5.521 -0.1803 -0.1682 -0.4742
 5544TIP3    H216597   0.128   6.702   5.649  1.5610 -0.1664 -0.1397
 5545TIP3   OH216598   4.059   0.478   5.513  0.1070  0.0606  0.1607
 5545TIP3    H116599   4.059   0.520   5.427 -2.6276  0.4397  0.2596
 5545TIP3    H216600   4.043   0.549   5.575  0.6590 -0.4084  0.8685
 5546TIP3   OH216601   2.103   2.566   3.462 -0.1512 -0.1547 -0.3424
 5546TIP3    H116602   2.034   2.603   3.407 -2.2801 -1.1719  1.4871
 5546TIP3    H216603   2.102   2.619   3.542  1.6606  0.1871 -0.4917
 5547TIP3   OH216604   4.703   4.283   3.873  0.6562 -0.3131  0.2240
 5547TIP3    H116605   4.662   4.232   3.943  0.1408  0.9049  0.8323
 5547TIP3    H216606   4.659   4.254   3.793  0.2900 -0.7249  0.5691
 5548TIP3   OH216607   1.609   2.762   5.338  0.3733 -0.0144  0.5089
 5548TIP3    H116608   1.633   2.785   5.428  0.0506 -0.3044  0.6751
 5548TIP3    H216609   1.655   2.679   5.322 -1.4895 -1.2866  1.3017
 5549TIP3   OH216610   4.555   5.822   3.011  0.0449  0.3373  0.4817
 5549TIP3    H116611   4.589   5.790   2.928  1.6088 -0.8872  1.5499
 5549TIP3    H216612   4.527   5.912   2.992  0.3445  0.0761 -1.3497
 5550TIP3   OH216613   5.930   5.310   1.020  0.6297 -0.1222  0.5317
 5550TIP3    H116614   6.019   5.342   1.006  0.5563  0.2780  0.9399
 5550TIP3    H216615   5.882   5.387   1.050 -0.0822 -0.1042 -0.6036
 5551TIP3   OH216616   0.815   3.488   3.099  0.2261 -0.1140 -0.4529
 5551TIP3    H116617   0.732   3.526   3.069  1.1340  1.1167 -1.5546
 5551TIP3    H216618   0.825   3.520   3.188 -1.8668 -2.7091  0.8580
 5552TIP3   OH216619   5.920   3.562   3.123  0.6184  0.3526 -0.7102
 5552TIP3    H116620   5.969   3.640   3.097  2.3268 -0.2021  0.6884
 5552TIP3    H216621   5.944   3.547   3.214 -0.4181 -1.2634 -0.6525
 5553TIP3   OH216622   5.175   4.244   2.155  0.1014 -0.0967  0.6788
 5553TIP3    H116623   5.181   4.278   2.066 -2.0446  0.7457  0.8006
 5553TIP3    H216624   5.226   4.163   2.153 -0.7134 -0.6205 -1.5880
 5554TIP3   OH216625   6.312   1.358   1.270  0.0482  0.0756 -0.0256
 5554TIP3    H116626   6.269   1.275   1.289  0.5609 -0.4513 -1.0739
 5554TIP3    H216627   6.241   1.417   1.247 -0.2127 -0.5411 -0.8732
 5555TIP3   OH216628   3.134   5.973   0.961  0.0239 -0.1338  0.1217
 5555TIP3    H116629   3.111   5.880   0.963  0.2813 -0.2029 -0.1093
 5555TIP3    H216630   3.206   5.981   1.024  0.4117 -0.2047 -0.3085
 5556TIP3   OH216631   0.653   0.647   2.628  0.2071  0.6034 -0.0234
 5556TIP3    H116632   0.740   0.653   2.667  0.4625 -0.5016 -0.3971
 5556TIP3    H216633   0.598   0.702   2.684  0.8109  0.0178  1.1822
 5557TIP3   OH216634   6.974   5.283   1.029 -0.1741  0.0522 -0.2473
 5557TIP3    H116635   7.062   5.308   1.002 -1.0843  0.2228 -3.3958
 5557TIP3    H216636   6.931   5.366   1.050  0.1730  0.0348  0.5572
 5558TIP3   OH216637   4.638   4.256   2.399  0.3891  0.5710 -0.0721
 5558TIP3    H116638   4.729   4.281   2.418  0.5344  1.9935 -2.3335
 5558TIP3    H216639   4.646   4.174   2.350  0.5024  0.9436 -0.6875
 5559TIP3   OH216640   2.804   5.559   4.028 -0.0957  0.0642 -0.4379
 5559TIP3    H116641   2.726   5.503   4.027  0.0156 -0.1814  1.3928
 5559TIP3    H216642   2.864   5.514   4.088 -0.1844  2.3442  1.4784
 5560TIP3   OH216643   2.774   3.065   4.472  0.1447 -0.6273 -0.2855
 5560TIP3    H116644   2.869   3.053   4.460 -0.1289 -1.3394 -2.0498
 5560TIP3    H216645   2.766   3.103   4.559  1.9294 -2.3573  0.7239
 5561TIP3   OH216646   1.769   0.876   4.383 -0.2332 -0.1999  0.2248
 5561TIP3    H116647   1.701   0.894   4.318 -1.0079 -2.5661  0.2833
 5561TIP3    H216648   1.722   0.869   4.466  0.7432  2.7725  1.1611
 5562TIP3   OH216649   5.388   0.568   5.499  0.2258  0.4329 -0.2460
 5562TIP3    H116650   5.412   0.477   5.515  0.2839  0.5229  0.2000
 5562TIP3    H216651   5.427   0.617   5.572  2.4339  1.1796 -1.8394
 5563TIP3   OH216652   7.146   4.580   5.160 -0.2750 -0.2962  0.1630
 5563TIP3    H116653   7.212   4.649   5.172  1.1186 -1.6062  0.2795
 5563TIP3    H216654   7.161   4.549   5.070  1.1611 -2.4580  1.0835
 5564TIP3   OH216655   7.069   6.747   3.340  0.1339 -0.2505  0.0607
 5564TIP3    H116656   6.982   6.782   3.323  0.3946  0.9994  1.1783
 5564TIP3    H216657   7.063   6.654   3.314 -1.3265 -0.0370 -0.4517
 5565TIP3   OH216658   4.784   0.722   4.719  0.8262  0.1904  0.2354
 5565TIP3    H116659   4.767   0.814   4.737 -1.6856 -0.3455  0.9882
 5565TIP3    H216660   4.877   0.711   4.735  0.8437  2.2088  1.8916
 5566TIP3   OH216661   5.546   1.474   1.591  0.0012 -0.1063  0.1322
 5566TIP3    H116662   5.592   1.412   1.536  0.6287 -0.8527  1.4495
 5566TIP3    H216663   5.518   1.423   1.667 -2.1416  0.5446 -0.1385
 5567TIP3   OH216664   4.232   0.919   4.399 -0.0829 -0.0930 -0.5571
 5567TIP3    H116665   4.152   0.866   4.402  0.1562 -0.4318  1.1910
 5567TIP3    H216666   4.255   0.932   4.491  0.9582  1.4218 -0.9984
 5568TIP3   OH216667   4.738   5.945   2.314  0.2585 -0.4784  0.1142
 5568TIP3    H116668   4.743   5.850   2.299 -1.7173 -0.8910  1.6614
 5568TIP3    H216669   4.646   5.966   2.301  0.4745  1.0392  0.8798
 5569TIP3   OH216670   1.721   3.813   0.325  0.0317  0.1176  0.1380
 5569TIP3    H116671   1.792   3.831   0.387 -0.9669 -0.2720  1.4335
 5569TIP3    H216672   1.695   3.899   0.292  0.1300  0.3921  0.7674
 5570TIP3   OH216673   2.662   5.808   1.534 -0.0876 -0.0141  0.0269
 5570TIP3    H116674   2.652   5.713   1.526  1.8811 -0.2173 -0.3946
 5570TIP3    H216675   2.674   5.838   1.444  1.8593  0.2744  0.3408
 5571TIP3   OH216676   1.019   5.161   4.815 -0.1293 -0.4070 -0.5170
 5571TIP3    H116677   1.109   5.162   4.781  0.5780  0.7640  1.2497
 5571TIP3    H216678   0.973   5.226   4.763  0.7008  0.7138  0.0976
 5572TIP3   OH216679   1.772   5.326   5.018  0.0476 -0.7171 -0.0484
 5572TIP3    H116680   1.860   5.323   5.056  0.3880 -0.7956 -0.8198
 5572TIP3    H216681   1.756   5.419   5.003  0.2047 -0.7421 -0.3724
 5573TIP3   OH216682   6.461   2.753   5.558  0.4213 -0.4309 -0.1504
 5573TIP3    H116683   6.499   2.829   5.603 -0.7602 -1.8187  3.6007
 5573TIP3    H216684   6.368   2.757   5.578  0.1598 -2.2311 -0.8174
 5574TIP3   OH216685   3.566   2.593   4.277  0.2101 -0.2630  0.1765
 5574TIP3    H116686   3.538   2.683   4.259 -0.0264  0.3019  2.9685
 5574TIP3    H216687   3.521   2.541   4.211  0.8103  1.6838 -1.8876
 5575TIP3   OH216688   2.614   0.380   4.915 -0.6058  0.3411  0.0332
 5575TIP3    H116689   2.695   0.406   4.871 -0.5208  0.4013  0.2234
 5575TIP3    H216690   2.563   0.336   4.848  0.3579 -1.3533  0.3564
 5576TIP3   OH216691   6.480   2.029   5.456 -0.2993  0.5232  0.8758
 5576TIP3    H116692   6.390   2.035   5.427 -0.3165  0.3280  0.8862
 5576TIP3    H216693   6.528   2.090   5.400  0.0298 -1.3671 -1.0229
 5577TIP3   OH216694   4.822   2.885   3.613 -0.2317 -0.0360 -0.1654
 5577TIP3    H116695   4.850   2.796   3.595 -0.1215  0.0725 -0.5422
 5577TIP3    H216696   4.727   2.878   3.628 -0.3508 -0.1133 -0.9218
 5578TIP3   OH216697   2.962   2.103   1.808 -0.1893  0.2621  1.0277
 5578TIP3    H116698   2.954   2.143   1.722  0.6232 -0.8371  0.4262
 5578TIP3    H216699   2.873   2.105   1.843 -0.9024 -0.9849 -0.6219
 5579TIP3   OH216700   4.357   1.136   2.858 -0.1594  0.2126  0.1433
 5579TIP3    H116701   4.266   1.118   2.833 -0.2211  0.3243  0.2815
 5579TIP3    H216702   4.353   1.148   2.953  0.0527 -0.0941  0.1899
 5580TIP3   OH216703   1.137   3.677   1.320 -0.6302  0.4766  0.0103
 5580TIP3    H116704   1.105   3.596   1.281  1.5695 -0.0171 -0.9358
 5580TIP3    H216705   1.148   3.656   1.413  0.8974 -0.6952 -0.3945
 5581TIP3   OH216706   6.535   4.386   0.789 -0.2419  0.1061  0.6369
 5581TIP3    H116707   6.554   4.320   0.722 -0.5569 -0.3645  1.0088
 5581TIP3    H216708   6.448   4.363   0.821 -0.1716  0.4442  1.0757
 5582TIP3   OH216709   1.848   3.618   5.082 -0.0044 -0.3583  0.0976
 5582TIP3    H116710   1.831   3.526   5.060  1.6578 -0.4766 -0.7965
 5582TIP3    H216711   1.889   3.655   5.005 -0.1078  1.0036  0.6636
 5583TIP3   OH216712   1.756   6.487   4.325  0.2621  0.5475 -0.2247
 5583TIP3    H116713   1.786   6.498   4.235  0.3485  1.7535 -0.0702
 5583TIP3    H216714   1.699   6.563   4.341 -0.0136  0.1741  0.6274
 5584TIP3   OH216715   3.560   0.011   4.933 -0.9812 -0.1161 -0.2423
 5584TIP3    H116716   3.544   0.067   4.857  0.0601 -1.3839 -1.4466
 5584TIP3    H216717   3.655   0.012   4.944 -0.8032 -2.4540 -0.9935
 5585TIP3   OH216718   0.499   0.504   3.501 -0.4457  0.1891  0.1617
 5585TIP3    H116719   0.528   0.525   3.589 -0.6677  0.4113  0.1817
 5585TIP3    H216720   0.521   0.581   3.449  1.4873 -0.6893 -0.3973
 5586TIP3   OH216721   1.012   0.455   5.782  0.6881 -0.6817 -0.5222
 5586TIP3    H116722   1.036   0.392   5.715  2.8254 -1.1043  0.5399
 5586TIP3    H216723   0.974   0.403   5.853  0.7333 -0.5588 -0.4048
 5587TIP3   OH216724   2.261   4.304   5.640 -0.3429 -0.4158  0.1453
 5587TIP3    H116725   2.344   4.258   5.627  0.1306  0.4177  0.1749
 5587TIP3    H216726   2.224   4.311   5.552  0.0137 -0.0533  0.0239
 5588TIP3   OH216727   4.026   2.159   1.510 -0.0361 -0.4904  0.1362
 5588TIP3    H116728   4.105   2.203   1.477  1.2498 -2.2631  0.7335
 5588TIP3    H216729   4.009   2.090   1.446 -2.3321  1.0344 -1.0609
 5589TIP3   OH216730   4.386   5.576   1.403  0.3381  0.1692  0.2027
 5589TIP3    H116731   4.364   5.483   1.400 -0.5323  0.2159  3.0229
 5589TIP3    H216732   4.476   5.580   1.369  0.4547 -1.7277  0.1968
 5590TIP3   OH216733   4.611   6.279   0.842  0.0020 -0.1639 -0.3300
 5590TIP3    H116734   4.609   6.296   0.936 -0.7997  1.6298 -0.6396
 5590TIP3    H216735   4.615   6.365   0.802  1.8372 -0.9128 -1.9460
 5591TIP3   OH216736   3.249   1.105   3.462 -0.4127  0.1497  0.1276
 5591TIP3    H116737   3.291   1.056   3.532 -0.7374  0.6489  0.6850
 5591TIP3    H216738   3.162   1.127   3.496  0.0016  1.7657  0.2176
 5592TIP3   OH216739   3.226   3.321   1.445  0.3809 -0.0845 -0.4547
 5592TIP3    H116740   3.145   3.310   1.396  1.0457 -0.1618 -1.5576
 5592TIP3    H216741   3.199   3.312   1.537 -1.0691  1.2289 -0.7047
 5593TIP3   OH216742   4.971   1.549   5.176 -0.1748 -0.2141 -0.0594
 5593TIP3    H116743   4.923   1.484   5.125 -1.5843  0.4545  0.3812
 5593TIP3    H216744   5.063   1.531   5.156 -0.6249  0.1115 -3.0150
 5594TIP3   OH216745   3.534   4.778   3.756  0.1694 -0.2251 -1.0262
 5594TIP3    H116746   3.545   4.699   3.703  0.7968 -0.9777  0.1881
 5594TIP3    H216747   3.571   4.756   3.841 -1.2177  0.7930 -0.1074
 5595TIP3   OH216748   1.563   0.081   3.030  0.1413  0.1475 -0.1711
 5595TIP3    H116749   1.555   0.040   3.116 -1.7340  2.0562  0.6399
 5595TIP3    H216750   1.628   0.150   3.042  0.1087  0.2093 -0.3476
 5596TIP3   OH216751   4.052   1.905   4.970 -0.5133 -0.2270  0.1696
 5596TIP3    H116752   4.000   1.981   4.996  0.4439  0.7274 -0.6062
 5596TIP3    H216753   4.010   1.872   4.891  0.6709  1.2665 -1.1521
 5597TIP3   OH216754   1.367   2.294   0.482 -0.3786  0.3916 -0.1034
 5597TIP3    H116755   1.427   2.366   0.460  0.3658 -0.2750 -0.3048
 5597TIP3    H216756   1.424   2.226   0.518 -1.1063 -0.0120  0.3072
 5598TIP3   OH216757   4.543   0.271   1.738  0.4674  0.0565  0.0782
 5598TIP3    H116758   4.479   0.211   1.702  0.1861 -1.9451  3.4681
 5598TIP3    H216759   4.508   0.296   1.823  3.2623  0.3815  1.2585
 5599TIP3   OH216760   4.940   2.694   3.223  0.1607  0.1420  0.3611
 5599TIP3    H116761   4.926   2.784   3.252  0.2228  0.8760 -1.7049
 5599TIP3    H216762   4.851   2.660   3.208  0.1746  0.3868 -0.3050
 5600TIP3   OH216763   6.926   2.977   4.571  0.0095  0.3664  0.5947
 5600TIP3    H116764   6.989   2.993   4.642 -0.9196  0.7251  1.3597
 5600TIP3    H216765   6.842   2.966   4.615 -0.2666 -1.4457 -0.3194
 5601TIP3   OH216766   1.738   1.505   5.643 -0.0484  0.4995  0.5805
 5601TIP3    H116767   1.690   1.456   5.576  1.2204  0.1217 -0.0841
 5601TIP3    H216768   1.794   1.564   5.594  0.4584  0.6578  1.3350
 5602TIP3   OH216769   6.850   0.286   1.958  0.0260  0.3200 -0.0410
 5602TIP3    H116770   6.894   0.302   2.042  1.1583 -0.8138 -0.3921
 5602TIP3    H216771   6.910   0.229   1.910 -1.1132  0.0579 -1.1954
 5603TIP3   OH216772   5.166   5.466   4.959 -0.4379 -0.2137  0.1263
 5603TIP3    H116773   5.225   5.396   4.989 -0.5781 -1.0156 -1.3799
 5603TIP3    H216774   5.081   5.423   4.950 -0.6555  0.2905 -0.2579
 5604TIP3   OH216775   3.890   2.269   0.287 -0.0563  0.0048 -0.6465
 5604TIP3    H116776   3.892   2.257   0.382  3.3051 -0.3095 -0.6551
 5604TIP3    H216777   3.878   2.364   0.276 -2.1280 -0.1214 -0.0373
 5605TIP3   OH216778   4.507   2.608   2.369 -0.0370 -0.1862  0.4008
 5605TIP3    H116779   4.541   2.653   2.446  0.7142 -0.3387  0.1632
 5605TIP3    H216780   4.437   2.553   2.402  1.7883 -2.0410  1.3810
 5606TIP3   OH216781   6.115   6.235   0.288  0.4154  0.5865 -0.1646
 5606TIP3    H116782   6.142   6.144   0.281  0.8223  0.6112  0.9025
 5606TIP3    H216783   6.109   6.265   0.198  2.4701  0.1349 -0.4942
 5607TIP3   OH216784   1.115   5.167   1.809  0.0451 -1.1817  0.5590
 5607TIP3    H116785   1.112   5.246   1.863  1.3885 -1.2994  0.8442
 5607TIP3    H216786   1.064   5.103   1.858 -2.1012 -0.1949 -0.2608
 5608TIP3   OH216787   6.566   3.325   1.777  0.3439 -0.2296 -0.4676
 5608TIP3    H116788   6.531   3.296   1.693 -0.0966 -0.2095 -0.2925
 5608TIP3    H216789   6.519   3.273   1.842  1.5352 -1.1151 -0.2732
 5609TIP3   OH216790   6.635   1.391   3.059 -0.4040 -0.3314  0.2001
 5609TIP3    H116791   6.660   1.299   3.053  0.3432 -0.0953 -0.4917
 5609TIP3    H216792   6.633   1.421   2.969 -1.2799  0.1764  0.3777
 5610TIP3   OH216793   1.297   2.939   4.607  0.2318  0.1966  0.1407
 5610TIP3    H116794   1.285   2.917   4.515  1.1148 -0.1778  0.1102
 5610TIP3    H216795   1.383   2.904   4.630  1.1324  2.4485  0.4370
 5611TIP3   OH216796   0.965   5.371   4.023  0.0056 -0.0389 -0.4162
 5611TIP3    H116797   0.897   5.304   4.034 -0.6439  0.5339 -0.8967
 5611TIP3    H216798   1.031   5.348   4.089 -0.0926 -1.2854 -0.7189
 5612TIP3   OH216799   2.732   1.358   3.272  0.4185 -0.0088  0.5177
 5612TIP3    H116800   2.685   1.441   3.281  1.3756  0.5800  0.3548
 5612TIP3    H216801   2.808   1.368   3.329  2.2598  0.5375 -1.8414
 5613TIP3   OH216802   0.080   4.748   2.341 -0.1788  0.4919  0.3602
 5613TIP3    H116803   0.040   4.695   2.272 -1.6856 -0.2932  1.7510
 5613TIP3    H216804   0.119   4.684   2.401 -1.8741  0.8761  1.9730
 5614TIP3   OH216805   0.576   0.953   4.366  0.2444 -0.0673  0.2566
 5614TIP3    H116806   0.626   0.889   4.417 -0.1197  0.6006  1.4900
 5614TIP3    H216807   0.494   0.964   4.415 -0.1743  0.5018 -0.5460
 5615TIP3   OH216808   2.376   4.035   5.851 -0.1942  0.6355 -0.0485
 5615TIP3    H116809   2.438   3.986   5.905  0.5814  0.6029 -0.9563
 5615TIP3    H216810   2.296   3.983   5.854  0.2518 -0.0655 -0.0076
 5616TIP3   OH216811   2.576   0.809   5.283  0.5597 -0.7147  0.0140
 5616TIP3    H116812   2.578   0.729   5.336  0.5327  0.1883  1.4482
 5616TIP3    H216813   2.506   0.861   5.322  1.9002  0.8627  0.4360
 5617TIP3   OH216814   0.697   0.997   5.867 -0.0473 -0.0263 -0.6512
 5617TIP3    H116815   0.671   0.943   5.792 -2.2631 -0.2552  0.2071
 5617TIP3    H216816   0.670   0.947   5.944  0.0601  1.2256  0.2362
 5618TIP3   OH216817   4.393   3.958   0.652 -0.1949  0.2346 -0.8079
 5618TIP3    H116818   4.471   3.902   0.655  0.1311  0.6924 -0.3144
 5618TIP3    H216819   4.370   3.970   0.744 -1.9895 -1.4151 -0.9940
 5619TIP3   OH216820   4.457   6.047   2.483 -0.0322  0.0965 -0.1053
 5619TIP3    H116821   4.454   6.066   2.389 -1.1124 -1.8593 -0.5339
 5619TIP3    H216822   4.523   6.107   2.517 -0.9014  2.1568 -1.7662
 5620TIP3   OH216823   7.023   5.518   2.162  0.2413  0.0945  0.4777
 5620TIP3    H116824   7.073   5.458   2.217 -0.8974 -1.5833 -0.2343
 5620TIP3    H216825   6.950   5.546   2.218 -0.8690 -1.5446 -0.0607
 5621TIP3   OH216826   0.044   1.242   0.878 -0.0619 -0.1122  0.3720
 5621TIP3    H116827   0.059   1.322   0.828 -2.4750 -0.3068 -0.8081
 5621TIP3    H216828   0.060   1.267   0.969 -0.7643  1.7381  0.0199
 5622TIP3   OH216829   1.347   1.635   4.679 -0.2183  0.0780  0.6681
 5622TIP3    H116830   1.370   1.611   4.769  0.2834  2.1139  1.1493
 5622TIP3    H216831   1.411   1.591   4.625  2.0491  1.9531  1.6564
 5623TIP3   OH216832   5.076   1.590   0.529 -0.1664 -0.1955  0.0877
 5623TIP3    H116833   5.080   1.565   0.621 -1.1168  2.1765  0.8432
 5623TIP3    H216834   5.005   1.536   0.493 -0.3195 -0.5802  0.9451
 5624TIP3   OH216835   4.248   2.471   5.521  0.1648  0.3518  0.1358
 5624TIP3    H116836   4.197   2.525   5.460  1.3419 -1.0473 -2.2554
 5624TIP3    H216837   4.337   2.504   5.513  0.9879 -2.0146 -1.6791
 5625TIP3   OH216838   5.716   4.735   3.896 -0.7723  0.2767 -0.2847
 5625TIP3    H116839   5.796   4.739   3.843 -0.5142  2.4183  0.1779
 5625TIP3    H216840   5.652   4.788   3.848 -0.9295  1.1621  0.8554
 5626TIP3   OH216841   0.685   2.926   3.241  0.2541 -0.5527 -0.5429
 5626TIP3    H116842   0.657   2.987   3.172 -0.2224 -2.1795 -1.8630
 5626TIP3    H216843   0.614   2.929   3.306 -1.5054 -2.1813 -2.2659
 5627TIP3   OH216844   1.012   2.542   3.009 -0.0778 -0.0899 -0.3117
 5627TIP3    H116845   1.078   2.571   2.946 -1.3854  0.2639 -1.5684
 5627TIP3    H216846   0.968   2.622   3.037  0.5482 -0.2366  1.1561
 5628TIP3   OH216847   3.353   4.906   5.600 -0.2437 -0.8780  0.2306
 5628TIP3    H116848   3.349   4.888   5.506  0.9191  0.8140 -0.1901
 5628TIP3    H216849   3.346   5.001   5.606  0.3765 -0.9114  1.8095
 5629TIP3   OH216850   2.665   0.619   0.561  0.6971  0.0805 -0.2075
 5629TIP3    H116851   2.723   0.546   0.583  1.3951  0.6972  0.0449
 5629TIP3    H216852   2.704   0.695   0.604 -0.3687  0.4986  0.0739
 5630TIP3   OH216853   0.156   4.726   1.567  0.6636 -0.3544 -0.3382
 5630TIP3    H116854   0.246   4.696   1.559  0.7913 -0.4682  1.2836
 5630TIP3    H216855   0.163   4.814   1.605  0.1904  0.8404 -2.8085
 5631TIP3   OH216856   5.541   2.218   2.591 -0.2768 -0.2209 -0.2336
 5631TIP3    H116857   5.447   2.229   2.607 -0.0513 -0.8545  1.8226
 5631TIP3    H216858   5.568   2.150   2.652  1.4362 -0.4467 -1.1781
 5632TIP3   OH216859   5.065   1.962   3.608 -0.1421  0.0590 -0.3898
 5632TIP3    H116860   5.039   2.037   3.662 -0.7247 -0.8977  0.7160
 5632TIP3    H216861   5.007   1.891   3.637  1.4919 -1.2553 -0.2074
 5633TIP3   OH216862   6.330   2.134   3.062  0.1074 -1.0036 -0.1789
 5633TIP3    H116863   6.323   2.107   3.154  0.5258 -2.4649 -0.5463
 5633TIP3    H216864   6.292   2.062   3.013 -0.3902 -0.1017 -1.1612
 5634TIP3   OH216865   6.986   0.990   3.363 -0.1576 -0.5307 -0.0734
 5634TIP3    H116866   7.030   0.984   3.448 -1.1548 -1.6628  0.3918
 5634TIP3    H216867   6.963   1.082   3.355  0.5941 -0.2749  0.5399
 5635TIP3   OH216868   5.211   3.469   4.801  0.2774 -0.5018  0.3633
 5635TIP3    H116869   5.304   3.467   4.780  0.2659  2.9363 -0.5172
 5635TIP3    H216870   5.169   3.417   4.731  1.0954  3.0820 -3.1411
 5636TIP3   OH216871   4.704   2.454   4.026  0.3289 -0.5973 -0.2496
 5636TIP3    H116872   4.742   2.541   4.030 -0.1129 -0.4401  0.9025
 5636TIP3    H216873   4.654   2.445   4.108  2.2929 -2.8313  0.8315
 5637TIP3   OH216874   5.510   5.468   4.266 -0.2865 -0.0405 -0.2143
 5637TIP3    H116875   5.433   5.458   4.323 -0.6245 -0.1634 -0.6828
 5637TIP3    H216876   5.571   5.522   4.317 -0.9273  0.5730 -0.0767
 5638TIP3   OH216877   0.311   6.170   5.358  0.5836  0.1186 -0.7104
 5638TIP3    H116878   0.237   6.171   5.297  0.9331  1.0677 -1.1432
 5638TIP3    H216879   0.387   6.151   5.303  0.4687 -3.2037  0.0385
 5639TIP3   OH216880   3.071   3.843   4.314 -0.2526 -0.2113  0.6765
 5639TIP3    H116881   3.148   3.898   4.297 -1.2857  0.9471 -0.5594
 5639TIP3    H216882   3.103   3.754   4.303  0.9320  0.2336  0.2739
 5640TIP3   OH216883   0.138   6.029   1.064  0.3439  0.1230 -0.3218
 5640TIP3    H116884   0.060   6.078   1.091 -1.5192 -1.8213 -1.8391
 5640TIP3    H216885   0.190   6.022   1.144 -0.4689  2.3844  0.5035
 5641TIP3   OH216886   1.507   4.850   5.125  0.1817 -0.2550  0.2547
 5641TIP3    H116887   1.583   4.793   5.138  0.8197  0.3339 -0.7861
 5641TIP3    H216888   1.539   4.938   5.144 -0.8263 -0.2079  1.9471
 5642TIP3   OH216889   0.034   4.827   5.163 -0.5205 -0.8111 -0.0531
 5642TIP3    H116890   0.101   4.869   5.109 -0.5028 -0.7768 -0.0048
 5642TIP3    H216891  -0.046   4.874   5.142  0.1192  1.8833  2.7932
 5643TIP3   OH216892   1.516   6.099   2.300 -0.3781 -0.6523 -0.0639
 5643TIP3    H116893   1.556   6.054   2.225  0.7278  1.2683 -0.6935
 5643TIP3    H216894   1.466   6.170   2.260 -0.4993 -0.1394  0.9886
 5644TIP3   OH216895   4.520   4.932   5.094  0.2902 -0.2515  0.9923
 5644TIP3    H116896   4.519   4.869   5.022 -1.8732 -0.6442  1.2826
 5644TIP3    H216897   4.524   4.879   5.173 -0.8995 -0.0398  1.2216
 5645TIP3   OH216898   3.091   1.319   1.067 -0.0130  0.0444  0.3823
 5645TIP3    H116899   3.152   1.323   0.994  2.1913  1.5178  2.1478
 5645TIP3    H216900   3.132   1.259   1.129 -1.2896 -0.3304  0.9075
 5646TIP3   OH216901   2.962   6.407   5.507 -0.5373 -0.4522  0.1128
 5646TIP3    H116902   2.876   6.444   5.530 -0.5055 -0.3903  0.1318
 5646TIP3    H216903   2.997   6.376   5.591  0.0604  0.7796  0.3332
 5647TIP3   OH216904   4.745   2.898   4.970  0.3096 -0.1803 -0.5706
 5647TIP3    H116905   4.703   2.971   5.016 -0.4540 -0.6566 -0.4923
 5647TIP3    H216906   4.676   2.832   4.963  0.2783  0.0213 -2.7389
 5648TIP3   OH216907   1.603   4.305   4.730  0.3011  0.0480  0.3808
 5648TIP3    H116908   1.599   4.380   4.789  0.3791  1.8845 -1.8443
 5648TIP3    H216909   1.529   4.317   4.671  1.5476 -0.4329 -1.3463
 5649TIP3   OH216910   5.980   2.226   5.458  0.4004 -0.2881  0.3218
 5649TIP3    H116911   5.958   2.163   5.389 -1.0302  1.0977 -0.5376
 5649TIP3    H216912   6.032   2.293   5.415  0.5037 -0.0229  0.8506
 5650TIP3   OH216913   3.121   6.482   0.124  0.0610 -0.2963  0.4877
 5650TIP3    H116914   3.102   6.421   0.195 -0.2082 -0.3308  0.3897
 5650TIP3    H216915   3.208   6.458   0.093  0.2074 -0.2384  0.8479
 5651TIP3   OH216916   2.344   0.494   4.159  0.7570 -0.5303  0.3602
 5651TIP3    H116917   2.273   0.525   4.215 -0.5307  0.9271 -1.9080
 5651TIP3    H216918   2.408   0.565   4.158  1.5409 -1.2023  1.1790
 5652TIP3   OH216919   3.846   3.328   5.822  0.9927 -0.0878 -0.3195
 5652TIP3    H116920   3.886   3.365   5.743 -1.6947  1.9645 -0.8514
 5652TIP3    H216921   3.835   3.403   5.881  0.2803 -1.0646  0.8336
 5653TIP3   OH216922   0.239   0.546   4.129 -0.2632  0.2349 -0.4405
 5653TIP3    H116923   0.154   0.534   4.172 -0.0989 -2.8297 -0.7747
 5653TIP3    H216924   0.225   0.518   4.039  1.2662 -1.1658 -0.2900
 5654TIP3   OH216925   4.317   0.623   5.684 -0.0079  0.2684  0.3720
 5654TIP3    H116926   4.338   0.582   5.600 -0.7385  0.4524  0.0900
 5654TIP3    H216927   4.281   0.552   5.737  0.8843  0.0510  0.6987
 5655TIP3   OH216928   5.363   1.817   3.598 -0.2298 -0.5875 -0.2550
 5655TIP3    H116929   5.317   1.860   3.525  1.5093  0.8363 -0.5761
 5655TIP3    H216930   5.296   1.806   3.665 -1.3257  0.2493 -1.1656
 5656TIP3   OH216931   6.636   4.698   4.661  0.6972  0.1874 -0.2874
 5656TIP3    H116932   6.677   4.612   4.670  0.0726 -0.0909  0.0172
 5656TIP3    H216933   6.549   4.686   4.699  0.2060  0.6637 -1.2217
 5657TIP3   OH216934   4.571   6.324   1.119 -0.3494 -0.0303 -0.0251
 5657TIP3    H116935   4.495   6.378   1.141  1.3129  1.9245  1.2983
 5657TIP3    H216936   4.545   6.235   1.144 -1.9618  0.6805  1.0117
 5658TIP3   OH216937   2.998   2.747   0.961  0.0973  0.3442  0.5009
 5658TIP3    H116938   2.936   2.706   0.900  0.3377 -0.1791  0.6023
 5658TIP3    H216939   2.965   2.726   1.048 -0.4396  1.3920  0.5630
 5659TIP3   OH216940   6.538   4.593   3.413 -0.0026 -0.6093  0.1884
 5659TIP3    H116941   6.464   4.606   3.354  0.1647  2.2925  0.4681
 5659TIP3    H216942   6.508   4.626   3.497  0.9198 -1.4553  0.8827
 5660TIP3   OH216943   2.337   6.241   2.332 -0.4548 -0.4634  0.4054
 5660TIP3    H116944   2.390   6.246   2.252 -1.8759  0.0750 -0.5486
 5660TIP3    H216945   2.328   6.332   2.360  0.2182 -0.6713  1.3188
 5661TIP3   OH216946   3.894   6.377   3.755  0.5592 -0.1299  0.2744
 5661TIP3    H116947   3.964   6.441   3.743 -0.7597  1.3553  0.1018
 5661TIP3    H216948   3.935   6.292   3.737  1.8258  0.8511 -1.9261
 5662TIP3   OH216949   1.224   4.650   5.575  0.0891 -0.0068  0.5539
 5662TIP3    H116950   1.308   4.641   5.531  0.6173  1.3814  1.2254
 5662TIP3    H216951   1.164   4.595   5.525  1.5747 -1.7061  0.5695
 5663TIP3   OH216952   0.896   6.294   2.975 -0.3312  0.0441 -0.0720
 5663TIP3    H116953   0.952   6.249   2.912 -0.5573  0.6430 -0.7209
 5663TIP3    H216954   0.953   6.312   3.050  0.4297  0.8875 -0.8294
 5664TIP3   OH216955   1.821   1.537   5.194 -0.1869  0.0539 -0.9172
 5664TIP3    H116956   1.830   1.632   5.194 -0.2388  0.0591 -1.0948
 5664TIP3    H216957   1.747   1.520   5.252  0.8031  0.0222  0.3692
 5665TIP3   OH216958   3.328   5.332   2.267  0.4926 -0.2344  0.1231
 5665TIP3    H116959   3.282   5.411   2.292  3.6227  2.2679 -1.2890
 5665TIP3    H216960   3.393   5.319   2.336  0.3753 -1.2676  0.0568
 5666TIP3   OH216961   3.043   5.273   3.740  0.1718  0.2668  0.0572
 5666TIP3    H116962   3.058   5.360   3.703 -1.7227  0.7112  0.2009
 5666TIP3    H216963   2.970   5.237   3.689 -1.6034  0.3326  2.3599
 5667TIP3   OH216964   4.192   6.673   2.839  0.1804  0.0049 -0.2262
 5667TIP3    H116965   4.155   6.667   2.751 -1.5008  0.1090  0.4207
 5667TIP3    H216966   4.277   6.714   2.828  0.7686 -1.5955 -1.9831
 5668TIP3   OH216967   4.550   0.735   5.073 -0.1685 -0.3637 -0.4050
 5668TIP3    H116968   4.529   0.648   5.040 -0.3978 -0.0080 -1.2163
 5668TIP3    H216969   4.480   0.754   5.136 -1.1900 -0.0111 -1.6091
 5669TIP3   OH216970   0.778   4.825   3.483  0.4070 -0.6586  0.0624
 5669TIP3    H116971   0.848   4.764   3.460  0.0828 -0.3414 -1.9576
 5669TIP3    H216972   0.820   4.910   3.487  0.3543 -0.6324  0.0593
 5670TIP3   OH216973   2.312   5.068   3.551  0.4352  0.7407 -0.0406
 5670TIP3    H116974   2.343   5.060   3.461  2.9584  0.3983  0.7814
 5670TIP3    H216975   2.264   4.986   3.567  1.9437 -0.2468 -0.3997
 5671TIP3   OH216976   6.020   1.561   4.193  0.0003 -0.4803 -0.2620
 5671TIP3    H116977   5.978   1.631   4.143  0.5873  0.0515 -0.0272
 5671TIP3    H216978   6.041   1.601   4.277  0.5475 -0.8734 -0.2049
 5672TIP3   OH216979   1.898   1.674   0.449 -0.3028  0.2560 -0.4272
 5672TIP3    H116980   1.976   1.728   0.440  0.7658 -0.9435  1.1071
 5672TIP3    H216981   1.856   1.704   0.529  0.6240 -1.4945  0.7724
 5673TIP3   OH216982   2.630   2.973   2.566 -0.0301  0.0783 -0.6464
 5673TIP3    H116983   2.660   2.994   2.655 -1.9403  0.2404 -0.0065
 5673TIP3    H216984   2.711   2.972   2.514  1.1299  0.0349  1.0603
 5674TIP3   OH216985   4.113   5.526   4.030  0.6479 -0.0545 -0.6149
 5674TIP3    H116986   4.131   5.526   4.124  1.2763 -0.9982 -0.7278
 5674TIP3    H216987   4.189   5.485   3.990  1.3218  2.1243 -1.7359
 5675TIP3   OH216988   1.299   6.772   3.129  0.6771 -0.2447  0.1154
 5675TIP3    H116989   1.288   6.679   3.147  1.0102 -0.2058  0.5199
 5675TIP3    H216990   1.379   6.797   3.175  0.6641  0.2129 -0.0984
 5676TIP3   OH216991   5.535   6.724   4.881  0.1779 -1.0968  0.0529
 5676TIP3    H116992   5.441   6.719   4.862  0.1267 -0.0146 -0.0322
 5676TIP3    H216993   5.554   6.818   4.884  1.2184 -1.3032  0.2830
 5677TIP3   OH216994   5.854   1.752   0.447 -0.2887 -0.6046  0.7468
 5677TIP3    H116995   5.890   1.830   0.489 -0.1911 -1.5834  2.5749
 5677TIP3    H216996   5.846   1.776   0.355 -0.8032  1.7597  1.3322
 5678TIP3   OH216997   6.325   2.615   5.795 -0.4593  0.2970 -0.0277
 5678TIP3    H116998   6.392   2.651   5.736  0.6577 -0.9823  0.3823
 5678TIP3    H216999   6.319   2.523   5.769 -0.2960 -0.1796  1.5120
 5679TIP3   OH217000   6.766   5.435   2.796 -0.7790 -0.1233  0.3620
 5679TIP3    H117001   6.833   5.503   2.787 -0.5154 -0.4215  0.0606
 5679TIP3    H217002   6.686   5.483   2.819 -0.4102  0.2099  0.9676
 5680TIP3   OH217003   7.057   0.153   4.557  0.8720  0.5037 -0.0607
 5680TIP3    H117004   6.963   0.138   4.570  0.9800  0.1712  0.3729
 5680TIP3    H217005   7.072   0.133   4.465  0.3002  1.7288 -0.4465
 5681TIP3   OH217006   6.311   5.786   5.714 -0.2121  0.1896  0.6396
 5681TIP3    H117007   6.282   5.858   5.771 -1.3672 -0.5410  1.0161
 5681TIP3    H217008   6.320   5.827   5.628 -0.5070  0.8675  0.9186
 5682TIP3   OH217009   4.555   6.773   3.048 -0.0283  0.0630 -0.4435
 5682TIP3    H117010   4.637   6.784   3.097  0.5265  2.2793 -1.7337
 5682TIP3    H217011   4.545   6.679   3.037  0.7440 -0.4245  2.3394
 5683TIP3   OH217012   5.231   2.286   5.517  0.1863 -0.2329 -0.2511
 5683TIP3    H117013   5.258   2.198   5.491 -0.0714 -0.2537 -0.4472
 5683TIP3    H217014   5.159   2.308   5.458 -1.2035 -0.7579  1.1785
 5684TIP3   OH217015   1.682   1.975   3.793 -0.0411  0.1806 -0.6324
 5684TIP3    H117016   1.734   1.895   3.800 -0.1661  0.0296 -1.3409
 5684TIP3    H217017   1.729   2.029   3.730  0.8136  1.2872  0.8975
 5685TIP3   OH217018   5.220   1.134   1.096 -0.0315  0.0482 -0.1308
 5685TIP3    H117019   5.168   1.208   1.065 -0.2271 -0.1155 -0.1969
 5685TIP3    H217020   5.156   1.072   1.132  0.1712  0.1000  0.3152
 5686TIP3   OH217021   1.634   3.557   2.532 -0.3987  0.7143 -0.3368
 5686TIP3    H117022   1.572   3.486   2.549 -0.7728  1.1874  0.2751
 5686TIP3    H217023   1.712   3.512   2.500 -1.7155  0.2226 -3.1818
 5687TIP3   OH217024   3.526   1.228   3.949  0.5497  0.5201 -0.0961
 5687TIP3    H117025   3.574   1.299   3.906  2.3990 -0.4482  0.2508
 5687TIP3    H217026   3.548   1.237   4.041  3.0298 -1.9575 -0.2957
 5688TIP3   OH217027   4.988   5.888   1.418 -0.1013  0.4022 -0.0014
 5688TIP3    H117028   5.078   5.859   1.404  0.1036 -0.4413  2.4163
 5688TIP3    H217029   4.991   5.934   1.502 -2.0926 -0.6639  0.7315
 5689TIP3   OH217030   5.416   0.255   5.107  0.0479  0.6335 -0.2919
 5689TIP3    H117031   5.337   0.202   5.099  0.8331 -0.5862 -0.3628
 5689TIP3    H217032   5.390   0.342   5.080 -1.1016  0.1007 -0.9866
 5690TIP3   OH217033   3.405   3.078   0.811 -0.4058  0.0538 -0.2512
 5690TIP3    H117034   3.446   3.011   0.757  0.3409 -0.7863  1.2780
 5690TIP3    H217035   3.335   3.031   0.858  0.2706  0.2625  1.0083
 5691TIP3   OH217036   5.823   4.160  -0.022 -0.4947 -0.6308 -0.0452
 5691TIP3    H117037   5.746   4.149   0.033 -0.3130 -0.2163  0.2929
 5691TIP3    H217038   5.894   4.117   0.026 -0.4318 -0.6840 -0.1815
 5692TIP3   OH217039   6.789   5.998   2.173 -0.7041  0.0661 -0.5581
 5692TIP3    H117040   6.751   6.058   2.108 -1.4178  0.7173  0.4433
 5692TIP3    H217041   6.826   6.055   2.240 -1.5088 -0.5961  0.4776
 5693TIP3   OH217042   4.457   3.706   3.684  0.6198 -0.5942 -0.6700
 5693TIP3    H117043   4.547   3.723   3.656  0.5854  0.3210 -0.2693
 5693TIP3    H217044   4.430   3.628   3.634  1.2826 -0.2707 -1.5544
 5694TIP3   OH217045   6.723   6.778   1.420 -0.4755  0.0940 -0.1859
 5694TIP3    H117046   6.710   6.795   1.327  0.7218  1.3191 -0.1696
 5694TIP3    H217047   6.785   6.705   1.423  1.0633  1.3140 -0.4351
 5695TIP3   OH217048   0.203   3.789   2.559  0.0776  0.1171  0.0796
 5695TIP3    H117049   0.219   3.697   2.538  0.6689 -0.0430  1.1700
 5695TIP3    H217050   0.108   3.797   2.563 -0.0245 -0.0878 -1.5113
 5696TIP3   OH217051   2.044   0.960   0.861 -0.4270 -0.6102  0.5654
 5696TIP3    H117052   2.073   0.963   0.770  0.8342  0.5180  0.9693
 5696TIP3    H217053   2.027   0.868   0.879  1.3055 -1.1028 -0.2127
 5697TIP3   OH217054   1.425   2.168   4.930 -0.5682 -0.7428  0.1853
 5697TIP3    H117055   1.505   2.164   4.878 -0.0840 -2.7395  1.0061
 5697TIP3    H217056   1.434   2.097   4.993 -1.5982  0.9644  2.3587
 5698TIP3   OH217057   3.366   2.367   2.922 -0.2908  0.3753  0.8986
 5698TIP3    H117058   3.435   2.378   2.987 -1.6074 -2.0773  2.9298
 5698TIP3    H217059   3.307   2.441   2.936  0.5750  1.0537  0.9783
 5699TIP3   OH217060   4.571   2.158   1.671  0.0705 -0.3921 -0.1651
 5699TIP3    H117061   4.642   2.119   1.620 -0.3711 -1.7106  0.1777
 5699TIP3    H217062   4.492   2.115   1.637 -0.1737 -1.8965  2.1004
 5700TIP3   OH217063   5.482   4.837   0.907 -0.1420  0.2349 -0.0711
 5700TIP3    H117064   5.456   4.853   0.998  1.5000 -0.8133  0.6410
 5700TIP3    H217065   5.544   4.907   0.887 -0.9407  0.8066 -0.6136
 5701TIP3   OH217066   6.543   4.285   5.480  0.4307 -0.0507  0.6284
 5701TIP3    H117067   6.471   4.334   5.520 -0.2839  0.9023 -1.6661
 5701TIP3    H217068   6.601   4.351   5.444  0.7106 -0.8263 -0.4161
 5702TIP3   OH217069   5.453   5.974   0.971 -0.3233 -0.6724  1.0669
 5702TIP3    H117070   5.408   6.047   1.013  1.4887  1.2672 -0.1778
 5702TIP3    H217071   5.383   5.924   0.928 -1.4635  1.8103 -0.2008
 5703TIP3   OH217072   0.233   3.314   4.678 -0.0940 -0.0340 -0.0887
 5703TIP3    H117073   0.180   3.384   4.715 -0.0378 -0.9545  1.8664
 5703TIP3    H217074   0.321   3.331   4.710 -0.1869 -1.2738  0.8926
 5704TIP3   OH217075   2.018   2.202   2.734 -0.3755  0.4621 -0.3136
 5704TIP3    H117076   1.952   2.226   2.799  1.5817  0.1462  1.9555
 5704TIP3    H217077   2.102   2.223   2.777  1.0625 -0.7225 -2.3659
 5705TIP3   OH217078   1.455   6.023   4.091  0.3870 -0.5867 -0.6649
 5705TIP3    H117079   1.486   6.070   4.168 -2.0865  0.2412 -0.0705
 5705TIP3    H217080   1.516   5.951   4.080  0.6815 -0.8780  2.2340
 5706TIP3   OH217081   5.517   0.512   4.755  0.0938 -0.3404 -0.5134
 5706TIP3    H117082   5.485   0.569   4.685 -1.4512  0.2636  0.6182
 5706TIP3    H217083   5.586   0.460   4.715 -0.1820  0.5729 -2.2462
 5707TIP3   OH217084   3.501   5.244   4.704  0.0319 -0.2487 -0.4058
 5707TIP3    H117085   3.441   5.310   4.739  1.4576  0.5881  0.6247
 5707TIP3    H217086   3.470   5.161   4.739  1.1892  0.5080  2.7889
 5708TIP3   OH217087   4.882   5.226   4.665 -0.2473 -0.2023  0.5309
 5708TIP3    H117088   4.881   5.307   4.614  0.7790  1.3967  2.8997
 5708TIP3    H217089   4.792   5.215   4.695 -0.6512 -0.6450 -0.7869
 5709TIP3   OH217090   5.744   0.406   4.649  0.2447 -0.2531  0.1910
 5709TIP3    H117091   5.811   0.472   4.670  0.3053 -0.5109  0.8174
 5709TIP3    H217092   5.793   0.324   4.641  0.2900 -0.0984 -1.4312
 5710TIP3   OH217093   3.141   0.634   0.829 -0.1973 -0.0942  0.1162
 5710TIP3    H117094   3.151   0.542   0.855  1.7217  0.2791  0.8613
 5710TIP3    H217095   3.096   0.630   0.745  0.4719 -1.7749 -0.2063
 5711TIP3   OH217096   5.310   6.352   1.911 -0.4550  0.5511  0.1946
 5711TIP3    H117097   5.228   6.392   1.882 -0.9572 -0.1887  0.5487
 5711TIP3    H217098   5.378   6.400   1.865 -0.9915  2.2063  1.0687
 5712TIP3   OH217099   5.703   2.321   5.039 -0.4930 -0.1167  0.4790
 5712TIP3    H117100   5.678   2.233   5.064  0.6380 -0.6642 -0.2202
 5712TIP3    H217101   5.667   2.333   4.951  1.1078 -0.7096 -0.3077
 5713TIP3   OH217102   0.861   0.221   2.603  0.2182 -0.4193 -0.0533
 5713TIP3    H117103   0.911   0.193   2.680  2.1615 -0.2307 -1.1895
 5713TIP3    H217104   0.904   0.178   2.529 -1.1669 -0.0402 -1.1270
 5714TIP3   OH217105   2.990   0.133   0.460  0.0105 -0.3346 -0.2117
 5714TIP3    H117106   3.009   0.133   0.367 -0.0622  0.0697 -0.2289
 5714TIP3    H217107   2.933   0.057   0.474  0.4276 -0.6853 -0.4084
 5715TIP3   OH217108   3.086   2.697   5.040 -0.2288  0.3213  0.7518
 5715TIP3    H117109   3.001   2.704   5.083 -0.3535  0.6347  0.4527
 5715TIP3    H217110   3.139   2.767   5.079 -0.1955  0.3120  0.7232
 5716TIP3   OH217111   1.613   5.391   2.781 -0.2213 -0.1961 -0.6213
 5716TIP3    H117112   1.571   5.473   2.753 -0.5022  0.3424  1.2309
 5716TIP3    H217113   1.643   5.409   2.870 -0.4270 -2.1570 -0.1107
 5717TIP3   OH217114   0.546   0.066   0.404 -0.5818  0.1139 -0.1567
 5717TIP3    H117115   0.484   0.138   0.411 -0.3100  0.2154  1.5061
 5717TIP3    H217116   0.627   0.100   0.442 -0.2596 -0.8407  0.0405
 5718TIP3   OH217117   2.756   2.314   1.101  0.1041 -0.0611  0.1059
 5718TIP3    H117118   2.730   2.337   1.191  0.7409 -0.9041  0.5122
 5718TIP3    H217119   2.692   2.359   1.046 -0.1049  0.7275  0.9683
 5719TIP3   OH217120   2.506   4.292   2.076  0.6567 -0.0740 -0.5297
 5719TIP3    H117121   2.416   4.276   2.049  1.0413 -1.9123 -0.8549
 5719TIP3    H217122   2.559   4.274   1.998  1.5165 -2.2397  0.4658
 5720TIP3   OH217123   3.073   5.995   1.468  0.1467 -0.5009  0.2722
 5720TIP3    H117124   3.153   5.962   1.428 -0.6389 -1.7827 -0.2968
 5720TIP3    H217125   3.099   6.020   1.556  1.2185 -0.6844  0.0208
 5721TIP3   OH217126   6.793   5.475   0.088  0.1450 -0.6546 -0.4968
 5721TIP3    H117127   6.848   5.464   0.010 -0.1993 -0.6683 -0.7411
 5721TIP3    H217128   6.855   5.494   0.158  0.3229  1.8518 -1.2392
 5722TIP3   OH217129   6.139   6.179   4.941 -0.7388 -0.0268 -0.5742
 5722TIP3    H117130   6.090   6.107   4.980  2.6263 -1.1387  2.0379
 5722TIP3    H217131   6.169   6.145   4.856  1.3924 -2.1405  0.9081
 5723TIP3   OH217132   4.873   4.228   1.825 -0.2371 -0.1754  0.4812
 5723TIP3    H117133   4.844   4.146   1.785 -0.2966 -0.1763  0.5249
 5723TIP3    H217134   4.818   4.236   1.903 -0.1385 -0.1625  0.5488
 5724TIP3   OH217135   5.466   0.690   4.552 -0.2182 -0.1636  0.3089
 5724TIP3    H117136   5.440   0.782   4.545  2.6145  0.6592 -1.2401
 5724TIP3    H217137   5.486   0.664   4.462 -0.2012 -2.0776  0.8209
 5725TIP3   OH217138   5.588   5.979   4.738 -0.4972 -0.1952  0.0926
 5725TIP3    H117139   5.540   5.897   4.722 -2.0318  0.5105  0.8369
 5725TIP3    H217140   5.580   6.028   4.657  0.2048 -0.6617 -0.2679
 5726TIP3   OH217141   4.095   5.495   0.381 -0.0156  0.0104  0.5997
 5726TIP3    H117142   4.110   5.583   0.416 -0.8740  0.1327  0.6816
 5726TIP3    H217143   4.091   5.439   0.459 -0.9023  0.1272  0.6503
 5727TIP3   OH217144   0.762   2.645   4.326  0.3318 -0.5236 -1.1332
 5727TIP3    H117145   0.810   2.652   4.243 -1.2712 -0.7481 -2.1244
 5727TIP3    H217146   0.675   2.613   4.301 -0.5232  0.3581  0.5309
 5728TIP3   OH217147   6.468   6.454   0.183  0.2533  0.1738  0.1380
 5728TIP3    H117148   6.431   6.413   0.260  0.4717 -1.7249 -0.6996
 5728TIP3    H217149   6.554   6.487   0.212  0.0082  0.1772  0.8740
 5729TIP3   OH217150   0.777   0.591   2.384 -0.0628  0.8844 -0.3520
 5729TIP3    H117151   0.706   0.540   2.345  0.9566 -0.8952  0.0245
 5729TIP3    H217152   0.748   0.607   2.474  1.1727 -2.4327  0.7765
 5730TIP3   OH217153   3.060   1.799   1.403 -0.0198 -0.4321 -0.2234
 5730TIP3    H117154   2.967   1.819   1.415  0.3568  0.3561  1.8103
 5730TIP3    H217155   3.101   1.830   1.483  1.8092 -2.0671 -0.4615
 5731TIP3   OH217156   6.991   2.454   3.263 -0.5018  0.0340 -0.0977
 5731TIP3    H117157   7.020   2.463   3.173 -0.7785  1.6644 -0.0390
 5731TIP3    H217158   7.013   2.537   3.305 -1.4805 -0.2330  1.0163
 5732TIP3   OH217159   1.579   1.135   4.378 -0.0663 -0.3820 -0.4709
 5732TIP3    H117160   1.535   1.079   4.442 -3.2146  1.1123 -1.1620
 5732TIP3    H217161   1.661   1.159   4.420 -1.3773 -0.5870  2.4264
 5733TIP3   OH217162   1.429   1.716   1.010  0.1335 -0.0235  0.0663
 5733TIP3    H117163   1.439   1.770   1.089 -0.2418  0.5101 -0.2407
 5733TIP3    H217164   1.393   1.776   0.945 -0.2218 -0.6299 -0.3062
 5734TIP3   OH217165   6.286   6.459   0.652  0.3930  0.1626  0.1873
 5734TIP3    H117166   6.210   6.505   0.689 -0.8830 -0.6081 -1.3316
 5734TIP3    H217167   6.296   6.382   0.707 -0.6376 -0.2849 -0.2189
 5735TIP3   OH217168   1.348   5.003   3.241  0.4307  0.8475 -0.1391
 5735TIP3    H117169   1.281   4.985   3.308  0.1172  1.3079 -0.3262
 5735TIP3    H217170   1.423   4.949   3.268 -0.1523  0.0011 -0.1499
 5736TIP3   OH217171   1.715   2.902   5.591 -0.6830  0.3886 -0.0408
 5736TIP3    H117172   1.804   2.873   5.610 -0.9466  0.1750  0.9221
 5736TIP3    H217173   1.664   2.873   5.667 -1.3740  1.4087 -0.1036
 5737TIP3   OH217174   4.325   1.486   3.212 -0.1815 -0.0896  0.1310
 5737TIP3    H117175   4.360   1.465   3.125  0.0583 -2.0975  0.6625
 5737TIP3    H217176   4.231   1.472   3.203 -0.3785  1.3432 -0.2229
 5738TIP3   OH217177   5.034   1.322   0.980  0.2092 -0.0648 -0.2071
 5738TIP3    H117178   4.986   1.392   0.936  0.5626  0.8936  0.8759
 5738TIP3    H217179   4.974   1.288   1.046  0.6944  0.5890  0.6031
 5739TIP3   OH217180   5.248   2.345   2.983  0.1064  0.0206 -0.7534
 5739TIP3    H117181   5.196   2.266   2.969  1.8645 -1.7667  1.9341
 5739TIP3    H217182   5.191   2.403   3.034 -0.5568 -0.2374 -1.1791
 5740TIP3   OH217183   4.669   3.388   3.807  0.3368  0.4366 -1.1498
 5740TIP3    H117184   4.689   3.399   3.714  0.0033  1.9806 -1.0525
 5740TIP3    H217185   4.740   3.433   3.853 -0.0545  0.5707 -0.6737
 5741TIP3   OH217186   0.137   0.789   2.775  0.1437  0.2310  0.0756
 5741TIP3    H117187   0.161   0.871   2.818  0.9095  0.3850 -0.6117
 5741TIP3    H217188   0.042   0.788   2.777 -0.1058  2.7121 -2.6217
 5742TIP3   OH217189   3.084   3.072   5.407 -0.0141 -0.3689  0.2259
 5742TIP3    H117190   3.179   3.071   5.413 -0.0510  0.4052  1.0900
 5742TIP3    H217191   3.066   3.097   5.316  0.5992 -0.0012  0.2014
 5743TIP3   OH217192   5.119   5.509   1.549 -0.6224 -0.1487 -0.0906
 5743TIP3    H117193   5.189   5.558   1.507  0.3110 -0.4198  1.0803
 5743TIP3    H217194   5.123   5.536   1.641 -0.6217 -1.7828  0.4226
 5744TIP3   OH217195   0.422   3.353   2.351 -0.4870 -0.8085  0.7691
 5744TIP3    H117196   0.510   3.389   2.355 -1.7853  2.7596  1.2063
 5744TIP3    H217197   0.420   3.302   2.270  1.7895 -0.6207  0.5311
 5745TIP3   OH217198   1.525   1.004   5.095  0.7688  0.2945  0.7221
 5745TIP3    H117199   1.583   1.026   5.022  2.4138 -0.0550  1.8905
 5745TIP3    H217200   1.555   0.919   5.125 -2.3056 -1.4334 -0.5282
 5746TIP3   OH217201   5.563   2.299   4.775  0.0243 -0.5322 -0.5957
 5746TIP3    H117202   5.481   2.276   4.818  0.3880 -0.8433 -0.0547
 5746TIP3    H217203   5.583   2.224   4.719 -0.4367 -0.1371 -1.3090
 5747TIP3   OH217204   2.812   5.498   1.037 -0.2935  0.4132  0.2796
 5747TIP3    H117205   2.752   5.508   0.964  0.7922 -0.8258 -0.8357
 5747TIP3    H217206   2.757   5.469   1.110 -1.3549  1.4750 -0.0775
 5748TIP3   OH217207   5.928   6.059   5.515  0.3189 -0.3699  0.0762
 5748TIP3    H117208   5.900   6.150   5.514 -0.5058 -0.6081 -1.5229
 5748TIP3    H217209   5.894   6.024   5.597  0.4965  0.7152  0.6198
 5749TIP3   OH217210   7.147   6.251   2.869  0.0680  0.3543  0.7218
 5749TIP3    H117211   7.143   6.337   2.909 -0.5038  0.4734  0.4158
 5749TIP3    H217212   7.074   6.202   2.907  0.0814  0.1724  0.5210
 5750TIP3   OH217213   0.638   3.988   2.911 -0.0806 -0.5521  0.0789
 5750TIP3    H117214   0.713   3.966   2.967 -0.6403 -1.1069  0.6259
 5750TIP3    H217215   0.678   4.026   2.832  0.7019  0.6398  1.0161
 5751TIP3   OH217216   4.124   1.152   1.144 -0.5019  0.0754 -0.3110
 5751TIP3    H117217   4.156   1.070   1.181 -1.7201 -0.9248 -1.3934
 5751TIP3    H217218   4.089   1.200   1.219  0.1789 -0.3976  0.3241
 5752TIP3   OH217219   3.141   2.304   2.765  0.2693 -0.0757  0.0725
 5752TIP3    H117220   3.225   2.306   2.810  0.5842 -1.2879 -0.4022
 5752TIP3    H217221   3.154   2.241   2.693 -0.4703  1.1469 -1.1786
 5753TIP3   OH217222   4.799   5.297   0.917  0.3507  0.1274  0.7424
 5753TIP3    H117223   4.869   5.322   0.856 -1.4296  2.3185 -0.5692
 5753TIP3    H217224   4.730   5.262   0.861  0.8727 -3.6671  2.1604
 5754TIP3   OH217225   0.873   6.671   5.093  0.0108  0.5220  0.2232
 5754TIP3    H117226   0.820   6.714   5.160  0.9571 -0.8995  1.9574
 5754TIP3    H217227   0.963   6.681   5.124  0.3942 -0.9304 -0.3670
 5755TIP3   OH217228   4.901   6.729   2.635  0.3763  0.5050  0.3945
 5755TIP3    H117229   4.985   6.774   2.643 -0.2832  1.9636 -0.5159
 5755TIP3    H217230   4.858   6.743   2.720  1.8922 -2.2166  1.7633
 5756TIP3   OH217231   1.260   3.804   0.511  0.2061 -0.3956  0.6544
 5756TIP3    H117232   1.227   3.734   0.567 -0.8393  0.5186  1.2165
 5756TIP3    H217233   1.219   3.884   0.544  0.2911  0.3058 -0.8264
 5757TIP3   OH217234   2.354   3.692   0.442  0.0952  0.2558 -0.3975
 5757TIP3    H117235   2.308   3.608   0.447 -0.3277  0.4482 -0.9490
 5757TIP3    H217236   2.447   3.668   0.445 -0.0260 -0.1603  0.3613
 5758TIP3   OH217237   6.520   3.105   3.148  0.3871  0.4983 -0.6319
 5758TIP3    H117238   6.452   3.158   3.190  2.0020  3.0306 -0.9642
 5758TIP3    H217239   6.475   3.063   3.074 -1.5428 -0.7562  1.1375
 5759TIP3   OH217240   0.426   4.069   5.650  0.1212  1.0219 -0.3581
 5759TIP3    H117241   0.425   4.155   5.609 -1.0942  1.2790  0.1609
 5759TIP3    H217242   0.394   4.010   5.581 -3.1259  1.6268  0.4383
 5760TIP3   OH217243   5.945   4.442   0.793 -0.4455 -0.2552 -0.0905
 5760TIP3    H117244   5.849   4.444   0.785 -0.4802 -1.2287 -0.0269
 5760TIP3    H217245   5.968   4.531   0.819 -1.1875  0.4454 -1.6570
 5761TIP3   OH217246   5.001   4.229   5.810 -0.2447  0.0198 -0.6424
 5761TIP3    H117247   4.972   4.168   5.877 -0.7225  0.4174 -0.4805
 5761TIP3    H217248   4.997   4.315   5.852  0.8706  0.1159 -0.7210
 5762TIP3   OH217249   2.820   6.053   4.083  0.2428  0.0577  0.3844
 5762TIP3    H117250   2.868   5.971   4.099 -1.1449 -1.0511 -0.8051
 5762TIP3    H217251   2.867   6.119   4.134  2.3638 -1.1597  0.1219
 5763TIP3   OH217252   0.771   4.093   1.192  0.6850  0.3428  0.1458
 5763TIP3    H117253   0.860   4.105   1.160  1.9756 -2.1061  2.4090
 5763TIP3    H217254   0.766   4.148   1.271  0.3957  0.0835  0.3121
 5764TIP3   OH217255   6.738   5.906   2.483 -0.2059 -0.3019 -0.2784
 5764TIP3    H117256   6.713   5.820   2.449 -0.7950  0.0179 -0.6744
 5764TIP3    H217257   6.832   5.898   2.502 -0.4500 -1.3159  0.5809
 5765TIP3   OH217258   3.311   4.691   5.037 -0.0782  0.1163 -0.0929
 5765TIP3    H117259   3.342   4.775   5.071 -1.9444  0.2476  1.4701
 5765TIP3    H217260   3.285   4.641   5.114  0.5242 -1.7409 -1.0194
 5766TIP3   OH217261   1.576   0.876   1.725  0.4890 -0.1143 -0.1456
 5766TIP3    H117262   1.670   0.891   1.728  0.1839  2.1534 -0.2209
 5766TIP3    H217263   1.542   0.949   1.673 -1.3146 -0.8778 -0.1112
 5767TIP3   OH217264   1.300   1.774   1.830  0.2575 -0.0349  0.3776
 5767TIP3    H117265   1.240   1.737   1.765  1.0052 -0.4041 -0.1063
 5767TIP3    H217266   1.242   1.814   1.895 -0.5029  0.4910 -0.5905
 5768TIP3   OH217267   5.283   3.714   0.730 -0.0806  0.4513 -0.3256
 5768TIP3    H117268   5.223   3.715   0.656  0.0703  1.0212 -0.4483
 5768TIP3    H217269   5.291   3.622   0.754 -2.0363  0.4712  0.5507
 5769TIP3   OH217270   2.853   3.303   2.152 -0.0234 -0.3646  0.3326
 5769TIP3    H117271   2.812   3.276   2.070  0.0458  0.6255 -0.0398
 5769TIP3    H217272   2.934   3.252   2.155 -0.8034 -1.6410  0.6243
 5770TIP3   OH217273   0.890   4.850   2.729 -0.1226 -0.4365 -0.5624
 5770TIP3    H117274   0.942   4.814   2.801 -2.0505  0.1462  1.2303
 5770TIP3    H217275   0.854   4.773   2.685 -2.4462 -0.9309  1.8961
 5771TIP3   OH217276   4.952   4.645   5.676 -0.4786  0.2179 -0.2167
 5771TIP3    H117277   5.010   4.700   5.623  1.4366 -3.2239 -1.9890
 5771TIP3    H217278   4.874   4.634   5.621 -0.0949 -0.2845 -0.6686
 5772TIP3   OH217279   4.644   3.153   0.290  0.0612 -0.3642  0.1110
 5772TIP3    H117280   4.653   3.077   0.349  0.9638  0.1244  0.6298
 5772TIP3    H217281   4.703   3.218   0.327 -0.3959  0.4500 -0.5736
 5773TIP3   OH217282   0.766   6.382   2.625 -0.3312 -0.6771 -1.0805
 5773TIP3    H117283   0.742   6.453   2.566 -0.2761 -0.1851 -0.5254
 5773TIP3    H217284   0.836   6.418   2.680  0.8672 -1.6963 -1.8707
 5774TIP3   OH217285   0.052   4.312   1.631 -0.2479  0.2257  0.0037
 5774TIP3    H117286   0.012   4.389   1.592 -0.5046 -0.5770 -1.4028
 5774TIP3    H217287   0.095   4.267   1.557  1.1221 -0.2325  1.0334
 5775TIP3   OH217288   5.703   3.158   0.430 -0.9022  0.9561  0.2006
 5775TIP3    H117289   5.761   3.218   0.384 -0.8228 -0.2392 -1.3191
 5775TIP3    H217290   5.749   3.138   0.512  1.9425 -1.5643 -1.7932
 5776TIP3   OH217291   4.971   5.260   4.119 -0.2096 -0.0762  0.1593
 5776TIP3    H117292   5.008   5.173   4.136 -1.0555 -0.1522  1.7850
 5776TIP3    H217293   4.908   5.274   4.190 -1.2864  1.1931 -0.9849
 5777TIP3   OH217294   6.814   0.068   4.693 -0.1568 -0.2711 -0.0154
 5777TIP3    H117295   6.795  -0.023   4.671  0.9122 -0.3256 -0.8052
 5777TIP3    H217296   6.730   0.114   4.684 -0.5591 -1.0462 -0.2686
 5778TIP3   OH217297   0.512   5.166   3.665  0.1859 -0.1725 -0.4050
 5778TIP3    H117298   0.462   5.150   3.745 -0.1651 -0.4717 -0.6800
 5778TIP3    H217299   0.498   5.259   3.646 -2.0682 -0.6911 -1.6580
 5779TIP3   OH217300   1.976   5.996   3.326  0.0227 -0.1676 -0.0103
 5779TIP3    H117301   1.892   6.028   3.292  0.0323 -1.3905 -1.2860
 5779TIP3    H217302   2.041   6.028   3.264 -0.0145 -2.8805 -1.5961
 5780TIP3   OH217303   4.363   3.740   0.316  0.5369  0.2080 -0.3198
 5780TIP3    H117304   4.360   3.673   0.248  2.4769  0.3619 -0.6168
 5780TIP3    H217305   4.365   3.691   0.398 -2.2058  0.0260 -0.2737
 5781TIP3   OH217306   0.960   3.124   5.425  0.0785 -0.4281 -0.2691
 5781TIP3    H117307   1.009   3.047   5.399  1.1459  0.2348 -0.2794
 5781TIP3    H217308   0.881   3.089   5.468 -0.2532 -1.5068 -1.6752
 5782TIP3   OH217309   6.121   5.663   1.270  0.7401 -0.2812 -0.1986
 5782TIP3    H117310   6.039   5.699   1.304  1.1958  0.1813  0.4348
 5782TIP3    H217311   6.189   5.708   1.320  1.3998 -0.1584 -1.1925
 5783TIP3   OH217312   5.560   1.532   5.702 -0.2172 -0.8798  0.1879
 5783TIP3    H117313   5.516   1.497   5.624 -1.0796  3.9361 -1.8555
 5783TIP3    H217314   5.650   1.546   5.674 -0.7290  1.6661 -0.4211
 5784TIP3   OH217315   0.558   3.533   0.035  0.1321  0.0280  0.5317
 5784TIP3    H117316   0.466   3.557   0.021  0.1427 -0.3151 -0.1632
 5784TIP3    H217317   0.606   3.584  -0.031  0.3417 -0.5064  0.2647
 5785TIP3   OH217318   2.997   1.224   4.994 -0.0062  0.2505 -0.4709
 5785TIP3    H117319   2.968   1.266   5.075 -0.3306 -1.4430  0.3324
 5785TIP3    H217320   2.976   1.288   4.926 -0.9309  1.1825  0.6368
 5786TIP3   OH217321   7.224   6.240   2.465 -0.0033 -0.4230  0.5124
 5786TIP3    H117322   7.234   6.152   2.502 -0.1942 -0.8584 -0.4511
 5786TIP3    H217323   7.130   6.250   2.451 -0.1472  0.5018  1.9314
 5787TIP3   OH217324   5.650   4.533   4.417  0.4430 -0.4250  0.4728
 5787TIP3    H117325   5.727   4.590   4.422  0.4226 -0.1364 -1.5992
 5787TIP3    H217326   5.669   4.472   4.346 -0.1463 -2.1204  1.7031
 5788TIP3   OH217327   0.102   5.459   5.872  0.5381 -0.4976  0.1681
 5788TIP3    H117328   0.041   5.415   5.812  0.0860  0.1365  0.1456
 5788TIP3    H217329   0.046   5.517   5.923  1.1303  0.1130  0.1378
 5789TIP3   OH217330   6.959   6.060   2.649 -0.6630 -0.2665 -0.2007
 5789TIP3    H117331   7.006   5.977   2.642  0.8105  0.4587  0.4823
 5789TIP3    H217332   6.947   6.073   2.743 -2.0224 -0.2940 -0.3542
 5790TIP3   OH217333   2.667   0.593   5.422  0.2763 -0.3923  0.9547
 5790TIP3    H117334   2.747   0.569   5.468 -0.3140 -1.9371  1.2234
 5790TIP3    H217335   2.678   0.556   5.334 -0.0338 -0.3804  0.9100
 5791TIP3   OH217336   4.611   2.413   1.762 -0.6803 -0.0843 -0.1442
 5791TIP3    H117337   4.619   2.320   1.743  1.5962 -0.0429  0.3166
 5791TIP3    H217338   4.609   2.455   1.676 -0.1143 -0.4673 -0.3468
 5792TIP3   OH217339   2.147   3.891   2.981 -0.0115  0.2447  0.0474
 5792TIP3    H117340   2.187   3.972   2.952  0.1697 -0.0353 -0.4906
 5792TIP3    H217341   2.169   3.827   2.913  0.3389 -0.3911  0.7400
 5793TIP3   OH217342   4.141   5.259   4.804  0.0785 -0.0382 -0.3032
 5793TIP3    H117343   4.186   5.209   4.872  0.7585  3.0287  1.6615
 5793TIP3    H217344   4.053   5.274   4.840 -0.4999 -0.7120 -1.3789
 5794TIP3   OH217345   2.644   2.175   3.445  0.8056 -0.2115 -0.0581
 5794TIP3    H117346   2.694   2.248   3.408  1.9061  0.4055  2.4600
 5794TIP3    H217347   2.552   2.201   3.434  1.1319  0.7136 -0.7785
 5795TIP3   OH217348   0.818   6.496   4.549  0.0814 -0.2817 -0.5250
 5795TIP3    H117349   0.778   6.575   4.512  4.4007  2.8622  0.7034
 5795TIP3    H217350   0.809   6.507   4.643  3.6055  0.7434 -0.1613
 5796TIP3   OH217351   1.880   2.899   4.672  0.4667 -0.0851 -0.3010
 5796TIP3    H117352   1.815   2.863   4.732 -0.1725 -1.1337 -1.5651
 5796TIP3    H217353   1.851   2.989   4.657  0.6691  0.2024  0.9838
 5797TIP3   OH217354   4.143   3.913   2.787 -0.1674 -0.0459  0.5636
 5797TIP3    H117355   4.110   3.999   2.760 -0.2761  0.3643  1.9511
 5797TIP3    H217356   4.232   3.909   2.752 -0.1747  0.6200  0.4625
 5798TIP3   OH217357   0.767   4.469   4.336 -0.1108  0.4836 -0.0071
 5798TIP3    H117358   0.798   4.394   4.388 -0.0047  0.2949 -0.3379
 5798TIP3    H217359   0.688   4.498   4.381 -1.3490 -1.1482 -1.0350
 5799TIP3   OH217360   6.349   6.719   2.791 -0.3919 -0.4728  0.4814
 5799TIP3    H117361   6.267   6.672   2.806 -0.7146 -0.2810 -0.6026
 5799TIP3    H217362   6.364   6.768   2.872 -1.9807  0.4386  0.2748
 5800TIP3   OH217363   6.059   1.422   1.133  0.2287 -0.1303 -0.3539
 5800TIP3    H117364   6.024   1.336   1.107  0.2522 -0.4531  0.6151
 5800TIP3    H217365   5.981   1.477   1.141  0.2754  0.1629 -1.7077
 5801TIP3   OH217366   0.489   1.468   5.743  0.5145  0.4602  0.4650
 5801TIP3    H117367   0.455   1.448   5.655  1.2115  0.6693  0.1419
 5801TIP3    H217368   0.558   1.532   5.728  0.7563  0.3711  1.1594
 5802TIP3   OH217369   5.533   4.069   0.426  1.0965  0.3312  0.3499
 5802TIP3    H117370   5.465   4.048   0.362  0.9470 -0.0080  0.6123
 5802TIP3    H217371   5.529   4.164   0.436  0.0843  0.2363  0.9881
 5803TIP3   OH217372   4.348   6.184   0.770  0.4094  0.0517 -0.2937
 5803TIP3    H117373   4.443   6.190   0.762  0.4010 -1.2706 -2.2296
 5803TIP3    H217374   4.328   6.092   0.751 -1.2494  0.2924  0.1341
 5804TIP3   OH217375   4.905   4.866   0.690 -0.0777  0.2187 -0.3544
 5804TIP3    H117376   4.933   4.819   0.611 -1.4515  0.3705 -0.9692
 5804TIP3    H217377   4.920   4.804   0.761  0.5733 -0.1691 -0.8149
 5805TIP3   OH217378   6.899   1.994   3.040 -0.7073 -0.0075  0.4093
 5805TIP3    H117379   6.873   1.966   2.952  1.0972  0.7956 -0.4268
 5805TIP3    H217380   6.896   2.089   3.037 -1.7845  0.0128  1.6107
 5806TIP3   OH217381   4.661   2.150   0.743  0.4088 -0.2010 -0.0797
 5806TIP3    H117382   4.677   2.060   0.714  2.1872 -0.3606  1.2321
 5806TIP3    H217383   4.709   2.205   0.681 -1.0422 -0.0584 -1.1529
 5807TIP3   OH217384   6.842   0.777   2.028  0.7149  0.3311 -0.5740
 5807TIP3    H117385   6.869   0.795   2.118 -3.9149 -0.4810  1.2223
 5807TIP3    H217386   6.869   0.687   2.013  0.2543 -0.0179  0.5826
 5808TIP3   OH217387   3.911   0.081   2.360  0.1775 -0.3573  0.3516
 5808TIP3    H117388   3.944   0.149   2.419  0.0163  0.7291 -0.7787
 5808TIP3    H217389   3.961   0.093   2.279  0.8967 -2.2753  0.4720
 5809TIP3   OH217390   6.438   5.076   0.215  0.2661 -0.2170  0.3722
 5809TIP3    H117391   6.520   5.036   0.245  1.4209  1.8447  0.1178
 5809TIP3    H217392   6.443   5.069   0.119  2.1103  3.3037  0.0538
 5810TIP3   OH217393   5.531   0.665   2.626  0.0379 -0.1514 -0.1387
 5810TIP3    H117394   5.545   0.747   2.580 -0.5606  1.8100  2.8989
 5810TIP3    H217395   5.436   0.650   2.621 -0.4111  1.3661  2.2595
 5811TIP3   OH217396   4.112   4.181   2.663 -0.4102 -0.7591 -0.1616
 5811TIP3    H117397   4.187   4.234   2.635 -0.6719  0.8774  1.9731
 5811TIP3    H217398   4.046   4.194   2.595  0.2072  0.1769 -0.6019
 5812TIP3   OH217399   4.097   3.507   1.527 -0.3239 -0.3979  0.1756
 5812TIP3    H117400   4.151   3.543   1.457 -1.4820  0.8303 -0.1236
 5812TIP3    H217401   4.060   3.583   1.572 -0.3331 -1.1734  1.5576
 5813TIP3   OH217402   3.510   5.275   5.078 -0.1648 -0.0840 -0.3441
 5813TIP3    H117403   3.531   5.322   5.159  1.3938 -0.5563 -0.4332
 5813TIP3    H217404   3.532   5.337   5.008  0.9495 -0.5657 -0.4396
 5814TIP3   OH217405   3.721   5.407   5.323 -0.5539  0.0198  0.4692
 5814TIP3    H117406   3.636   5.440   5.353 -0.6596  1.0066 -0.8084
 5814TIP3    H217407   3.782   5.479   5.340  0.0484 -0.6950  1.4026
 5815TIP3   OH217408   3.801   6.001   0.924 -0.0496 -0.3773  0.5194
 5815TIP3    H117409   3.873   6.019   0.862 -1.2475  1.3669 -0.4354
 5815TIP3    H217410   3.820   6.057   0.999  0.6561 -1.4672  1.1882
 5816TIP3   OH217411   6.105   2.917   5.012 -0.2898  0.3750  0.0939
 5816TIP3    H117412   6.163   2.941   5.084  1.4242 -0.7414 -0.8308
 5816TIP3    H217413   6.132   2.973   4.940 -0.5654  0.0593 -0.2625
 5817TIP3   OH217414   0.171   5.832   1.965  0.2151 -0.0279  0.2808
 5817TIP3    H117415   0.092   5.794   2.004 -0.6164  0.0961 -1.2114
 5817TIP3    H217416   0.151   5.926   1.958  0.4119 -0.0287 -0.2911
 5818TIP3   OH217417   2.059   5.654   2.692  0.3201 -0.3820  0.1329
 5818TIP3    H117418   2.117   5.639   2.617  0.7524  0.5210  0.2772
 5818TIP3    H217419   2.118   5.662   2.767 -0.0546 -0.3703  0.4297
 5819TIP3   OH217420   3.267   1.956   0.769  0.2924 -0.1155 -0.0958
 5819TIP3    H117421   3.175   1.983   0.770 -0.1749 -1.6140  0.1559
 5819TIP3    H217422   3.317   2.038   0.767 -1.0382  0.7240  0.2097
 5820TIP3   OH217423   4.667   3.303   5.361 -0.9483  0.1502  0.4699
 5820TIP3    H117424   4.634   3.377   5.412  0.4194  2.2038 -1.4235
 5820TIP3    H217425   4.664   3.334   5.270  0.2474 -1.9016 -0.3251
 5821TIP3   OH217426   2.927   5.462   4.314 -0.1862  0.3933  0.1460
 5821TIP3    H117427   2.896   5.383   4.270  0.3528  0.5360 -0.4966
 5821TIP3    H217428   2.995   5.497   4.257  0.1941  0.8453  0.8547
 5822TIP3   OH217429   4.644   3.579   5.423  0.1229 -0.1119 -0.1233
 5822TIP3    H117430   4.553   3.561   5.403 -0.0957  0.0549  0.6595
 5822TIP3    H217431   4.640   3.649   5.489  0.6751 -2.1952  2.2782
 5823TIP3   OH217432   4.752   2.260   5.639 -0.7228 -0.4998 -0.4662
 5823TIP3    H117433   4.798   2.256   5.723 -1.2826  0.1988 -0.1087
 5823TIP3    H217434   4.816   2.229   5.575 -0.2205 -0.8565  0.1900
 5824TIP3   OH217435   6.728   4.439   4.638  0.3259 -0.3621  0.4741
 5824TIP3    H117436   6.760   4.361   4.592  1.1847  0.9721 -1.3376
 5824TIP3    H217437   6.802   4.464   4.694 -0.1643 -1.1374  1.5003
 5825TIP3   OH217438   6.460   0.070   5.621 -0.6484 -0.6772  0.3099
 5825TIP3    H117439   6.485   0.144   5.677 -0.3342 -0.2394 -0.3913
 5825TIP3    H217440   6.465   0.105   5.532  1.3841 -2.0817 -0.1785
 5826TIP3   OH217441   2.115   1.204   1.007 -0.6908 -0.1382  0.0943
 5826TIP3    H117442   2.102   1.110   0.995  1.8115 -0.4206 -1.1340
 5826TIP3    H217443   2.176   1.229   0.937 -2.4510  2.7353 -0.5756
 5827TIP3   OH217444   2.721   3.575   1.048  0.2202  0.2202  0.2614
 5827TIP3    H117445   2.647   3.547   1.102  0.0895  0.3329  0.1403
 5827TIP3    H217446   2.789   3.510   1.065 -0.3622 -0.6603 -0.6619
 5828TIP3   OH217447   2.549   1.422   5.417 -0.3139  0.2977 -0.1149
 5828TIP3    H117448   2.532   1.480   5.342 -1.1235  2.0091  1.3101
 5828TIP3    H217449   2.511   1.468   5.492 -1.2777 -2.2565  1.0852
 5829TIP3   OH217450   4.297   1.166   1.688  0.4583  0.2288 -0.1105
 5829TIP3    H117451   4.308   1.128   1.600 -3.0519  3.2319 -2.1706
 5829TIP3    H217452   4.202   1.174   1.698  0.8184  1.8977  3.1115
 5830TIP3   OH217453   6.905   2.948   1.440 -0.0578  0.0594 -0.3610
 5830TIP3    H117454   6.853   3.017   1.483 -0.1272  0.2227 -0.7050
 5830TIP3    H217455   6.868   2.866   1.472 -1.5529  0.1316 -1.7664
 5831TIP3   OH217456   6.697   3.037   1.235  0.2836  0.0855 -0.2238
 5831TIP3    H117457   6.697   3.047   1.331  0.6762 -0.4561 -0.1682
 5831TIP3    H217458   6.610   3.067   1.209 -0.3069 -0.9982  0.4340
 5832TIP3   OH217459   4.664   4.855   3.459  0.0298  0.1905  0.1178
 5832TIP3    H117460   4.670   4.767   3.495  0.7318  0.4342  0.6363
 5832TIP3    H217461   4.570   4.871   3.447 -0.0730 -0.8660 -0.6234
 5833TIP3   OH217462   1.614   0.338   1.736  0.4198 -0.2681  0.0104
 5833TIP3    H117463   1.592   0.430   1.753 -0.3069  0.1449 -2.6525
 5833TIP3    H217464   1.530   0.296   1.718  0.9950  0.0356 -4.7162
 5834TIP3   OH217465   5.320   4.533   1.423 -0.2221 -0.0040 -0.2681
 5834TIP3    H117466   5.264   4.611   1.425  0.0112  0.1549  0.2187
 5834TIP3    H217467   5.409   4.567   1.434 -0.1089 -0.3312 -0.1604
 5835TIP3   OH217468   0.489   2.493   0.494  0.7981 -0.5620  0.0212
 5835TIP3    H117469   0.430   2.452   0.430 -0.3599 -0.4657  0.9840
 5835TIP3    H217470   0.569   2.510   0.445 -0.4954  0.6986 -1.7732
 5836TIP3   OH217471   0.989   5.406   2.462  0.4303  0.1617 -0.1899
 5836TIP3    H117472   0.930   5.378   2.393  1.1385  1.9382 -1.5846
 5836TIP3    H217473   1.062   5.447   2.416  0.8540  1.5466  1.6080
 5837TIP3   OH217474   6.509   6.442   3.590  0.2113 -0.3624 -0.2255
 5837TIP3    H117475   6.534   6.444   3.682  2.1520  2.5574 -0.7042
 5837TIP3    H217476   6.518   6.350   3.565 -0.0884 -1.1767  2.3628
 5838TIP3   OH217477   1.743   3.555   0.616  0.1886 -0.4304 -0.0411
 5838TIP3    H117478   1.650   3.564   0.595 -0.3737  1.2785  2.6505
 5838TIP3    H217479   1.757   3.461   0.624 -0.7949 -0.8268 -2.3036
 5839TIP3   OH217480   1.847   5.545   3.924 -0.4372  0.0277  0.3956
 5839TIP3    H117481   1.867   5.583   3.839 -1.1320  0.4110  0.3953
 5839TIP3    H217482   1.777   5.482   3.907 -0.3783 -0.1039  0.6351
 5840TIP3   OH217483   0.165   1.002   1.737 -0.5832 -0.3508  0.3100
 5840TIP3    H117484   0.093   0.939   1.729  0.4871 -1.3895 -2.1941
 5840TIP3    H217485   0.137   1.077   1.683 -0.6442  0.1334  0.9995
 5841TIP3   OH217486   1.609   4.681   0.065 -0.3984 -0.4274  0.1049
 5841TIP3    H117487   1.568   4.668  -0.021  1.6567 -1.7363 -0.7534
 5841TIP3    H217488   1.703   4.675   0.048  0.1729  1.2304  2.1711
 5842TIP3   OH217489   7.099   1.221   0.027  0.0747  0.1557  0.5653
 5842TIP3    H117490   7.051   1.223   0.109  0.3887  0.4992  0.7432
 5842TIP3    H217491   7.084   1.307  -0.012  2.7801  1.3905  1.9345
 5843TIP3   OH217492   0.032   5.715   1.715  0.1023  0.3759 -0.6129
 5843TIP3    H117493   0.002   5.704   1.805 -1.8745  0.0175 -1.2766
 5843TIP3    H217494   0.099   5.784   1.721 -0.9272  1.3148  0.9310
 5844TIP3   OH217495   6.472   4.376   4.519 -0.2679  0.1067 -0.6146
 5844TIP3    H117496   6.547   4.397   4.575 -1.0203  0.4459  0.2917
 5844TIP3    H217497   6.447   4.287   4.546  0.1605 -0.2382 -1.3275
 5845TIP3   OH217498   6.027   2.959   3.641  0.3190  0.1159  0.1429
 5845TIP3    H117499   5.946   2.963   3.693 -0.0976  0.9835 -0.5403
 5845TIP3    H217500   6.089   3.014   3.689 -0.9307  3.3763 -1.6482
 5846TIP3   OH217501   5.113   5.955   3.017  0.6122 -0.5493 -0.3697
 5846TIP3    H117502   5.037   5.975   2.962  0.1280  2.5468  1.1889
 5846TIP3    H217503   5.081   5.961   3.107  2.5728  0.5302  0.3306
 5847TIP3   OH217504   5.563   1.546   5.063 -0.0823 -0.1170 -0.0027
 5847TIP3    H117505   5.561   1.569   5.156 -0.8524 -1.6331  0.3956
 5847TIP3    H217506   5.527   1.622   5.019  1.0295  0.9379  0.8507
 5848TIP3   OH217507   2.374   4.903   2.984  0.2395 -0.1326 -0.4548
 5848TIP3    H117508   2.435   4.976   2.996  1.0968 -0.8974 -0.0550
 5848TIP3    H217509   2.322   4.928   2.907 -0.3750  1.4800  0.4330
 5849TIP3   OH217510   2.790   2.561   0.796  0.7305 -0.2220  0.5091
 5849TIP3    H117511   2.704   2.551   0.755  0.3053  2.4678  0.5651
 5849TIP3    H217512   2.847   2.501   0.747 -1.0439 -1.6315  0.1006
 5850TIP3   OH217513   3.150   4.086   0.495  0.3819  0.3868  0.7792
 5850TIP3    H117514   3.244   4.073   0.508  0.8099  0.3976 -1.7585
 5850TIP3    H217515   3.143   4.176   0.464  0.1388 -0.7956 -3.0705
 5851TIP3   OH217516   1.491   0.915   3.804  0.7219 -0.2206  0.0967
 5851TIP3    H117517   1.562   0.966   3.843 -0.4571 -0.1925  2.3663
 5851TIP3    H217518   1.432   0.980   3.767  0.4693 -0.0790  0.7441
 5852TIP3   OH217519   6.838   5.097   1.186  0.2779  0.0555 -0.4177
 5852TIP3    H117520   6.897   5.032   1.223  1.0960  2.0943  2.0940
 5852TIP3    H217521   6.894   5.156   1.137  0.2663  1.4400  1.1586
 5853TIP3   OH217522   6.263   3.967   3.198 -0.1534 -0.0387 -0.4436
 5853TIP3    H117523   6.256   3.925   3.284  0.5527 -1.5135 -1.0713
 5853TIP3    H217524   6.172   3.977   3.170 -0.3855  0.2252  0.3582
 5854TIP3   OH217525   5.308   2.802   3.263  0.3170  0.4925  0.0117
 5854TIP3    H117526   5.400   2.789   3.288 -0.0160 -1.1962  0.4451
 5854TIP3    H217527   5.263   2.820   3.345  0.1437  0.6432 -0.1170
 5855TIP3   OH217528   7.179   3.504   2.403 -0.1728 -0.8130  0.1098
 5855TIP3    H117529   7.168   3.438   2.335 -1.2685 -1.2062  0.6519
 5855TIP3    H217530   7.158   3.587   2.360 -0.3080 -0.9952 -0.1751
 5856TIP3   OH217531   1.987   5.814   5.528  0.1106 -0.3059  0.5640
 5856TIP3    H117532   1.915   5.753   5.513  1.0743 -1.1428 -0.9306
 5856TIP3    H217533   2.025   5.827   5.441  2.9179 -1.3476  1.5250
 5857TIP3   OH217534   0.122   0.678   2.195 -0.4776 -0.4758  0.1790
 5857TIP3    H117535   0.105   0.730   2.274 -1.4737  0.3654 -0.5722
 5857TIP3    H217536   0.083   0.593   2.214  0.0992 -0.5845  0.9458
 5858TIP3   OH217537   6.275   4.835   2.354 -0.2405 -0.1359 -0.4012
 5858TIP3    H117538   6.324   4.756   2.331 -0.4134 -0.1259 -0.8056
 5858TIP3    H217539   6.187   4.821   2.317 -0.3807  0.0857 -0.1584
 5859TIP3   OH217540   6.702   5.031   2.677  0.3762 -0.4399 -0.2364
 5859TIP3    H117541   6.774   5.056   2.619  0.7238 -1.1555 -0.1278
 5859TIP3    H217542   6.623   5.050   2.627  0.6675 -0.7370 -0.8233
 5860TIP3   OH217543   1.090   6.170   2.309  0.0896 -0.6114  0.2929
 5860TIP3    H117544   1.177   6.196   2.278 -0.0020 -1.3792 -0.6486
 5860TIP3    H217545   1.085   6.206   2.398  1.5151 -0.8813  0.5117
 5861TIP3   OH217546   5.152   4.506   5.545  0.6127 -0.2927  0.4357
 5861TIP3    H117547   5.084   4.547   5.598  0.4551  0.4224 -0.3120
 5861TIP3    H217548   5.214   4.471   5.609  0.0743 -0.0498  1.1022
 5862TIP3   OH217549   6.802   4.453   3.152 -0.4136 -0.4780 -0.0450
 5862TIP3    H117550   6.852   4.507   3.090  0.8660  0.6137  1.8392
 5862TIP3    H217551   6.729   4.509   3.178  0.2039 -0.1087  0.9468
 5863TIP3   OH217552   5.942   5.486   3.966 -0.1190 -0.5940  0.3972
 5863TIP3    H117553   5.936   5.580   3.954  0.8702 -0.3916  1.3345
 5863TIP3    H217554   5.956   5.451   3.877 -0.4212  0.1381  0.0562
 5864TIP3   OH217555   2.735   5.111   4.969  0.3102  1.3054 -0.7366
 5864TIP3    H117556   2.659   5.153   4.929  0.4615  1.0642 -1.2947
 5864TIP3    H217557   2.773   5.178   5.026 -0.9859  1.0658  0.4635
 5865TIP3   OH217558   4.333   3.740   2.998 -0.1038  0.2839 -0.0523
 5865TIP3    H117559   4.262   3.686   2.963 -0.0734  0.1470  0.0948
 5865TIP3    H217560   4.413   3.693   2.973 -0.0712  0.3487 -0.0698
 5866TIP3   OH217561   1.649   5.197   4.441  0.5738 -0.0755 -0.0032
 5866TIP3    H117562   1.702   5.218   4.518  2.0568  0.3541 -1.0924
 5866TIP3    H217563   1.564   5.236   4.459  1.3448  1.3077  0.8079
 5867TIP3   OH217564   4.715   0.553   5.792  0.0894 -0.1570  0.1516
 5867TIP3    H117565   4.664   0.488   5.744  0.0485 -0.7166  0.9281
 5867TIP3    H217566   4.731   0.623   5.729 -0.2108 -0.7393 -0.5803
 5868TIP3   OH217567   3.301   2.708   1.108  0.1462 -0.2007  0.0874
 5868TIP3    H117568   3.223   2.652   1.103 -0.0340 -0.0377  0.9276
 5868TIP3    H217569   3.313   2.724   1.202  2.3193 -1.8013  0.1621
 5869TIP3   OH217570   6.744   5.717   3.356  0.4000 -0.3019 -0.1628
 5869TIP3    H117571   6.684   5.669   3.414 -1.1472  0.4627 -1.0664
 5869TIP3    H217572   6.815   5.655   3.338  0.6913 -0.7303  2.1136
 5870TIP3   OH217573   0.182   1.799   5.648 -0.9083 -0.0204 -0.3101
 5870TIP3    H117574   0.274   1.804   5.623 -1.0215 -0.0469 -0.7289
 5870TIP3    H217575   0.140   1.754   5.575 -1.4751  1.1266 -0.7060
 5871TIP3   OH217576   4.007   1.783   0.796 -0.7854  0.0104 -0.4836
 5871TIP3    H117577   3.983   1.694   0.822  1.2404 -0.7392 -1.0079
 5871TIP3    H217578   3.945   1.804   0.726 -1.2669 -1.0018 -0.3844
 5872TIP3   OH217579   3.718   1.379   0.236  0.3871  0.5263 -0.4598
 5872TIP3    H117580   3.801   1.391   0.189  2.0472 -0.7951  1.9245
 5872TIP3    H217581   3.664   1.329   0.176  2.0303 -0.2134 -1.3997
 5873TIP3   OH217582   3.336   2.687   3.261  0.2256 -0.0508 -0.2280
 5873TIP3    H117583   3.388   2.707   3.339 -0.8084  0.0907  0.4468
 5873TIP3    H217584   3.380   2.610   3.223  0.4601 -0.4376  0.7761
 5874TIP3   OH217585   3.973   5.374   1.085  0.8723 -0.4311 -0.2232
 5874TIP3    H117586   4.026   5.300   1.113 -0.2536 -0.6880  1.3526
 5874TIP3    H217587   3.973   5.433   1.160  0.2853  0.3370 -0.8144
 5875TIP3   OH217588   3.354   1.336   5.611 -0.3893 -0.1204 -0.1243
 5875TIP3    H117589   3.356   1.347   5.706 -0.6270  1.1081 -0.2354
 5875TIP3    H217590   3.432   1.285   5.591  1.1001  1.7510  0.5279
 5876TIP3   OH217591   1.172   3.484   2.104  0.6066  0.1290  0.1969
 5876TIP3    H117592   1.242   3.456   2.163 -0.7630 -1.4152  1.1421
 5876TIP3    H217593   1.151   3.406   2.053 -1.1569  0.2467  0.6923
 5877TIP3   OH217594   2.192   1.603   1.044 -0.0845 -0.1499  0.5649
 5877TIP3    H117595   2.097   1.607   1.041 -0.2363 -0.8607  2.7667
 5877TIP3    H217596   2.218   1.679   1.097  0.6251  0.3051 -0.4028
 5878TIP3   OH217597   5.569   6.634   2.083  0.1655  0.0791 -0.4838
 5878TIP3    H117598   5.652   6.601   2.047  0.7702  0.6878  0.3130
 5878TIP3    H217599   5.576   6.729   2.076 -0.4429  0.1390 -0.3421
 5879TIP3   OH217600   6.801   5.979   4.892 -0.3264 -0.0688  0.2792
 5879TIP3    H117601   6.730   6.038   4.919 -0.4584  1.0017 -2.1156
 5879TIP3    H217602   6.822   5.929   4.970 -1.9700  1.3934  1.7431
 5880TIP3   OH217603   4.895   6.499   4.667 -0.5108  0.3486 -0.2306
 5880TIP3    H117604   4.805   6.532   4.664 -0.3945  0.6604 -0.3866
 5880TIP3    H217605   4.899   6.445   4.745 -0.5061  1.3148  0.4507
 5881TIP3   OH217606   3.138   2.416   4.223 -0.3429  0.0724  0.4060
 5881TIP3    H117607   3.167   2.438   4.134  0.8311  0.5289  0.8903
 5881TIP3    H217608   3.050   2.454   4.229 -0.5383 -0.1865 -0.6457
 5882TIP3   OH217609   1.269   1.203   2.586 -0.1534  0.3616 -0.5169
 5882TIP3    H117610   1.254   1.297   2.595 -0.8925  0.2708 -0.7632
 5882TIP3    H217611   1.334   1.196   2.515 -0.2167  0.6784 -0.6077
 5883TIP3   OH217612   5.751   2.535   3.578 -0.6401 -0.3512 -0.2468
 5883TIP3    H117613   5.821   2.585   3.537 -2.2039  1.9458 -0.3369
 5883TIP3    H217614   5.781   2.444   3.576  1.2795  0.2378 -2.3895
 5884TIP3   OH217615   0.502   5.039   5.570  0.5734  0.4148  0.2442
 5884TIP3    H117616   0.496   5.051   5.475  1.1215  1.1303  0.2864
 5884TIP3    H217617   0.594   5.054   5.590  0.5905 -0.3807  0.8155
 5885TIP3   OH217618   5.787   1.551   2.916 -0.1604  0.3077 -0.2728
 5885TIP3    H117619   5.696   1.568   2.892 -0.3038 -1.0562 -0.7893
 5885TIP3    H217620   5.807   1.616   2.984 -0.7402  2.2035 -1.8446
 5886TIP3   OH217621   4.866   2.236   4.238  0.1997  0.2608  0.2174
 5886TIP3    H117622   4.889   2.246   4.146  0.7531  0.9683  0.4254
 5886TIP3    H217623   4.904   2.313   4.281  0.9122 -0.6053  1.2015
 5887TIP3   OH217624   5.909   6.375   1.880 -0.0025 -0.2226 -0.2949
 5887TIP3    H117625   5.955   6.408   1.803  1.4045  0.0761  0.6419
 5887TIP3    H217626   5.859   6.300   1.847  1.6290 -0.9420 -1.2516
 5888TIP3   OH217627   2.142   0.761   2.475 -0.7195  0.4444  0.2162
 5888TIP3    H117628   2.193   0.839   2.493  0.8518 -0.9170  2.0394
 5888TIP3    H217629   2.079   0.756   2.546 -0.9366  0.1402  0.0078
 5889TIP3   OH217630   4.939   5.396   5.591 -0.3206  0.3357 -0.4040
 5889TIP3    H117631   4.888   5.328   5.634 -0.7726  0.2672 -1.0319
 5889TIP3    H217632   4.976   5.353   5.513 -1.7428  1.1384 -1.5647
 5890TIP3   OH217633   6.893   6.202   2.377  0.1564  0.0997  0.0582
 5890TIP3    H117634   6.815   6.248   2.407  0.7349  1.1700 -0.0408
 5890TIP3    H217635   6.904   6.130   2.439 -0.7209  0.1318  0.2588
 5891TIP3   OH217636   4.208   4.529   2.584 -0.7014 -0.1760  0.5603
 5891TIP3    H117637   4.124   4.533   2.630 -1.3269  1.0376 -0.5914
 5891TIP3    H217638   4.240   4.619   2.585 -0.7970 -0.0752 -1.3960
 5892TIP3   OH217639   4.185   5.351   0.673 -0.0377 -0.2385  0.5418
 5892TIP3    H117640   4.240   5.291   0.623  0.1501  0.0660  0.3807
 5892TIP3    H217641   4.232   5.362   0.756  0.0655 -0.1072  0.4675
 5893TIP3   OH217642   2.771   1.411   1.901  0.4061  0.3147 -0.5029
 5893TIP3    H117643   2.698   1.446   1.851 -0.5857  0.4344  0.9597
 5893TIP3    H217644   2.745   1.421   1.993  1.7255 -0.7848  0.0387
 5894TIP3   OH217645   5.286   4.159   0.136  0.7262  0.0435 -0.0113
 5894TIP3    H117646   5.257   4.138   0.048  0.5739 -1.6266  0.4172
 5894TIP3    H217647   5.241   4.241   0.157 -0.3572 -0.3039 -0.9295
 5895TIP3   OH217648   3.693   1.264   4.179 -0.3257  0.1257 -0.0705
 5895TIP3    H117649   3.741   1.185   4.205 -1.8245 -1.3926 -1.5820
 5895TIP3    H217650   3.631   1.279   4.251  0.0436  0.0002  0.2782
 5896TIP3   OH217651   5.100   2.414   4.399  0.4044  0.4586 -0.4297
 5896TIP3    H117652   5.032   2.459   4.450 -0.0526  0.8045 -1.3235
 5896TIP3    H217653   5.150   2.365   4.464 -0.6978  0.2047  0.2652
 5897TIP3   OH217654   5.666   3.824   0.223  0.6309 -0.6954  0.2719
 5897TIP3    H117655   5.675   3.757   0.155  0.1990 -0.2355 -0.2416
 5897TIP3    H217656   5.693   3.779   0.304  1.2615 -1.2083 -0.2142
 5898TIP3   OH217657   0.244   4.940   5.034  0.1801  0.6015 -1.0105
 5898TIP3    H117658   0.242   4.859   4.984 -0.5893  0.2150 -0.3705
 5898TIP3    H217659   0.306   4.996   4.987 -0.3451  0.1642 -2.2662
 5899TIP3   OH217660   6.121   2.951   5.284  0.3379  0.3382 -0.1829
 5899TIP3    H117661   6.131   2.857   5.299 -0.4589  0.1753 -0.6037
 5899TIP3    H217662   6.186   2.992   5.340  0.1714 -0.4335  0.5861
 5900TIP3   OH217663   1.006   3.665   4.141  0.0354  0.1035  0.0451
 5900TIP3    H117664   1.040   3.698   4.224  0.0878  0.0213  0.0562
 5900TIP3    H217665   1.027   3.572   4.142 -2.1288 -0.4503  1.0493
 5901TIP3   OH217666   0.616   5.012   0.900  0.5436 -0.7197  0.2715
 5901TIP3    H117667   0.648   4.929   0.937  0.2046 -0.8594  0.2581
 5901TIP3    H217668   0.646   5.079   0.961  0.0732 -0.9388  0.7469
 5902TIP3   OH217669   4.808   1.200   4.535 -0.6021 -0.0805 -0.4001
 5902TIP3    H117670   4.871   1.209   4.606 -0.2530 -2.3905 -0.3421
 5902TIP3    H217671   4.732   1.250   4.564  0.8883  2.2059 -0.1779
 5903TIP3   OH217672   1.160   6.257   1.672  0.2891  0.1515 -0.5432
 5903TIP3    H117673   1.225   6.316   1.633  1.7967 -1.5157 -0.6455
 5903TIP3    H217674   1.090   6.252   1.606 -0.2335  2.3035 -0.2496
 5904TIP3   OH217675   4.546   1.342   4.999  0.1939  0.0035 -0.2755
 5904TIP3    H117676   4.532   1.293   4.919  0.1838  0.7166 -0.7246
 5904TIP3    H217677   4.462   1.383   5.018  0.2694  0.0638 -0.0587
 5905TIP3   OH217678   3.672   3.835   3.659  0.7301  0.4136  0.6125
 5905TIP3    H117679   3.736   3.850   3.590 -0.0544  0.5479 -0.1141
 5905TIP3    H217680   3.670   3.916   3.709  1.4373  0.2507  0.9210
 5906TIP3   OH217681   4.734   5.625   0.599 -0.0501 -0.3204  0.2828
 5906TIP3    H117682   4.694   5.624   0.686  0.6983 -1.3335  0.6364
 5906TIP3    H217683   4.683   5.562   0.548 -1.1518  1.0212 -0.3619
 5907TIP3   OH217684   6.473   6.673   1.510  0.1176 -0.1214 -0.3880
 5907TIP3    H117685   6.540   6.739   1.529 -0.2729  0.3060 -0.4589
 5907TIP3    H217686   6.483   6.608   1.579  0.3853  0.1103 -0.2049
 5908TIP3   OH217687   2.513   6.551   5.789 -0.4314  1.2891 -0.7066
 5908TIP3    H117688   2.459   6.575   5.865  0.4653  0.1349  0.3336
 5908TIP3    H217689   2.464   6.481   5.746 -0.1789  0.8205 -0.2425
 5909TIP3   OH217690   4.797   5.600   2.483  0.5853 -0.2347  0.9635
 5909TIP3    H117691   4.707   5.599   2.451  0.5035  0.3751  1.1631
 5909TIP3    H217692   4.850   5.569   2.409  0.2744 -0.0163  0.6492
 5910TIP3   OH217693   6.074   5.111   5.851  0.1005 -0.0624 -0.7628
 5910TIP3    H117694   6.026   5.141   5.928 -1.0496 -1.7467 -0.7651
 5910TIP3    H217695   6.117   5.189   5.818  1.7743  0.5084  2.3525
 5911TIP3   OH217696   7.116   4.543   1.790 -0.3944 -0.5257  0.5638
 5911TIP3    H117697   7.099   4.549   1.696  1.4179  2.7679  0.2690
 5911TIP3    H217698   7.080   4.625   1.825  1.6071 -0.2670  2.1810
 5912TIP3   OH217699   0.453   5.774   2.023  0.4619  0.4207  0.4602
 5912TIP3    H117700   0.449   5.695   2.078  1.0411  0.9904  1.3414
 5912TIP3    H217701   0.364   5.782   1.987  0.2342 -0.2937  0.8331
 5913TIP3   OH217702   3.993   0.300   3.143 -0.5122 -0.6807 -0.1055
 5913TIP3    H117703   4.041   0.218   3.159  2.3920  1.0410  0.6583
 5913TIP3    H217704   4.041   0.366   3.194 -4.4167  1.0740  1.7025
 5914TIP3   OH217705   2.060   0.513   5.854  0.0869 -0.0398  0.3626
 5914TIP3    H117706   1.967   0.499   5.875 -0.8227 -0.4043 -3.2442
 5914TIP3    H217707   2.063   0.603   5.822  0.5157 -0.6112 -1.3108
 5915TIP3   OH217708   0.713   2.165   3.125  0.5702  0.2457  0.0849
 5915TIP3    H117709   0.797   2.191   3.087  0.0736 -0.5573 -1.6927
 5915TIP3    H217710   0.709   2.070   3.111  0.3616 -0.1127  2.2735
 5916TIP3   OH217711   1.860   0.084   2.537 -0.0545 -0.2028 -0.3240
 5916TIP3    H117712   1.851   0.095   2.632 -1.0451 -0.8552 -0.3239
 5916TIP3    H217713   1.795   0.017   2.515  0.3239 -0.2170 -1.4345
 5917TIP3   OH217714   0.591   2.445   1.665 -0.0863  0.7000 -0.2486
 5917TIP3    H117715   0.610   2.376   1.601 -0.6931  0.9471 -0.7064
 5917TIP3    H217716   0.596   2.401   1.750  1.7241  0.5861 -0.3782
 5918TIP3   OH217717   5.936   4.263   3.782 -0.5947  0.1354 -0.4911
 5918TIP3    H117718   5.854   4.282   3.738 -0.9883 -1.0926 -0.3433
 5918TIP3    H217719   5.911   4.209   3.857  0.2833  0.2993 -0.0623
 5919TIP3   OH217720   1.001   6.651   1.534 -0.4403  0.3659  0.4111
 5919TIP3    H117721   0.909   6.627   1.541 -0.2919  0.1076  1.7931
 5919TIP3    H217722   1.004   6.714   1.462 -1.9476  1.5875  1.3565
 5920TIP3   OH217723   5.077   5.336   0.780 -0.1621 -0.1160  0.1353
 5920TIP3    H117724   5.059   5.379   0.696  0.7352  0.5593  0.2725
 5920TIP3    H217725   5.173   5.334   0.786 -0.1986  1.1804  1.8104
 5921TIP3   OH217726   2.978   3.480   5.324 -0.3683  0.4425  0.5976
 5921TIP3    H117727   3.018   3.559   5.361  1.3480  0.3152 -0.8487
 5921TIP3    H217728   2.954   3.504   5.235  0.1057 -0.6292  0.1597
 5922TIP3   OH217729   3.658   6.621   4.014 -0.4712 -0.0817  0.1369
 5922TIP3    H117730   3.740   6.666   4.036  0.2799 -1.3214 -0.0323
 5922TIP3    H217731   3.681   6.528   4.014 -2.0803 -0.5131  0.8868
 5923TIP3   OH217732   5.199   4.349   3.096  0.1447  0.5079  0.1813
 5923TIP3    H117733   5.249   4.336   3.177 -1.7510 -1.0246  1.1995
 5923TIP3    H217734   5.216   4.270   3.045  0.4043  0.9478 -0.4278
 5924TIP3   OH217735   4.005   1.742   5.836  0.5110  0.8688  0.0252
 5924TIP3    H117736   3.964   1.694   5.764 -0.5653 -0.3609  1.4042
 5924TIP3    H217737   4.051   1.815   5.793  0.1036  0.0486 -1.9036
 5925TIP3   OH217738   2.054   4.963   0.367  0.5413 -0.4004  0.1816
 5925TIP3    H117739   2.096   5.044   0.339  3.4586 -1.2612  1.6403
 5925TIP3    H217740   2.012   4.985   0.451 -0.2453 -0.0179 -0.2991
 5926TIP3   OH217741   6.665   6.780   2.841  0.7338  0.1157  0.5389
 5926TIP3    H117742   6.591   6.730   2.806  1.4440 -0.8898  0.4222
 5926TIP3    H217743   6.684   6.740   2.925  0.1859  1.3667  1.2779
 5927TIP3   OH217744   6.693   2.018   1.799 -0.2396 -0.0762 -0.0881
 5927TIP3    H117745   6.717   1.931   1.831 -1.4476 -0.4425 -0.1427
 5927TIP3    H217746   6.770   2.072   1.817  0.5770 -1.1770 -0.1686
 5928TIP3   OH217747   2.328   2.427   4.401 -0.3352 -0.6171 -0.7489
 5928TIP3    H117748   2.379   2.498   4.438 -1.9914  0.6831 -0.8502
 5928TIP3    H217749   2.392   2.356   4.387  1.5448  1.1223 -1.4779
 5929TIP3   OH217750   6.880   2.652   0.901  0.2764 -0.3896 -0.5116
 5929TIP3    H117751   6.935   2.652   0.823  1.1043 -0.4863  0.0584
 5929TIP3    H217752   6.894   2.737   0.942  0.9854 -0.8782  0.3000
 5930TIP3   OH217753   3.277   5.658   2.446  0.7128  0.2451  0.6042
 5930TIP3    H117754   3.280   5.607   2.365 -0.2010 -1.6659  1.7032
 5930TIP3    H217755   3.283   5.749   2.417  2.5034 -0.4361 -1.4427
 5931TIP3   OH217756   0.535   5.130   2.659 -0.0807 -0.1577  0.1835
 5931TIP3    H117757   0.545   5.107   2.751 -0.1295  0.5047  0.3567
 5931TIP3    H217758   0.503   5.220   2.659 -2.4604 -0.9216 -0.4269
 5932TIP3   OH217759   6.302   1.308   3.131 -0.1012 -0.2887 -0.2185
 5932TIP3    H117760   6.286   1.359   3.051  2.3033 -0.7555 -1.0605
 5932TIP3    H217761   6.371   1.356   3.177 -0.6247 -0.6710  1.0352
 5933TIP3   OH217762   6.206   2.813   5.603 -0.0058 -0.0980  0.0743
 5933TIP3    H117763   6.217   2.868   5.680  1.1799 -0.9682  0.5612
 5933TIP3    H217764   6.112   2.807   5.590 -0.2711 -0.6501  1.9927
 5934TIP3   OH217765   1.128   6.079   4.371  0.3025 -0.8783  0.3031
 5934TIP3    H117766   1.107   6.114   4.285  1.5648  0.4333  0.5036
 5934TIP3    H217767   1.049   6.032   4.397 -1.2919  1.3546 -0.2143
 5935TIP3   OH217768   3.902   1.258   3.840  0.0658 -1.0336  0.5809
 5935TIP3    H117769   3.829   1.316   3.819 -0.2723 -1.0590  1.6178
 5935TIP3    H217770   3.861   1.173   3.856  0.5022 -1.4405 -0.3744
 5936TIP3   OH217771   1.478   4.935   2.897  0.5005  0.1471  0.5523
 5936TIP3    H117772   1.517   4.983   2.824  1.0794 -0.7278  0.2793
 5936TIP3    H217773   1.474   4.844   2.868  0.5797 -0.1880  1.5374
 5937TIP3   OH217774   5.352   2.239   4.276 -0.1542  0.2622  0.5223
 5937TIP3    H117775   5.305   2.308   4.322  0.7997  1.6698 -0.5176
 5937TIP3    H217776   5.443   2.248   4.306  0.1369  0.0346 -0.2632
 5938TIP3   OH217777   0.995   6.279   5.124  0.0992 -0.2210  0.0815
 5938TIP3    H117778   0.983   6.299   5.217  0.4195  2.4211 -0.3597
 5938TIP3    H217779   0.950   6.350   5.078 -1.1120 -2.1167 -1.8487
 5939TIP3   OH217780   0.354   2.762   4.632 -0.1777 -0.3278  0.0446
 5939TIP3    H117781   0.447   2.750   4.650 -0.1765  0.0456  0.3097
 5939TIP3    H217782   0.335   2.852   4.660  0.0799  0.7860 -2.9482
 5940TIP3   OH217783   6.737   1.187   0.971 -0.1842  0.6987 -0.3318
 5940TIP3    H117784   6.655   1.214   0.930  0.2499  0.0590 -1.6611
 5940TIP3    H217785   6.710   1.141   1.050 -1.0813  0.9363 -0.4864
 5941TIP3   OH217786   0.459   5.789   1.629  0.3369  0.0671 -0.0132
 5941TIP3    H117787   0.379   5.841   1.619  0.8276  0.6543 -0.9831
 5941TIP3    H217788   0.440   5.708   1.582  0.9566  0.9586 -1.8990
 5942TIP3   OH217789   6.128   5.952   2.528  0.1758 -0.0349 -0.0587
 5942TIP3    H117790   6.197   5.903   2.573  1.1355 -0.3988 -1.8269
 5942TIP3    H217791   6.139   6.042   2.560 -0.5626 -0.6080  1.9891
 5943TIP3   OH217792   2.714   2.869   1.271 -0.1331 -0.1941  0.1251
 5943TIP3    H117793   2.625   2.886   1.304  0.1828 -0.3189  1.0794
 5943TIP3    H217794   2.746   2.954   1.242 -0.3901 -0.0578  0.2385
 5944TIP3   OH217795   3.630   4.805   2.563 -0.0324 -0.5990  0.3706
 5944TIP3    H117796   3.720   4.792   2.533 -0.3789  0.8157 -1.4513
 5944TIP3    H217797   3.581   4.825   2.484 -0.9878  3.6396  1.7665
 5945TIP3   OH217798   0.176   6.005   5.523  0.0068  0.0901 -0.1981
 5945TIP3    H117799   0.244   6.062   5.487  0.4855 -0.7036 -0.5747
 5945TIP3    H217800   0.096   6.058   5.522  0.3451  0.5865 -0.9857
 5946TIP3   OH217801   5.459   2.110   3.168 -0.6631 -0.0336  0.2896
 5946TIP3    H117802   5.437   2.071   3.252 -3.8827 -0.9049 -0.8224
 5946TIP3    H217803   5.485   2.200   3.190 -1.2092 -0.2939  2.2167
 5947TIP3   OH217804   2.437   0.001   1.286 -0.7598  0.0094  0.5735
 5947TIP3    H117805   2.344   0.016   1.273 -0.5094  1.7828  0.5857
 5947TIP3    H217806   2.479   0.084   1.261  0.8902 -0.9954 -0.2364
 5948TIP3   OH217807   0.643   5.853   5.044  0.2360 -0.2081 -0.0488
 5948TIP3    H117808   0.715   5.906   5.078  0.8127 -0.8451 -0.2782
 5948TIP3    H217809   0.592   5.830   5.121 -0.2945  1.0678  0.0097
 5949TIP3   OH217810   4.954   2.638   0.135  0.2245 -0.3539 -0.1687
 5949TIP3    H117811   4.952   2.599   0.223  2.2344 -0.6234 -0.1887
 5949TIP3    H217812   4.867   2.675   0.123 -0.4844 -1.3868  1.4473
 5950TIP3   OH217813   3.341   5.803   4.554 -0.7326  0.5668 -0.3318
 5950TIP3    H117814   3.309   5.713   4.550  0.5964  0.0430  0.1130
 5950TIP3    H217815   3.293   5.843   4.626 -0.5718 -0.1256  0.1690
 5951TIP3   OH217816   1.587   0.093   1.074 -0.2395 -0.7228  0.3204
 5951TIP3    H117817   1.501   0.131   1.092 -0.9711 -2.6920  1.3485
 5951TIP3    H217818   1.567   0.003   1.047  1.4923 -1.0960  0.1926
 5952TIP3   OH217819   5.389   5.369   5.258 -0.1137  0.4957 -0.0997
 5952TIP3    H117820   5.404   5.280   5.226 -0.6346  0.8542 -1.4321
 5952TIP3    H217821   5.456   5.421   5.215 -0.2809  0.8653  0.0859
 5953TIP3   OH217822   3.837   5.407   0.847  0.3000 -0.5718  0.2199
 5953TIP3    H117823   3.747   5.399   0.879  0.1514 -0.8360 -0.2471
 5953TIP3    H217824   3.892   5.385   0.922 -0.0341 -0.9096  0.3649
 5954TIP3   OH217825   6.039   1.444   3.825 -0.1810  0.7257  0.7990
 5954TIP3    H117826   6.034   1.539   3.826 -0.1338  0.7267  1.1352
 5954TIP3    H217827   5.976   1.417   3.758  1.4927  1.0753 -1.0021
 5955TIP3   OH217828   5.172   2.397   0.396  0.3792  0.2285 -0.3188
 5955TIP3    H117829   5.258   2.414   0.357  0.6275  1.0521  0.5560
 5955TIP3    H217830   5.151   2.477   0.443 -1.3349  0.4288 -1.3275
 5956TIP3   OH217831   7.155   3.377   1.783  0.5034 -0.3607 -0.1448
 5956TIP3    H117832   7.224   3.322   1.746  0.8851 -0.1605  0.2619
 5956TIP3    H217833   7.129   3.434   1.710 -0.5248 -1.6469 -0.8444
 5957TIP3   OH217834   3.621   5.961   2.592 -0.1225 -0.1993 -0.2053
 5957TIP3    H117835   3.613   6.056   2.586 -1.2763 -0.1735  1.3119
 5957TIP3    H217836   3.712   5.945   2.614 -0.3653  0.7046  1.6181
 5958TIP3   OH217837   5.372   0.411   2.450 -0.2946 -0.3514 -0.2198
 5958TIP3    H117838   5.447   0.354   2.467 -0.9892 -0.8857  1.2140
 5958TIP3    H217839   5.366   0.415   2.355  1.5783 -0.2458 -0.3724
 5959TIP3   OH217840   3.193   3.537   0.035 -0.0921 -0.3546 -0.5009
 5959TIP3    H117841   3.188   3.449   0.073 -0.5932 -0.5332 -0.9624
 5959TIP3    H217842   3.110   3.578   0.058  0.2468  0.0952 -0.0663
 5960TIP3   OH217843   2.353   5.037   3.285  0.2880 -0.4278 -0.2140
 5960TIP3    H117844   2.411   5.094   3.234 -2.2411  0.3841 -2.4189
 5960TIP3    H217845   2.347   4.957   3.233  0.4204 -1.0184  0.6591
 5961TIP3   OH217846   6.494   3.425   4.444 -0.4168  0.0309  0.2473
 5961TIP3    H117847   6.575   3.446   4.398 -0.4623 -0.0985  0.1051
 5961TIP3    H217848   6.510   3.452   4.534 -0.3119  0.2492  0.1643
 5962TIP3   OH217849   0.002   1.001   4.295  0.2525  0.2936 -0.3761
 5962TIP3    H117850   0.021   1.047   4.377 -0.2224 -1.4429  0.7802
 5962TIP3    H217851   0.032   1.060   4.226  1.7138  1.3548  1.0834
 5963TIP3   OH217852   1.111   2.579   0.444  0.4091  0.3919 -0.3667
 5963TIP3    H117853   1.076   2.513   0.385 -1.6910  0.1990  0.9826
 5963TIP3    H217854   1.093   2.662   0.400 -3.2331  0.4020  0.8241
 5964TIP3   OH217855   3.306   2.661   3.858  0.3077 -0.2439 -0.3719
 5964TIP3    H117856   3.357   2.706   3.791  1.9671 -0.1794  0.8720
 5964TIP3    H217857   3.266   2.731   3.909 -0.6548 -0.2890 -1.0332
 5965TIP3   OH217858   3.963   5.619   5.305 -0.4876 -0.0349 -0.2511
 5965TIP3    H117859   4.002   5.692   5.257 -0.6509 -0.5355 -1.1728
 5965TIP3    H217860   4.015   5.543   5.277 -0.5770 -0.3337  0.3861
 5966TIP3   OH217861   0.717   0.847   0.966 -0.3782 -0.4330 -0.2440
 5966TIP3    H117862   0.680   0.824   0.881 -1.7229 -2.2464  0.7526
 5966TIP3    H217863   0.684   0.934   0.985 -1.9658 -0.9263 -0.5938
 5967TIP3   OH217864   4.230   1.411   1.551  0.5282  0.0593 -0.1686
 5967TIP3    H117865   4.228   1.442   1.641  2.3412  0.3740 -0.1905
 5967TIP3    H217866   4.231   1.316   1.559  1.0767  0.0866  0.1811
 5968TIP3   OH217867   6.142   6.166   1.354  0.1713  0.1515 -0.2927
 5968TIP3    H117868   6.180   6.254   1.348 -0.8262  0.6804  0.6871
 5968TIP3    H217869   6.061   6.172   1.304 -1.8070  0.9504  2.7226
 5969TIP3   OH217870   1.402   3.577   0.026  0.4170  0.7414 -0.1549
 5969TIP3    H117871   1.413   3.482   0.027 -0.7932  0.5723 -1.0634
 5969TIP3    H217872   1.475   3.608  -0.027  0.2067  0.2282 -0.7536
 5970TIP3   OH217873   1.147   2.455   0.105  0.4574  0.2775  0.3269
 5970TIP3    H117874   1.186   2.458   0.017 -1.1320 -2.7676 -0.6091
 5970TIP3    H217875   1.098   2.537   0.112 -0.1534  0.2080 -2.0669
 5971TIP3   OH217876   1.528   3.909   2.932 -0.6283  0.8417 -0.0587
 5971TIP3    H117877   1.573   3.847   2.876 -1.2879  1.0757 -0.8710
 5971TIP3    H217878   1.518   3.863   3.015  0.3817  0.5026 -0.1106
 5972TIP3   OH217879   6.815   6.337   0.685  0.6650  0.0459  0.4022
 5972TIP3    H117880   6.899   6.348   0.730 -0.1951  1.8254  1.7186
 5972TIP3    H217881   6.813   6.407   0.620 -0.5299  1.2752  1.6787
 5973TIP3   OH217882   2.323   0.447   5.893 -0.0166  0.5810  0.0810
 5973TIP3    H117883   2.240   0.495   5.884 -0.2811  0.0693 -0.2665
 5973TIP3    H217884   2.339   0.411   5.806  0.1951  0.0653  0.3294
 5974TIP3   OH217885   1.190   1.854   4.576  0.1420 -0.2499  0.2880
 5974TIP3    H117886   1.186   1.922   4.643 -0.9130  2.3800 -2.2156
 5974TIP3    H217887   1.269   1.804   4.597  1.7394  2.5717  1.5925
 5975TIP3   OH217888   4.893   3.693   3.384  0.9283 -0.4586 -0.0591
 5975TIP3    H117889   4.955   3.740   3.439  1.2101  0.1982 -0.9154
 5975TIP3    H217890   4.924   3.708   3.295 -0.6262  0.1499 -0.5414
 5976TIP3   OH217891   1.559   3.279   2.714  0.4281 -0.2352 -0.0060
 5976TIP3    H117892   1.576   3.185   2.703  0.6854 -0.0761 -1.0635
 5976TIP3    H217893   1.643   3.316   2.738  0.7855 -0.0185 -1.4571
 5977TIP3   OH217894   0.962   1.998   0.742 -0.1203 -0.0712 -0.2163
 5977TIP3    H117895   1.052   1.973   0.720 -1.2322 -3.5421 -1.4827
 5977TIP3    H217896   0.918   2.008   0.657 -0.8508  2.1223  0.3708
 5978TIP3   OH217897   0.041   5.189   2.244 -0.4200 -0.2010 -0.4634
 5978TIP3    H117898   0.076   5.198   2.155  2.4851 -1.3420  0.4503
 5978TIP3    H217899   0.042   5.278   2.279  0.3450 -0.0161 -0.9332
 5979TIP3   OH217900   5.596   4.395   4.639 -0.1407  0.5848 -0.4980
 5979TIP3    H117901   5.623   4.473   4.590 -0.1003  0.6332 -0.3992
 5979TIP3    H217902   5.537   4.428   4.707  0.2915  0.6004 -0.1226
 5980TIP3   OH217903   6.862   2.269   3.040  0.2419 -0.7035 -0.1311
 5980TIP3    H117904   6.803   2.261   2.964 -0.6536  0.6914  0.3684
 5980TIP3    H217905   6.822   2.337   3.094  1.0383 -1.4307  1.4496
 5981TIP3   OH217906   5.373   0.851   5.134 -0.2144 -0.1568 -0.3251
 5981TIP3    H117907   5.389   0.936   5.093  1.2068  0.0392  0.5581
 5981TIP3    H217908   5.282   0.830   5.112 -0.4165  1.3311 -1.0148
 5982TIP3   OH217909   5.101   4.088   0.517 -0.0714 -0.0223  0.0879
 5982TIP3    H117910   5.163   4.154   0.548 -0.6868  1.3377 -1.3756
 5982TIP3    H217911   5.015   4.131   0.525 -0.7525 -1.4681  1.0893
 5983TIP3   OH217912   1.807   3.373   3.421  0.3319  0.1056  0.5025
 5983TIP3    H117913   1.840   3.463   3.411 -0.0532  0.1478 -0.6097
 5983TIP3    H217914   1.733   3.381   3.481 -1.1327  0.9494 -1.3000
 5984TIP3   OH217915   2.014   5.191   0.143 -0.3568  0.8449 -0.3384
 5984TIP3    H117916   1.943   5.223   0.198  0.1573 -1.7723  2.0844
 5984TIP3    H217917   1.994   5.098   0.130  0.7622  0.8493 -2.7288
 5985TIP3   OH217918   4.942   6.074   4.799 -0.1111 -0.1137 -0.2777
 5985TIP3    H117919   4.909   6.076   4.709 -1.6440 -1.2791  0.2067
 5985TIP3    H217920   4.863   6.071   4.853  0.7549  1.5010  1.1686
 5986TIP3   OH217921   5.206   5.427   4.679  0.6850 -0.1252 -0.7115
 5986TIP3    H117922   5.163   5.342   4.673  0.4700 -0.0094 -0.8262
 5986TIP3    H217923   5.175   5.463   4.762  0.8456 -0.1956 -0.6201
 5987TIP3   OH217924   1.635   5.962   4.442  0.6095  0.2967 -0.8794
 5987TIP3    H117925   1.554   5.919   4.469  0.5214  0.1277 -1.3967
 5987TIP3    H217926   1.683   5.895   4.394  1.4121  0.1622  0.0757
 5988TIP3   OH217927   1.472   4.282   3.972 -0.0273 -0.2586 -0.4350
 5988TIP3    H117928   1.398   4.244   4.019  1.3319 -2.6231  0.0041
 5988TIP3    H217929   1.506   4.210   3.918  2.1174  0.6019 -0.3557
 5989TIP3   OH217930   5.341   5.118   1.601  0.1460 -0.1548 -0.4933
 5989TIP3    H117931   5.392   5.040   1.578  0.4666  0.1015 -0.6474
 5989TIP3    H217932   5.312   5.154   1.517 -2.1488 -1.5065 -0.3845
 5990TIP3   OH217933   3.703   5.076   4.953  0.3916  0.2894  0.1497
 5990TIP3    H117934   3.757   5.138   4.904  1.2213 -0.9073 -0.5251
 5990TIP3    H217935   3.708   5.106   5.044  0.6910  1.2507 -0.1727
 5991TIP3   OH217936   2.284   4.069   4.854 -0.5884 -0.3974  0.1910
 5991TIP3    H117937   2.217   4.083   4.787 -0.2651 -1.1700 -0.3012
 5991TIP3    H217938   2.241   4.017   4.921 -1.2466  1.2932  1.1511
 5992TIP3   OH217939   0.071   1.912   4.001 -0.1969  0.3976  0.1217
 5992TIP3    H117940   0.032   1.837   4.045 -0.4873  0.8922  0.7117
 5992TIP3    H217941   0.141   1.941   4.061 -0.1344  0.6431 -0.0695
 5993TIP3   OH217942   4.971   4.287   4.617  0.0938 -0.2852 -0.2564
 5993TIP3    H117943   5.055   4.314   4.655 -0.1420 -0.3512  0.3127
 5993TIP3    H217944   4.953   4.354   4.550  0.6764 -0.3585 -0.4919
 5994TIP3   OH217945   1.586   6.627   1.733  0.3818  0.0684 -0.7721
 5994TIP3    H117946   1.550   6.576   1.805  0.4492  1.1885  0.0749
 5994TIP3    H217947   1.515   6.632   1.669  0.3930 -1.1159 -0.9075
 5995TIP3   OH217948   0.488   5.507   0.060  0.3140  0.5869  0.6077
 5995TIP3    H117949   0.431   5.578   0.030  0.2008  0.2467  0.0168
 5995TIP3    H217950   0.436   5.427   0.047  1.8127 -0.0442 -2.4240
 5996TIP3   OH217951   2.180   5.208   2.436 -0.2784 -0.1404 -0.5871
 5996TIP3    H117952   2.100   5.250   2.405 -1.1117 -1.1381  0.1767
 5996TIP3    H217953   2.226   5.183   2.356 -0.0932  1.5502 -1.0538
 5997TIP3   OH217954   1.398   5.819   2.668  0.1785 -0.2704 -0.4651
 5997TIP3    H117955   1.436   5.906   2.675  0.1414 -0.3501  0.9358
 5997TIP3    H217956   1.339   5.824   2.593  1.7805  0.2835 -1.7640
 5998TIP3   OH217957   1.647   6.163   1.083 -0.0543 -0.2921 -0.7405
 5998TIP3    H117958   1.672   6.255   1.069 -1.9592  0.4431  0.2388
 5998TIP3    H217959   1.726   6.113   1.062  1.7316  1.6998  0.7308
 5999TIP3   OH217960   2.626   6.256   0.984  0.4603  0.1280  0.1798
 5999TIP3    H117961   2.559   6.190   1.003  1.5358 -1.3724 -1.0326
 5999TIP3    H217962   2.685   6.214   0.922 -0.9646  3.5192 -3.9545
 6000TIP3   OH217963   4.324   5.067   1.044  0.5234 -0.2560 -0.1410
 6000TIP3    H117964   4.289   4.980   1.061 -0.4394  0.4978  2.3260
 6000TIP3    H217965   4.419   5.057   1.050  0.3879 -1.0152  0.9492
 6001TIP3   OH217966   4.376   4.380   4.445 -0.3299  0.1664  0.1723
 6001TIP3    H117967   4.311   4.393   4.376 -1.3247 -0.1184  1.0331
 6001TIP3    H217968   4.327   4.342   4.517  0.7355  0.2764  0.9767
 6002TIP3   OH217969   2.968   6.359   4.478  0.1964 -0.4872 -0.1726
 6002TIP3    H117970   2.980   6.406   4.561 -1.1057 -0.2411 -0.0929
 6002TIP3    H217971   2.965   6.427   4.412  0.0226 -0.5813 -0.2646
 6003TIP3   OH217972   3.955   1.206   4.402  0.9543  0.1124 -0.4841
 6003TIP3    H117973   3.914   1.284   4.440  1.0950 -0.0981  0.1030
 6003TIP3    H217974   3.928   1.134   4.459  2.4258  0.0251  0.1277
 6004TIP3   OH217975   2.781   1.274   5.499  0.1775 -0.0928 -0.2052
 6004TIP3    H117976   2.792   1.197   5.444  0.0644 -0.4162  0.2222
 6004TIP3    H217977   2.703   1.318   5.465 -0.1591 -0.5371 -0.0210
 6005TIP3   OH217978   3.953   4.759   1.020 -0.1461  1.1240 -0.1923
 6005TIP3    H117979   3.919   4.731   0.935 -0.6092  0.1120  0.3016
 6005TIP3    H217980   4.036   4.802   0.999  0.3098 -0.1162 -1.0773
 6006TIP3   OH217981   2.241   3.630   2.827 -0.0760 -0.3075  0.4435
 6006TIP3    H117982   2.287   3.587   2.755  0.9818  0.4234  0.6584
 6006TIP3    H217983   2.224   3.560   2.890  0.9981 -0.5547  0.4796
 6007TIP3   OH217984   7.043   1.962   1.241 -0.0730 -0.2810  0.6164
 6007TIP3    H117985   7.062   1.894   1.177 -1.1600  0.8088 -0.9568
 6007TIP3    H217986   6.989   1.920   1.307 -1.4706 -0.7945 -0.7897
 6008TIP3   OH217987   6.343   3.967   4.331  0.6038 -0.6224 -0.1080
 6008TIP3    H117988   6.265   3.913   4.343  1.1428 -1.4792 -0.3072
 6008TIP3    H217989   6.347   3.984   4.237 -0.5478  1.3212  0.1563
 6009TIP3   OH217990   3.757   0.570   4.063 -0.1683  0.6839 -0.2725
 6009TIP3    H117991   3.800   0.487   4.084 -1.0611  0.2407 -0.1596
 6009TIP3    H217992   3.671   0.544   4.031 -0.1514  1.5356 -1.0224
 6010TIP3   OH217993   0.662   3.409   2.626 -0.1196 -0.1784  0.1928
 6010TIP3    H117994   0.650   3.422   2.533  3.6230 -0.2381 -0.4558
 6010TIP3    H217995   0.661   3.497   2.664 -1.3605 -0.1342  0.0722
 6011TIP3   OH217996   1.111   1.863   2.260 -0.1081 -0.3934 -0.1846
 6011TIP3    H117997   1.168   1.791   2.285  0.9031  0.0254 -1.1906
 6011TIP3    H217998   1.030   1.849   2.310  0.1064 -2.1552 -0.2869
 6012TIP3   OH217999   5.638   0.465   3.958 -0.3761  0.3148 -0.0015
 6012TIP3    H118000   5.669   0.539   4.010 -2.5067  0.7726  0.7273
 6012TIP3    H218001   5.570   0.502   3.902 -1.6596 -1.0838  0.5477
 6013TIP3   OH218002   5.632   0.771   2.146 -0.0820 -0.5271 -0.2284
 6013TIP3    H118003   5.672   0.826   2.213 -1.1558  0.3520 -0.2643
 6013TIP3    H218004   5.691   0.697   2.137  1.5201  0.6918 -0.2887
 6014TIP3   OH218005   2.694   6.516   2.470 -0.4159 -0.0358 -0.1268
 6014TIP3    H118006   2.634   6.498   2.541 -0.0058  0.1603  0.2762
 6014TIP3    H218007   2.648   6.579   2.414 -0.0868  1.1317  0.8798
 6015TIP3   OH218008   6.688   6.079   5.229  0.7162 -0.1733 -0.5653
 6015TIP3    H118009   6.668   6.083   5.323 -2.1632  2.1427 -1.1265
 6015TIP3    H218010   6.680   5.986   5.207 -1.8077 -0.4237  0.9446
 6016TIP3   OH218011   2.492   0.254   1.234  0.0402 -0.6654 -0.4857
 6016TIP3    H118012   2.414   0.262   1.288  1.0587 -0.2952  1.0033
 6016TIP3    H218013   2.486   0.327   1.172  1.0260  1.8425  2.1197
 6017TIP3   OH218014   3.085   3.827   5.696 -0.7632 -0.4602  0.2030
 6017TIP3    H118015   3.002   3.867   5.724 -0.4105 -1.3872  2.9056
 6017TIP3    H218016   3.147   3.899   5.695 -0.9929 -0.2328  1.1210
 6018TIP3   OH218017   2.900   1.206   4.390 -0.5239 -0.0528 -0.2258
 6018TIP3    H118018   2.865   1.183   4.304 -0.7863  0.5518 -0.2808
 6018TIP3    H218019   2.955   1.131   4.413 -1.9180 -1.0764 -0.0860
 6019TIP3   OH218020   6.297   0.921   1.234  0.1157  0.3453  0.0745
 6019TIP3    H118021   6.240   0.997   1.225  0.1197  0.4262  0.6619
 6019TIP3    H218022   6.340   0.912   1.149 -1.4490 -0.2785 -0.6737
 6020TIP3   OH218023   4.629   5.560   1.256 -0.0009 -0.0805 -0.4377
 6020TIP3    H118024   4.688   5.634   1.269  0.4682 -0.6546  0.8342
 6020TIP3    H218025   4.686   5.483   1.258 -0.7997 -0.6980  1.4799
 6021TIP3   OH218026   6.745   2.706   1.526  0.3232  0.2614 -0.5264
 6021TIP3    H118027   6.718   2.689   1.617 -1.4479  1.9952 -0.6691
 6021TIP3    H218028   6.829   2.661   1.517 -0.5121 -1.8493  1.2851
 6022TIP3   OH218029   3.608   0.672   5.197 -0.7395  0.2322 -0.2972
 6022TIP3    H118030   3.669   0.599   5.190  0.9323  1.2002  2.5894
 6022TIP3    H218031   3.530   0.635   5.238 -0.1267 -0.0677  0.6151
 6023TIP3   OH218032   3.577   2.790   1.939  0.2332  0.7935 -0.2159
 6023TIP3    H118033   3.589   2.734   2.016 -2.2343  0.3116 -0.1112
 6023TIP3    H218034   3.607   2.876   1.967  0.5243  0.3488  0.8854
 6024TIP3   OH218035   0.059   0.241   3.816 -0.7460 -0.2785  0.4387
 6024TIP3    H118036   0.050   0.161   3.868 -0.1209 -0.6587 -0.0227
 6024TIP3    H218037   0.068   0.209   3.726 -0.1950  0.3034  0.2844
 6025TIP3   OH218038   1.764   3.659   2.200 -0.1011  0.7807 -0.3620
 6025TIP3    H118039   1.816   3.596   2.150 -1.2350  0.6952 -1.4697
 6025TIP3    H218040   1.705   3.697   2.136 -2.1125  0.1435  1.0286
 6026TIP3   OH218041   0.956   4.772   0.974 -0.5330  0.0376  0.2967
 6026TIP3    H118042   0.906   4.703   0.930 -0.7055  0.4257 -0.1219
 6026TIP3    H218043   0.954   4.846   0.913  1.6786 -0.3578 -0.3454
 6027TIP3   OH218044   3.276   0.297   3.727  0.2526 -0.2409 -0.0058
 6027TIP3    H118045   3.236   0.265   3.646 -0.8176  1.0662 -0.0360
 6027TIP3    H218046   3.229   0.252   3.796 -0.9307  0.8277 -0.0615
 6028TIP3   OH218047   5.328   5.378   1.770  0.6058 -0.1941 -0.1127
 6028TIP3    H118048   5.321   5.287   1.740  0.3328  0.1517 -1.1222
 6028TIP3    H218049   5.244   5.395   1.812  0.7750 -0.5029  0.3583
 6029TIP3   OH218050   3.383   2.373   2.307 -0.3840 -0.2459 -0.3096
 6029TIP3    H118051   3.454   2.376   2.371  0.6252 -1.6605 -1.3151
 6029TIP3    H218052   3.426   2.382   2.222 -1.4957 -0.2615 -0.8962
 6030TIP3   OH218053   3.998   2.098   4.733  0.4288 -0.0547  0.4885
 6030TIP3    H118054   3.974   2.015   4.693  3.0353 -1.7662  2.1907
 6030TIP3    H218055   4.053   2.142   4.668 -1.8952  1.0232 -0.8923
 6031TIP3   OH218056   6.699   0.224   4.993  0.8539 -0.1846 -0.0352
 6031TIP3    H118057   6.678   0.247   4.902  1.7146 -0.3595 -0.2819
 6031TIP3    H218058   6.627   0.262   5.044  0.9341  0.8696 -0.6823
 6032TIP3   OH218059   0.556   3.946   2.479  0.1305  0.2233 -0.4549
 6032TIP3    H118060   0.473   3.969   2.520 -0.8182  0.7113 -2.4866
 6032TIP3    H218061   0.596   4.030   2.456  0.8717 -0.0231 -0.1230
 6033TIP3   OH218062   2.660   0.187   2.605  0.0164  0.5409  0.1208
 6033TIP3    H118063   2.572   0.206   2.570  0.1668 -0.4892 -0.8863
 6033TIP3    H218064   2.684   0.266   2.654 -0.6595  1.6513 -1.2516
 6034TIP3   OH218065   5.456   5.323   0.158  0.3233  0.0171 -0.2709
 6034TIP3    H118066   5.549   5.304   0.141  0.4002  1.0462 -1.0380
 6034TIP3    H218067   5.428   5.377   0.085 -0.6428  0.5155  0.4451
 6035TIP3   OH218068   2.206   4.904   1.958 -0.7591 -0.2208 -0.5564
 6035TIP3    H118069   2.160   4.977   1.917 -1.6574  1.0430  2.4172
 6035TIP3    H218070   2.265   4.946   2.021  0.4062 -2.0101 -0.4090
 6036TIP3   OH218071   1.426   3.689   1.720 -0.2549  0.0305  0.2910
 6036TIP3    H118072   1.426   3.603   1.678 -1.3493  0.3242 -0.3734
 6036TIP3    H218073   1.362   3.681   1.791 -1.5363  0.6876 -0.7269
 6037TIP3   OH218074   2.832   1.367   1.146  1.3774  0.1495  0.3930
 6037TIP3    H118075   2.919   1.356   1.108  0.6581 -0.4558 -1.1532
 6037TIP3    H218076   2.780   1.295   1.109  0.1730  0.6042  1.1417
 6038TIP3   OH218077   6.286   5.885   3.238  0.0019  0.1869  0.3952
 6038TIP3    H118078   6.337   5.923   3.167  1.2751 -2.2228 -0.0769
 6038TIP3    H218079   6.205   5.857   3.197 -0.6330  1.6570  0.5977
 6039TIP3   OH218080   6.951   6.673   4.514  0.4786 -0.7316 -0.1809
 6039TIP3    H118081   7.014   6.613   4.474  0.0106 -1.4119  0.0758
 6039TIP3    H218082   6.961   6.659   4.608  2.4107  1.7134  0.0793
 6040TIP3   OH218083   1.843   1.181   5.792 -0.0605 -0.2954  0.4808
 6040TIP3    H118084   1.856   1.192   5.698  0.8284  0.7372  0.7096
 6040TIP3    H218085   1.755   1.142   5.799  0.1856 -1.1594 -0.7966
 6041TIP3   OH218086   2.195   3.102   2.196 -0.1955  0.0714  0.1783
 6041TIP3    H118087   2.185   3.023   2.249 -1.7567 -0.3653 -0.6947
 6041TIP3    H218088   2.240   3.073   2.117 -2.5235 -0.4444 -1.0473
 6042TIP3   OH218089   6.017   4.992   1.316 -0.0411 -0.2736 -0.5545
 6042TIP3    H118090   5.966   5.051   1.261  0.4611  1.4641  0.7509
 6042TIP3    H218091   6.063   4.935   1.254 -1.9456 -0.5439 -1.8064
 6043TIP3   OH218092   4.764   5.931   1.175  0.1677  0.3346 -0.6265
 6043TIP3    H118093   4.774   5.856   1.233  1.7646  0.4610 -0.6885
 6043TIP3    H218094   4.697   5.985   1.217  0.5714 -0.0627  0.5687
 6044TIP3   OH218095   3.412   1.895   1.685 -0.2027  0.2068 -0.4793
 6044TIP3    H118096   3.458   1.902   1.769 -2.5880 -2.3343  1.2595
 6044TIP3    H218097   3.462   1.832   1.635 -0.2050 -0.3667  0.2181
 6045TIP3   OH218098   3.477   3.789   4.316  0.0801 -0.4970 -0.4104
 6045TIP3    H118099   3.455   3.871   4.273  0.1847 -0.8605 -1.1770
 6045TIP3    H218100   3.572   3.785   4.313  0.3092  0.7686  2.3270
 6046TIP3   OH218101   4.939   3.973   0.143 -0.3205  0.1522 -0.0807
 6046TIP3    H118102   4.899   4.020   0.215 -0.6502  2.1934 -1.5026
 6046TIP3    H218103   4.865   3.941   0.091 -0.0910 -0.2736 -0.1546
 6047TIP3   OH218104   2.211   5.766   5.857  0.5091  0.4189 -0.7023
 6047TIP3    H118105   2.235   5.802   5.771  0.4284 -1.5490 -1.6136
 6047TIP3    H218106   2.116   5.779   5.862  0.6217  1.2239 -0.5626
 6048TIP3   OH218107   5.396   0.578   2.200  0.0366 -0.0662 -0.3676
 6048TIP3    H118108   5.374   0.671   2.196 -0.3012 -0.0679  1.0592
 6048TIP3    H218109   5.492   0.576   2.207 -0.0541  0.2642  1.3227
 6049TIP3   OH218110   0.851   4.262   1.406 -0.3533  0.3443  0.2328
 6049TIP3    H118111   0.900   4.292   1.482  0.5188  1.7840 -0.8387
 6049TIP3    H218112   0.781   4.327   1.397  1.8794  2.5999 -2.4498
 6050TIP3   OH218113   4.461   4.873   0.205 -0.3493 -0.1612  0.4979
 6050TIP3    H118114   4.474   4.797   0.148 -1.4822 -1.0642  1.3852
 6050TIP3    H218115   4.373   4.903   0.183 -1.2234 -1.1397  2.4019
 6051TIP3   OH218116   6.791   4.855   4.077  0.1944 -0.0608 -0.4828
 6051TIP3    H118117   6.711   4.905   4.061 -0.2026 -0.5417 -0.0538
 6051TIP3    H218118   6.856   4.893   4.018 -0.8176 -0.8485 -2.1707
 6052TIP3   OH218119   0.486   5.775   4.819 -0.3663  0.4143 -0.2529
 6052TIP3    H118120   0.560   5.804   4.872 -0.8146  3.4158 -1.0818
 6052TIP3    H218121   0.433   5.722   4.878  1.7775 -0.7833  0.6981
 6053TIP3   OH218122   0.610   2.318   5.214 -0.3134  0.2909  0.5638
 6053TIP3    H118123   0.601   2.339   5.121  0.8898 -2.9494 -0.4131
 6053TIP3    H218124   0.571   2.393   5.259 -2.2919  1.3439 -2.5435
 6054TIP3   OH218125   6.127   5.430   4.642 -0.0161  0.0747 -0.4413
 6054TIP3    H118126   6.196   5.367   4.663  0.6885  1.3491  1.2595
 6054TIP3    H218127   6.093   5.458   4.727 -2.4291 -0.2330 -1.2057
 6055TIP3   OH218128   6.678   2.486   0.260  0.3598 -0.4923 -0.5184
 6055TIP3    H118129   6.688   2.508   0.353  0.9256  0.4032 -0.7820
 6055TIP3    H218130   6.585   2.500   0.242  0.4107  0.1541 -0.2879
 6056TIP3   OH218131   5.691   1.931   0.059  0.1336  0.0440  0.1924
 6056TIP3    H118132   5.706   2.023   0.034 -0.1376 -0.2828 -1.2724
 6056TIP3    H218133   5.735   1.880  -0.009 -0.1667 -0.9100  0.6931
 6057TIP3   OH218134   1.987   3.600   2.735  0.4995  0.1557 -0.5488
 6057TIP3    H118135   1.971   3.672   2.675  0.8681  1.0124  0.3476
 6057TIP3    H218136   2.072   3.621   2.775  0.5601 -0.7167 -0.2010
 6058TIP3   OH218137   2.662   0.888   5.648 -1.0749 -0.7663 -0.1402
 6058TIP3    H118138   2.659   0.792   5.648 -0.8821 -0.7828 -0.8364
 6058TIP3    H218139   2.749   0.909   5.682 -0.4059 -0.9021 -1.6579
 6059TIP3   OH218140   0.962   5.918   3.971  0.3765  0.0002  0.2882
 6059TIP3    H118141   1.051   5.953   3.967  0.0838  0.7935  0.4937
 6059TIP3    H218142   0.940   5.918   4.064  1.4351 -3.5468  0.6677
 6060TIP3   OH218143   3.632   1.702   1.136 -0.1290 -0.1648  0.2564
 6060TIP3    H118144   3.645   1.742   1.050 -0.4046 -0.3159  0.1417
 6060TIP3    H218145   3.642   1.608   1.120 -1.6617 -0.3284  0.0900
 6061TIP3   OH218146   5.627   3.639   3.141 -0.1560 -0.4892 -0.0522
 6061TIP3    H118147   5.534   3.638   3.161 -0.3585  0.7225 -0.8731
 6061TIP3    H218148   5.643   3.554   3.100 -0.5145 -1.4122  1.5862
 6062TIP3   OH218149   1.408   3.334   1.232 -0.1342 -0.4586 -0.4574
 6062TIP3    H118150   1.365   3.298   1.309 -0.8515 -1.5400 -1.3317
 6062TIP3    H218151   1.472   3.268   1.207 -0.5098 -0.5132 -1.2921
 6063TIP3   OH218152   3.300   1.533   0.697  0.3396 -0.0512 -0.8160
 6063TIP3    H118153   3.225   1.550   0.753 -0.2055  0.1889 -1.5963
 6063TIP3    H218154   3.339   1.453   0.733 -1.1909 -1.0655 -1.2965
 6064TIP3   OH218155   2.507   4.160   5.619  0.5041 -0.4279 -0.0053
 6064TIP3    H118156   2.479   4.112   5.697  2.1295 -0.9875  0.2846
 6064TIP3    H218157   2.489   4.101   5.546 -3.1608  0.9674 -0.4398
 6065TIP3   OH218158   0.635   2.636   3.464  0.0635  0.4733  0.5289
 6065TIP3    H118159   0.668   2.563   3.517  1.4545 -0.5255 -1.5868
 6065TIP3    H218160   0.657   2.612   3.374 -1.1065  2.6775 -0.4191
 6066TIP3   OH218161   0.457   6.758   5.450 -0.0361  0.0986 -0.0442
 6066TIP3    H118162   0.418   6.830   5.401  2.4724  0.6696 -1.4348
 6066TIP3    H218163   0.460   6.686   5.387 -0.3142 -0.4297  0.5413
 6067TIP3   OH218164   3.104  -0.001   2.048 -0.0824  0.5552 -0.5920
 6067TIP3    H118165   3.132   0.085   2.016  1.2261  0.7236  0.8691
 6067TIP3    H218166   3.009  -0.001   2.040  0.0680  1.1648 -2.9137
 6068TIP3   OH218167   0.862   4.997   5.233 -0.5171 -0.0085 -0.5855
 6068TIP3    H118168   0.935   5.053   5.258 -0.4856 -0.3099  0.0291
 6068TIP3    H218169   0.902   4.921   5.192 -0.4553 -0.3463  0.0874
 6069TIP3   OH218170   3.770   6.216   5.428  0.3874  0.3920  0.1625
 6069TIP3    H118171   3.827   6.260   5.490 -1.0009  1.4831  0.7169
 6069TIP3    H218172   3.744   6.135   5.472 -1.1474  1.4820  1.3624
 6070TIP3   OH218173   5.464   4.257   3.192  0.1222  0.1947  0.2992
 6070TIP3    H118174   5.448   4.279   3.100 -1.3330 -0.2708  0.4164
 6070TIP3    H218175   5.505   4.171   3.190  0.4158  0.3403  0.0703
 6071TIP3   OH218176   1.803   4.161   3.910  1.0271  0.2769  0.2127
 6071TIP3    H118177   1.877   4.147   3.850  1.8591 -0.2799  1.3304
 6071TIP3    H218178   1.726   4.130   3.861  1.6102  0.2969 -0.7437
 6072TIP3   OH218179   3.410   4.038   1.935 -0.3343  0.3781  0.5177
 6072TIP3    H118180   3.448   3.952   1.949 -1.0199 -0.2548 -1.2425
 6072TIP3    H218181   3.399   4.074   2.023 -0.0124 -1.3133  1.2915
 6073TIP3   OH218182   4.760   0.987   4.757 -0.5083  0.0956  1.0817
 6073TIP3    H118183   4.727   1.074   4.733  0.5276  0.1472 -0.3500
 6073TIP3    H218184   4.810   1.001   4.837 -0.1091  0.8964  0.7052
 6074TIP3   OH218185   6.040   6.583   5.483 -0.3734 -0.1065  0.2639
 6074TIP3    H118186   6.125   6.624   5.468 -0.9771  0.7649 -1.0098
 6074TIP3    H218187   6.055   6.490   5.469  0.1690  0.1573 -1.0926
 6075TIP3   OH218188   2.924   5.763   1.608  0.1943  0.2115 -0.2600
 6075TIP3    H118189   2.836   5.766   1.572  0.9670  3.1175 -2.2541
 6075TIP3    H218190   2.969   5.838   1.570  4.0293 -1.9264 -0.5690
 6076TIP3   OH218191   5.635   6.436   3.645 -0.0071 -0.1956  0.3888
 6076TIP3    H118192   5.580   6.436   3.723  1.1787 -0.3031  1.2628
 6076TIP3    H218193   5.631   6.526   3.613 -0.0172  0.0119  0.9522
 6077TIP3   OH218194   1.248   4.005   1.669 -0.3359  0.7063 -0.4220
 6077TIP3    H118195   1.168   4.033   1.713 -0.9935 -1.4292 -0.1833
 6077TIP3    H218196   1.223   3.998   1.577 -0.3492  0.3358 -0.3916
 6078TIP3   OH218197   4.100   4.707   3.792 -0.3198  0.1305 -0.2865
 6078TIP3    H118198   4.033   4.660   3.743 -0.7226  0.3852  0.0205
 6078TIP3    H218199   4.097   4.669   3.880 -0.5202  0.6031 -0.0886
 6079TIP3   OH218200   6.996   1.422   0.563 -0.3634  0.0882  0.5880
 6079TIP3    H118201   6.905   1.433   0.536 -0.3971  3.1024  1.5163
 6079TIP3    H218202   7.035   1.508   0.548  2.8323 -1.5141 -1.3368
 6080TIP3   OH218203   6.460   3.646   2.540  0.5138 -0.3973 -0.4046
 6080TIP3    H118204   6.468   3.550   2.543 -0.0332 -0.4222  0.6282
 6080TIP3    H218205   6.544   3.678   2.572 -0.0068 -0.5708  1.2252
 6081TIP3   OH218206   4.245   6.503   2.188  0.1222  0.5089 -0.3741
 6081TIP3    H118207   4.152   6.482   2.196  0.5579 -1.1315  0.9259
 6081TIP3    H218208   4.287   6.454   2.259  2.1792 -0.1068 -1.9212
 6082TIP3   OH218209   6.692   5.263   0.847 -0.3990  0.3452  0.2689
 6082TIP3    H118210   6.751   5.280   0.920 -1.2002  0.8420  0.8144
 6082TIP3    H218211   6.613   5.226   0.887 -0.2005 -1.0177 -0.5214
 6083TIP3   OH218212   6.213   3.463   0.566  0.1239  0.1334  0.1138
 6083TIP3    H118213   6.262   3.512   0.632  0.6434 -1.1598  0.7286
 6083TIP3    H218214   6.264   3.383   0.554 -0.5167 -0.1087 -1.1075
 6084TIP3   OH218215   1.466   3.817   3.206  0.1434  0.6220  0.1908
 6084TIP3    H118216   1.443   3.784   3.293  0.8758  0.6122  0.3902
 6084TIP3    H218217   1.561   3.824   3.207  0.0509  2.6555  0.1326
 6085TIP3   OH218218   6.055   0.071   0.348  0.5139 -0.2038 -0.5403
 6085TIP3    H118219   6.002   0.089   0.425  0.7211  2.3090 -0.8995
 6085TIP3    H218220   6.100  -0.011   0.368 -1.8233 -1.3026  0.6420
 6086TIP3   OH218221   1.995   0.239   5.842  0.6941 -0.1824  0.6285
 6086TIP3    H118222   2.026   0.328   5.830 -2.7849  1.0274 -0.5235
 6086TIP3    H218223   2.007   0.197   5.757 -0.1775  0.1039  0.3530
 6087TIP3   OH218224   2.719   4.440   3.379 -0.1605  0.2795  0.1341
 6087TIP3    H118225   2.811   4.461   3.364  0.1928 -1.8134 -0.9734
 6087TIP3    H218226   2.703   4.467   3.470  1.0828  2.0673 -0.1207
 6088TIP3   OH218227   4.509   2.810   2.184 -0.0904  0.1832 -0.0304
 6088TIP3    H118228   4.475   2.743   2.244  0.9749  0.3360  0.7915
 6088TIP3    H218229   4.508   2.769   2.098  0.4376 -0.8580  0.4445
 6089TIP3   OH218230   1.276   1.493   0.893 -0.2689 -0.3540  0.4216
 6089TIP3    H118231   1.314   1.406   0.882  0.8521  0.1086  0.4937
 6089TIP3    H218232   1.352   1.551   0.899 -1.0120  0.7225 -0.4162
 6090TIP3   OH218233   0.139   5.192   3.624 -0.1751  0.4221 -0.2399
 6090TIP3    H118234   0.197   5.244   3.568  1.3007 -0.1636  0.6602
 6090TIP3    H218235   0.190   5.113   3.643 -1.5798 -0.4477  0.0266
 6091TIP3   OH218236   3.779   3.138   3.123  0.0421 -0.0426 -0.0359
 6091TIP3    H118237   3.871   3.159   3.139 -0.3402  0.9695  0.9482
 6091TIP3    H218238   3.774   3.120   3.029  1.1721  0.2488 -0.1564
 6092TIP3   OH218239   5.368   5.119   3.685  0.1739 -0.0406 -0.4744
 6092TIP3    H118240   5.313   5.102   3.609 -1.0501 -0.4332  0.4657
 6092TIP3    H218241   5.307   5.137   3.756  1.3063  1.4171  0.1883
 6093TIP3   OH218242   6.600   2.733   1.285  0.4076  0.5484  0.8440
 6093TIP3    H118243   6.664   2.753   1.216  0.3239  1.6468  1.0718
 6093TIP3    H218244   6.650   2.739   1.366  0.0018  1.5693  1.0351
 6094TIP3   OH218245   0.901   4.401   2.018 -0.3817 -1.0099 -0.2339
 6094TIP3    H118246   0.843   4.424   2.090 -1.5256 -3.2437 -0.3402
 6094TIP3    H218247   0.856   4.433   1.940 -0.2749 -0.6095 -0.1321
 6095TIP3   OH218248   3.866   5.934   0.094  0.4382 -0.1085  0.0625
 6095TIP3    H118249   3.948   5.963   0.135  1.4196 -0.9471 -1.2323
 6095TIP3    H218250   3.800   5.944   0.163  1.6401  0.5197  1.1595
 6096TIP3   OH218251   7.118   3.830   3.918 -0.3305  0.3029  0.4194
 6096TIP3    H118252   7.198   3.862   3.878 -0.3936  1.9132  1.4985
 6096TIP3    H218253   7.049   3.888   3.885 -0.6832  0.3972  1.2934
 6097TIP3   OH218254   0.920   3.884   0.294  0.3340  0.0813  0.0751
 6097TIP3    H118255   1.007   3.903   0.258  0.4235  0.3327  0.4242
 6097TIP3    H218256   0.877   3.969   0.298  0.5497  0.1498  1.1538
 6098TIP3   OH218257   4.930   0.382   5.201 -0.6079  0.0766  0.4996
 6098TIP3    H118258   4.966   0.450   5.143 -1.0193  1.6705  2.0466
 6098TIP3    H218259   5.006   0.347   5.247 -0.3539 -0.7927 -0.5251
 6099TIP3   OH218260   6.639   1.379   0.286 -0.2619 -0.1124  0.2908
 6099TIP3    H118261   6.632   1.357   0.379 -1.6275  0.7715  0.4349
 6099TIP3    H218262   6.548   1.386   0.256  0.1040  2.0190 -0.5026
 6100TIP3   OH218263   4.299   1.845   4.062  0.2958 -0.6446  0.0320
 6100TIP3    H118264   4.236   1.821   4.131 -0.0297 -0.1204 -0.0803
 6100TIP3    H218265   4.383   1.816   4.096 -0.0127 -1.4358  0.1518
 6101TIP3   OH218266   3.885   4.502   4.179 -0.0473 -0.8069  0.1180
 6101TIP3    H118267   3.965   4.555   4.180  0.4467 -1.5469  0.9051
 6101TIP3    H218268   3.824   4.549   4.236 -0.4932  0.2065 -1.1499
 6102TIP3   OH218269   0.183   2.153   1.072  0.2107 -0.5910  0.3525
 6102TIP3    H118270   0.220   2.230   1.027 -1.5311 -0.5007 -1.0568
 6102TIP3    H218271   0.259   2.100   1.094  1.3150  0.4843 -0.6565
 6103TIP3   OH218272   6.386   6.505   2.334  0.4725  0.5972 -0.1618
 6103TIP3    H118273   6.374   6.577   2.272  0.4147  1.4209  0.7709
 6103TIP3    H218274   6.403   6.549   2.418 -0.7674 -0.4596  0.6798
 6104TIP3   OH218275   3.109   2.563   5.827 -0.2237 -0.3418 -0.0943
 6104TIP3    H118276   3.178   2.504   5.795 -0.8263  0.0195 -2.2667
 6104TIP3    H218277   3.028   2.524   5.794 -0.9086  0.1482  0.9705
 6105TIP3   OH218278   1.665   1.542   3.928  0.0252 -0.0579  0.0300
 6105TIP3    H118279   1.678   1.463   3.875  2.1491  0.0338  0.3297
 6105TIP3    H218280   1.641   1.509   4.015  0.8989 -0.3840  0.1537
 6106TIP3   OH218281   0.349   1.035   3.998  0.7012  0.3498  0.4765
 6106TIP3    H118282   0.435   1.034   3.957  0.4311  0.4076 -0.1116
 6106TIP3    H218283   0.329   1.127   4.012  0.2992  0.4004 -0.3541
 6107TIP3   OH218284   0.119   6.370   0.667 -0.0177 -0.2374  0.1099
 6107TIP3    H118285   0.178   6.306   0.627 -0.3105 -2.0178  2.3375
 6107TIP3    H218286   0.156   6.386   0.754 -0.6914  1.6616  0.0868
 6108TIP3   OH218287   0.284   4.520   5.320 -0.4567  0.2359 -0.0139
 6108TIP3    H118288   0.267   4.455   5.387 -0.5526 -0.6005 -0.8281
 6108TIP3    H218289   0.291   4.470   5.239 -0.1239  1.1970 -0.5985
 6109TIP3   OH218290   3.640   0.379   2.992  0.1570  0.5266  0.2368
 6109TIP3    H118291   3.658   0.285   2.984  0.5429  0.3442  2.4634
 6109TIP3    H218292   3.567   0.395   2.933 -0.9356 -1.5026  0.9525
 6110TIP3   OH218293   5.506   6.211   5.498  0.9075  0.4917 -0.8012
 6110TIP3    H118294   5.487   6.247   5.584 -0.2827 -0.3480 -0.6831
 6110TIP3    H218295   5.521   6.118   5.513  0.9172  0.3738 -1.4740
 6111TIP3   OH218296   3.101   0.539   4.459  0.0134 -0.2106  0.6442
 6111TIP3    H118297   3.116   0.500   4.545  2.1393  1.6909  1.2216
 6111TIP3    H218298   3.052   0.619   4.477  0.9757  0.5037  0.1774
 6112TIP3   OH218299   0.784   2.493   2.026  0.0468 -0.0551 -0.2866
 6112TIP3    H118300   0.817   2.433   1.959 -1.5690 -2.4859  0.9587
 6112TIP3    H218301   0.689   2.491   2.014 -0.0822  2.0374  0.0484
 6113TIP3   OH218302   5.679   4.512   3.469 -0.2971  0.4133 -0.4188
 6113TIP3    H118303   5.671   4.599   3.507 -2.0282  1.2293 -2.4571
 6113TIP3    H218304   5.590   4.479   3.465  0.2311 -1.0975 -0.5106
 6114TIP3   OH218305   3.417   4.485   5.670  0.2519 -0.0942 -0.8141
 6114TIP3    H118306   3.499   4.470   5.717 -1.4223 -2.1396  1.7470
 6114TIP3    H218307   3.350   4.485   5.738 -1.9472  1.4239 -2.7980
 6115TIP3   OH218308   0.199   3.622   2.177 -0.0413 -0.2599  0.0207
 6115TIP3    H118309   0.152   3.545   2.145  0.5970 -1.0846  0.9846
 6115TIP3    H218310   0.131   3.679   2.211 -0.7133  0.5291 -2.4516
 6116TIP3   OH218311   1.878   1.869   5.851  0.4855 -0.0552  0.4328
 6116TIP3    H118312   1.888   1.964   5.844  0.2547 -0.0218  0.5322
 6116TIP3    H218313   1.951   1.833   5.801  0.5429  0.1748  0.3502
 6117TIP3   OH218314   0.955   1.036   3.379 -0.3694 -0.1536  0.0244
 6117TIP3    H118315   1.011   0.985   3.437  1.5518  0.8903 -0.8124
 6117TIP3    H218316   0.866   1.009   3.402  0.4138 -1.4033  1.8686
 6118TIP3   OH218317   1.048   4.432   0.882  0.0137  0.3377  0.4136
 6118TIP3    H118318   0.990   4.420   0.957 -0.7947  1.1148 -0.0718
 6118TIP3    H218319   1.084   4.345   0.865  0.9785  0.3303  2.2928
 6119TIP3   OH218320   2.330   0.503   4.591 -0.1554 -0.4359 -0.0341
 6119TIP3    H118321   2.346   0.408   4.596  3.2915  0.0400  1.1139
 6119TIP3    H218322   2.251   0.517   4.642 -0.7496 -2.6905 -0.2198
 6120TIP3   OH218323   6.598   4.983   0.782  0.4278 -0.1343  0.2568
 6120TIP3    H118324   6.579   4.960   0.691  0.7925 -0.2271  0.2019
 6120TIP3    H218325   6.657   4.913   0.812 -0.9963 -1.0188  1.0665
 6121TIP3   OH218326   0.896   2.711   4.040  0.0538 -0.1810  0.0050
 6121TIP3    H118327   0.847   2.686   3.962  0.0085 -1.0027  0.2859
 6121TIP3    H218328   0.987   2.711   4.013 -0.0027  0.1054 -0.1914
 6122TIP3   OH218329   0.008   0.588   5.556 -0.1550 -0.0694 -0.2362
 6122TIP3    H118330   0.096   0.593   5.593 -0.2322  1.7878 -0.2209
 6122TIP3    H218331  -0.039   0.661   5.595 -0.9048  0.6193 -2.2878
 6123TIP3   OH218332   3.886   6.752   3.650 -0.8570 -0.3114  0.5035
 6123TIP3    H118333   3.968   6.776   3.691  0.4704 -2.1564 -0.9045
 6123TIP3    H218334   3.888   6.797   3.565 -0.3682 -1.8083 -0.3189
 6124TIP3   OH218335   2.299   1.258   5.016 -0.0429 -0.0703  0.5781
 6124TIP3    H118336   2.310   1.165   4.997  1.5579 -0.0866  1.4455
 6124TIP3    H218337   2.294   1.300   4.930 -0.6716 -0.9247  0.1805
 6125TIP3   OH218338   6.865   1.898   1.969  0.1342 -0.0272 -0.8760
 6125TIP3    H118339   6.907   1.984   1.962  0.8120 -0.3683 -1.1873
 6125TIP3    H218340   6.860   1.880   2.063 -0.4256  0.5517 -0.7985
 6126TIP3   OH218341   5.069   6.701   1.544 -0.0448  0.3734  0.0981
 6126TIP3    H118342   5.038   6.671   1.459  1.8200 -0.9283 -0.1965
 6126TIP3    H218343   5.008   6.664   1.608  0.0475 -0.8702 -0.5248
 6127TIP3   OH218344   0.073   5.997   4.092  0.0212 -0.0570  0.3102
 6127TIP3    H118345   0.091   5.948   4.012  1.5095  0.1922  0.4606
 6127TIP3    H218346  -0.019   5.979   4.111  0.4027 -2.4672  0.1494
 6128TIP3   OH218347   3.110   0.075   5.229  0.2027  0.1549  0.3219
 6128TIP3    H118348   3.026   0.096   5.188  0.6230  0.2528 -0.5101
 6128TIP3    H218349   3.104   0.114   5.316 -0.4268  0.5780  0.0985
 6129TIP3   OH218350   6.467   1.236   0.506 -0.4513  0.2565 -0.1497
 6129TIP3    H118351   6.430   1.205   0.423  0.3521  1.9497 -1.2000
 6129TIP3    H218352   6.543   1.179   0.521 -1.1994 -0.7290 -0.0096
 6130TIP3   OH218353   0.130   6.369   5.533  0.3660 -0.3231  0.3895
 6130TIP3    H118354   0.202   6.390   5.593  1.2157  1.1207 -1.0313
 6130TIP3    H218355   0.167   6.387   5.446 -0.5996 -2.9666 -0.6366
 6131TIP3   OH218356   1.234   3.976   3.062  0.1325  0.2073 -0.8578
 6131TIP3    H118357   1.307   4.024   3.102 -0.3274 -0.0342  0.3064
 6131TIP3    H218358   1.275   3.924   2.993  1.0171  0.2862 -0.4102
 6132TIP3   OH218359   5.595   6.730   1.485  0.1796 -0.1040 -0.1669
 6132TIP3    H118360   5.514   6.706   1.529  0.8544 -2.0572  0.1007
 6132TIP3    H218361   5.597   6.826   1.489 -1.3684 -0.0860  1.1233
 6133TIP3   OH218362   1.233   5.787   4.084 -0.1953 -0.2788 -0.5736
 6133TIP3    H118363   1.189   5.835   4.153  1.2024 -0.1874  0.3072
 6133TIP3    H218364   1.317   5.761   4.123 -0.7368 -3.1344 -1.1162
 6134TIP3   OH218365   4.919   5.941   4.184 -0.0906 -1.0282 -0.2069
 6134TIP3    H118366   4.985   5.874   4.205 -0.2358 -1.4992 -1.2264
 6134TIP3    H218367   4.899   5.928   4.092  1.3530  1.7013 -1.0296
 6135TIP3   OH218368   5.223   2.481   2.717  0.4097  0.1624  0.0368
 6135TIP3    H118369   5.313   2.512   2.711  0.9368 -1.4283 -0.7277
 6135TIP3    H218370   5.202   2.487   2.811  0.5318  2.5364 -0.0382
 6136TIP3   OH218371   5.820   4.386   0.362 -0.7904 -0.5057 -0.5340
 6136TIP3    H118372   5.829   4.291   0.371  1.1932 -0.2146  1.6133
 6136TIP3    H218373   5.910   4.419   0.362 -1.4289  1.4762  0.9131
 6137TIP3   OH218374   4.147   6.672   5.800  0.1430  0.3195 -0.0312
 6137TIP3    H118375   4.117   6.750   5.753 -3.5229  2.6027  5.0697
 6137TIP3    H218376   4.234   6.695   5.833 -0.1897  1.6178 -0.0138
 6138TIP3   OH218377   5.873   0.643   0.743 -0.1137  0.3075 -0.3673
 6138TIP3    H118378   5.800   0.692   0.781  0.5337  1.2208 -0.2646
 6138TIP3    H218379   5.925   0.709   0.697 -0.2620 -0.5906 -1.8981
 6139TIP3   OH218380   2.387   2.204   0.830 -0.4103 -0.4999 -0.4413
 6139TIP3    H118381   2.370   2.149   0.753  0.5585 -0.0496 -1.0022
 6139TIP3    H218382   2.320   2.179   0.893 -2.4414  0.4368 -2.1057
 6140TIP3   OH218383   1.016   0.322   5.225 -0.1094  0.3102 -1.0578
 6140TIP3    H118384   0.982   0.235   5.244  0.3435  0.4144  0.3685
 6140TIP3    H218385   1.091   0.332   5.284 -0.0405  1.5872 -1.3263
 6141TIP3   OH218386   6.984   1.316   4.571  0.4504  0.0346  0.1595
 6141TIP3    H118387   6.973   1.306   4.666 -0.1319 -0.4575  0.0402
 6141TIP3    H218388   6.908   1.273   4.533  1.8412 -1.8539 -0.6302
 6142TIP3   OH218389   3.810   5.475   3.483  0.1007 -0.2060  0.0426
 6142TIP3    H118390   3.903   5.453   3.493 -0.4592 -2.8641  0.0378
 6142TIP3    H218391   3.767   5.437   3.559 -1.2141 -0.7837 -0.9362
 6143TIP3   OH218392   7.108   3.040   1.721  0.3880  0.3796 -0.2936
 6143TIP3    H118393   7.100   3.078   1.633  2.0712 -1.2652 -1.2343
 6143TIP3    H218394   7.026   3.062   1.764  0.1552  2.6131 -1.7121
 6144TIP3   OH218395   6.186   1.557   0.808  0.5500  0.4609  0.1156
 6144TIP3    H118396   6.278   1.564   0.782  0.5985 -0.9514 -0.1230
 6144TIP3    H218397   6.137   1.578   0.729  0.6397  1.4518  0.3018
 6145TIP3   OH218398   4.145   2.308   3.546  0.4877 -0.0215 -0.2531
 6145TIP3    H118399   4.192   2.279   3.624  0.3936  0.6425  0.0618
 6145TIP3    H218400   4.123   2.400   3.565  1.1897  0.3970 -1.3961
 6146TIP3   OH218401   3.764   0.154   3.916 -0.1532  0.1403  0.3789
 6146TIP3    H118402   3.731   0.214   3.850 -2.2323 -0.5939  0.6731
 6146TIP3    H218403   3.687   0.128   3.966  0.3585 -3.6383 -0.4513
 6147TIP3   OH218404   4.771   0.480   2.350 -0.3382  0.1337  0.2143
 6147TIP3    H118405   4.785   0.475   2.255 -1.2412  2.1399 -0.0559
 6147TIP3    H218406   4.752   0.572   2.367  0.4475 -0.0672  2.4548
 6148TIP3   OH218407   0.864   4.160   0.324  0.3323  0.1125  0.1117
 6148TIP3    H118408   0.913   4.208   0.257 -0.9329  0.1565 -0.8377
 6148TIP3    H218409   0.789   4.217   0.344  0.3806 -0.1712  1.1318
 6149TIP3   OH218410   2.046   3.506   1.868  0.6782  0.1253 -0.0151
 6149TIP3    H118411   1.979   3.555   1.820 -0.5994 -0.2339  1.3523
 6149TIP3    H218412   2.121   3.566   1.870 -0.1630  1.2357 -0.1058
 6150TIP3   OH218413   0.333   6.560   2.216  0.4409  0.7220  0.3241
 6150TIP3    H118414   0.252   6.558   2.165 -0.5633 -0.0949  1.8599
 6150TIP3    H218415   0.309   6.607   2.296  1.5276  0.5669  0.7539
 6151TIP3   OH218416   1.793   5.218   0.316  0.2033  0.4339  0.3460
 6151TIP3    H118417   1.823   5.294   0.366  0.4239  0.8693 -0.4289
 6151TIP3    H218418   1.780   5.150   0.382 -2.1895  1.7651  1.3597
 6152TIP3   OH218419   4.563   3.513   1.060 -0.1696 -0.0699  0.1650
 6152TIP3    H118420   4.573   3.596   1.107 -0.1416 -0.6418  1.2098
 6152TIP3    H218421   4.617   3.523   0.981  0.7050  0.5206  0.8124
 6153TIP3   OH218422   3.614   2.640   3.705  0.8726 -0.2071 -0.1875
 6153TIP3    H118423   3.597   2.546   3.706  1.6894 -0.5106 -3.1949
 6153TIP3    H218424   3.635   2.662   3.796  0.3082 -2.8340  0.6696
 6154TIP3   OH218425   1.579   5.446   4.761 -0.1698  0.2937 -0.2960
 6154TIP3    H118426   1.649   5.382   4.776  0.3748  0.1754 -2.9529
 6154TIP3    H218427   1.587   5.507   4.835  3.3970  0.8392 -0.9481
 6155TIP3   OH218428   2.487   3.663   2.434 -0.0031  1.2725  0.7632
 6155TIP3    H118429   2.406   3.653   2.384  0.4953 -2.4548  0.4466
 6155TIP3    H218430   2.527   3.742   2.397 -2.7291  2.3868 -0.0880
 6156TIP3   OH218431   6.797   4.306   3.381 -1.0883  0.0795  0.1708
 6156TIP3    H118432   6.807   4.363   3.305  0.9025 -1.1227 -0.5492
 6156TIP3    H218433   6.887   4.294   3.413 -1.2739 -3.3780 -0.3080
 6157TIP3   OH218434   0.502   1.836   4.244 -0.4240 -0.0776  0.0722
 6157TIP3    H118435   0.574   1.845   4.182  0.3565 -0.7657  0.8552
 6157TIP3    H218436   0.510   1.747   4.278 -0.7535  0.3283  1.2639
 6158TIP3   OH218437   4.612   2.563   2.749  0.0033  0.2253  0.3521
 6158TIP3    H118438   4.577   2.485   2.793 -2.0290  0.0223 -1.4440
 6158TIP3    H218439   4.545   2.630   2.760  1.2289  1.3962  0.9085
 6159TIP3   OH218440   0.048   2.009   5.750  0.0811 -0.3052 -0.6652
 6159TIP3    H118441   0.092   1.926   5.735  0.4727  0.0554 -1.5581
 6159TIP3    H218442  -0.035   1.985   5.792  1.3130 -0.9676  1.5773
 6160TIP3   OH218443   5.205   1.712   2.786 -0.7308 -0.5655 -0.0193
 6160TIP3    H118444   5.154   1.792   2.799  0.0963 -0.0207  0.0019
 6160TIP3    H218445   5.163   1.668   2.712 -3.0763 -1.6887  1.8678
 6161TIP3   OH218446   5.683   4.919   0.278 -0.6878  0.1719  0.1852
 6161TIP3    H118447   5.696   5.003   0.322 -0.6002  0.5859 -0.6126
 6161TIP3    H218448   5.760   4.867   0.302  0.0152  0.8614 -0.5331
 6162TIP3   OH218449   0.107   2.593   2.458 -0.5523  0.1684  0.0663
 6162TIP3    H118450   0.177   2.647   2.422  1.2998 -0.8982  1.7959
 6162TIP3    H218451   0.128   2.504   2.429 -0.5347 -0.3200  1.4899
 6163TIP3   OH218452   2.196   0.926   4.496  0.2368  0.0253  0.8587
 6163TIP3    H118453   2.273   0.870   4.487  1.5049  1.3799  2.6199
 6163TIP3    H218454   2.127   0.879   4.450  2.0355 -1.3632 -0.5685
 6164TIP3   OH218455   4.276   4.005   3.057  0.2052 -0.7351  0.2201
 6164TIP3    H118456   4.259   3.920   3.015  0.9570  0.1259 -1.9355
 6164TIP3    H218457   4.204   4.061   3.028  0.6383 -0.1688  0.2316
 6165TIP3   OH218458   3.335   4.232   4.068  0.0739 -0.1525 -0.1575
 6165TIP3    H118459   3.408   4.277   4.110  0.0394 -0.7796  0.5944
 6165TIP3    H218460   3.278   4.303   4.037  0.4514  0.3275  0.2217
 6166TIP3   OH218461   0.638   4.554   5.649 -0.3485 -0.5264  0.2037
 6166TIP3    H118462   0.690   4.491   5.699  1.1232  0.3945 -0.0948
 6166TIP3    H218463   0.655   4.638   5.692 -0.6986 -0.0404 -0.5894
 6167TIP3   OH218464   1.153   0.375   0.173 -0.0174  0.3633  0.2273
 6167TIP3    H118465   1.088   0.360   0.104 -1.4342  1.1486  1.3181
 6167TIP3    H218466   1.198   0.455   0.147  1.1299 -0.6221 -0.9462
 6168TIP3   OH218467   3.074   5.536   2.599  0.3874  0.3480  0.2674
 6168TIP3    H118468   3.137   5.600   2.563 -1.3373  1.3509 -1.1277
 6168TIP3    H218469   3.024   5.506   2.523  0.4110 -1.8979  1.0643
 6169TIP3   OH218470   5.268   0.878   4.389 -0.0763 -0.3638 -0.3406
 6169TIP3    H118471   5.178   0.879   4.421 -0.2013 -0.7586 -0.6657
 6169TIP3    H218472   5.262   0.836   4.303  0.2449  0.6743 -0.8859
 6170TIP3   OH218473   5.041   2.246   3.762 -0.2559  0.1680  0.4682
 6170TIP3    H118474   5.014   2.277   3.676  0.0723  0.4124  0.4494
 6170TIP3    H218475   5.136   2.237   3.756 -0.1568  0.7734  0.9831
 6171TIP3   OH218476   6.081   3.837   4.562 -0.5579 -0.9932 -0.1592
 6171TIP3    H118477   6.161   3.786   4.549 -1.1420 -1.9161 -0.2445
 6171TIP3    H218478   6.074   3.891   4.483 -0.1883 -1.1331 -0.2915
 6172TIP3   OH218479   3.358   2.929   0.204  0.0158  0.0356  0.3352
 6172TIP3    H118480   3.412   3.008   0.195  2.5437 -1.4226  1.7374
 6172TIP3    H218481   3.388   2.871   0.134  1.3769 -1.3344  1.9740
 6173TIP3   OH218482   0.350   0.792   5.859 -0.9932  0.0579 -0.5176
 6173TIP3    H118483   0.315   0.733   5.792 -1.1355 -0.3433 -0.0984
 6173TIP3    H218484   0.273   0.817   5.910 -0.6226 -1.2848  0.7680
 6174TIP3   OH218485   3.728   0.422   5.228  0.0058  0.3809  0.2641
 6174TIP3    H118486   3.667   0.350   5.214 -0.8424  1.2644 -0.7215
 6174TIP3    H218487   3.726   0.437   5.323  1.0071 -1.5418  0.6521
 6175TIP3   OH218488   1.818   0.521   3.871 -0.0342  0.2906  0.1285
 6175TIP3    H118489   1.895   0.532   3.927  0.4782  1.3972 -0.7794
 6175TIP3    H218490   1.853   0.498   3.785 -0.8540 -2.5924  0.4545
 6176TIP3   OH218491   0.513   2.388   3.058  0.5353  0.0597  0.1438
 6176TIP3    H118492   0.559   2.443   2.995  0.8941 -1.5897 -1.1254
 6176TIP3    H218493   0.580   2.327   3.089 -0.6736 -2.4944 -1.8589
 6177TIP3   OH218494   4.501   0.013   5.686  0.2789  0.2419  0.0005
 6177TIP3    H118495   4.465   0.101   5.697 -2.6890 -0.7061 -1.2030
 6177TIP3    H218496   4.588   0.027   5.648 -0.2067  2.6481 -0.3635
 6178TIP3   OH218497   7.073   5.232   2.949 -0.1996  0.0536  0.5495
 6178TIP3    H118498   7.001   5.234   2.887 -0.9596  1.0074  1.4331
 6178TIP3    H218499   7.060   5.150   2.998 -0.0502 -0.3082 -0.0060
 6179TIP3   OH218500   2.601   2.822   5.101  0.5989 -0.5556  0.2897
 6179TIP3    H118501   2.682   2.866   5.076 -0.3094  0.0261 -1.8304
 6179TIP3    H218502   2.590   2.843   5.194  1.8371  1.0281  0.1275
 6180TIP3   OH218503   0.972   5.248   4.366 -0.4231  0.4202 -0.3021
 6180TIP3    H118504   0.950   5.308   4.437 -1.4580  0.8280 -0.9423
 6180TIP3    H218505   1.063   5.267   4.346 -0.1400  0.3422  0.8677
 6181TIP3   OH218506   6.883   1.255   3.932  0.5608  0.1499 -0.0536
 6181TIP3    H118507   6.902   1.263   4.025  1.4336  1.1846 -0.2890
 6181TIP3    H218508   6.962   1.216   3.895  0.9543  1.3982 -0.5885
 6182TIP3   OH218509   0.709   0.344   0.823 -0.0608  0.0482 -0.5710
 6182TIP3    H118510   0.793   0.299   0.813 -0.7243 -1.0424 -1.4153
 6182TIP3    H218511   0.695   0.345   0.918 -0.6654 -2.8342 -0.5374
 6183TIP3   OH218512   5.896   2.737   0.514 -0.1088 -0.3786 -0.0928
 6183TIP3    H118513   5.847   2.786   0.448 -0.9240 -0.1012  0.7026
 6183TIP3    H218514   5.908   2.650   0.476  0.5606  0.1538 -1.1350
 6184TIP3   OH218515   5.825   6.032   2.055  0.1755  0.3119  0.0892
 6184TIP3    H118516   5.846   6.006   1.966  0.2867  0.8611 -0.0441
 6184TIP3    H218517   5.734   6.063   2.051 -0.7609 -2.1014  0.6729
 6185TIP3   OH218518   4.614   5.514   4.199 -0.0392  0.2869  0.3978
 6185TIP3    H118519   4.523   5.501   4.171  0.6190  0.0250 -1.8676
 6185TIP3    H218520   4.643   5.590   4.149  1.5186 -0.7621 -0.3751
 6186TIP3   OH218521   6.886   6.468   0.121 -0.4654 -0.0618  0.0282
 6186TIP3    H118522   6.913   6.438   0.208 -2.1351  1.2149  1.0610
 6186TIP3    H218523   6.889   6.563   0.127 -1.2784  0.0505 -1.0883
 6187TIP3   OH218524   0.553   1.877   2.519 -0.2671 -0.1989  0.0320
 6187TIP3    H118525   0.606   1.877   2.439 -1.2669 -1.5646 -0.6728
 6187TIP3    H218526   0.494   1.952   2.510 -2.0732 -1.7245 -1.7468
 6188TIP3   OH218527   1.458   2.627   0.290  0.1516  0.1712  0.0584
 6188TIP3    H118528   1.459   2.532   0.279  1.1668  0.0827  0.7484
 6188TIP3    H218529   1.487   2.661   0.205  0.3188 -0.1633 -0.0228
 6189TIP3   OH218530   2.370   0.372   5.232 -0.1050  0.2271 -0.6955
 6189TIP3    H118531   2.332   0.332   5.310 -0.2991  1.6838  0.0042
 6189TIP3    H218532   2.456   0.402   5.260 -0.0918  0.5770 -1.1014
 6190TIP3   OH218533   2.436   1.809   0.916  0.8204 -0.6842  0.2685
 6190TIP3    H118534   2.365   1.846   0.969 -1.1009 -0.4549 -2.2679
 6190TIP3    H218535   2.479   1.747   0.974 -0.4886  0.2786  2.3972
 6191TIP3   OH218536   7.174   1.229   0.514  0.3281  0.1929  0.7032
 6191TIP3    H118537   7.246   1.282   0.480  0.2114 -0.1158 -0.0447
 6191TIP3    H218538   7.103   1.291   0.526  0.2669  0.2580  0.0563
 6192TIP3   OH218539   2.006   1.445   3.111  0.3037 -0.4595 -0.5520
 6192TIP3    H118540   1.910   1.453   3.106  0.2174 -0.3676  0.7697
 6192TIP3    H218541   2.039   1.509   3.048 -0.5088 -0.5179 -1.0461
 6193TIP3   OH218542   4.476   2.621   1.467 -0.1654  0.4164 -0.0445
 6193TIP3    H118543   4.516   2.707   1.454  1.8784 -0.3875  0.4970
 6193TIP3    H218544   4.527   2.563   1.411  0.1330 -0.8439  1.4761
 6194TIP3   OH218545   1.765   5.223   2.515 -1.2016  0.2138 -0.4236
 6194TIP3    H118546   1.785   5.281   2.588 -1.4645 -0.2323  0.0054
 6194TIP3    H218547   1.679   5.252   2.484 -1.2540  0.1623 -0.3241
 6195TIP3   OH218548   5.932   1.913   0.219 -0.3508  0.1757 -0.1748
 6195TIP3    H118549   5.955   1.892   0.128  1.1360 -0.6645  0.3585
 6195TIP3    H218550   5.902   2.004   0.216 -0.4098  0.1342 -1.5129
 6196TIP3   OH218551   1.561   1.562   0.673  0.0839 -0.1578  0.0983
 6196TIP3    H118552   1.581   1.497   0.606  0.0451 -0.5178  0.4373
 6196TIP3    H218553   1.527   1.637   0.624  0.0214 -0.4315 -0.2805
 6197TIP3   OH218554   6.045   3.796   3.029 -0.4311  0.8465  0.0925
 6197TIP3    H118555   6.119   3.753   3.072 -0.5688 -0.0808 -0.5737
 6197TIP3    H218556   6.086   3.860   2.970 -0.1674  0.4597 -0.1473
 6198TIP3   OH218557   0.458   3.368   3.624 -0.0119  0.2816  0.8513
 6198TIP3    H118558   0.439   3.461   3.631 -1.7210  0.2637 -1.9743
 6198TIP3    H218559   0.423   3.343   3.538  1.5284 -2.6985  0.9681
 6199TIP3   OH218560   6.467   3.870   0.985 -0.5334 -0.4818  0.3391
 6199TIP3    H118561   6.407   3.914   0.924  0.2839  1.1066  0.6351
 6199TIP3    H218562   6.418   3.864   1.067 -0.8268 -0.5976  0.1577
 6200TIP3   OH218563   0.588   5.176   0.448  0.1611  0.5026 -0.0675
 6200TIP3    H118564   0.534   5.116   0.500 -0.9009 -0.2831 -1.9947
 6200TIP3    H218565   0.527   5.217   0.387  1.0212  2.9675  0.6230
 6201TIP3   OH218566   1.180   0.840   1.732 -0.5662  0.3262 -0.2670
 6201TIP3    H118567   1.103   0.895   1.716 -0.8817 -0.0167  0.0512
 6201TIP3    H218568   1.180   0.825   1.826 -0.6708 -0.4720 -0.3835
 6202TIP3   OH218569   1.834   4.788   3.119 -0.6087  0.3360  0.0818
 6202TIP3    H118570   1.849   4.698   3.148  3.2703  0.6154 -0.5514
 6202TIP3    H218571   1.743   4.788   3.087 -1.5939 -2.6116  2.4056
 6203TIP3   OH218572   5.714   4.555   1.110 -0.0196  0.2896 -0.2691
 6203TIP3    H118573   5.701   4.603   1.191 -0.5136 -0.6007  0.1950
 6203TIP3    H218574   5.628   4.519   1.088  0.3591 -0.5077 -0.5095
 6204TIP3   OH218575   6.032   3.827   2.332  0.5006 -0.4445  0.2138
 6204TIP3    H118576   5.953   3.774   2.331  0.6662 -0.7100  0.7988
 6204TIP3    H218577   6.047   3.846   2.425  1.2113 -0.5351  0.1210
 6205TIP3   OH218578   0.028   2.220   4.102  0.5582 -0.2184 -0.1173
 6205TIP3    H118579   0.042   2.265   4.185  2.1194 -0.3836 -0.2477
 6205TIP3    H218580  -0.035   2.151   4.122 -1.9234  1.9449  0.0717
 6206TIP3   OH218581   3.655   3.480   1.722 -0.2099  0.2473 -0.1854
 6206TIP3    H118582   3.587   3.447   1.663 -0.2158 -0.0866  0.0076
 6206TIP3    H218583   3.669   3.409   1.784 -1.5928  1.3088  1.4198
 6207TIP3   OH218584   3.836   6.499   4.416  0.1407 -0.0526  0.5722
 6207TIP3    H118585   3.809   6.497   4.508  0.8472  0.3027  0.7988
 6207TIP3    H218586   3.755   6.489   4.367 -0.1773 -0.8957  1.2350
 6208TIP3   OH218587   6.404   3.248   2.805 -0.2266 -0.0672 -0.5275
 6208TIP3    H118588   6.321   3.232   2.761 -1.0101  1.2243  0.3870
 6208TIP3    H218589   6.379   3.275   2.893  1.1767  0.1063 -0.1610
 6209TIP3   OH218590   1.935   5.943   5.023 -0.4727  0.0327 -0.0660
 6209TIP3    H118591   1.901   5.890   4.951  0.1594  0.6208 -0.8166
 6209TIP3    H218592   1.995   6.004   4.981  0.9088 -0.4572  1.1144
 6210TIP3   OH218593   2.054   5.139   1.539 -0.2067  0.1688 -0.1776
 6210TIP3    H118594   2.133   5.157   1.589 -0.1995 -2.5414  0.9537
 6210TIP3    H218595   1.988   5.197   1.577 -0.2340 -1.8209  3.2241
 6211TIP3   OH218596   7.028   2.969   0.038 -0.4156  0.9028 -0.0345
 6211TIP3    H118597   6.938   2.986   0.063 -0.5872  0.4641 -0.3338
 6211TIP3    H218598   7.029   2.983  -0.057  0.1067  2.0599  0.1193
 6212TIP3   OH218599   5.200   0.848   0.831 -0.0213  0.0422  0.0183
 6212TIP3    H118600   5.125   0.893   0.871  0.3235  1.6560 -1.0775
 6212TIP3    H218601   5.205   0.883   0.742 -0.2324 -2.8240 -1.2211
 6213TIP3   OH218602   4.758   1.374   5.867 -0.3436  0.3468  0.4490
 6213TIP3    H118603   4.818   1.394   5.938  0.9360 -0.7123 -0.3035
 6213TIP3    H218604   4.801   1.407   5.788 -1.9185  1.8771  0.1446
 6214TIP3   OH218605   4.895   2.301   3.529 -0.4158  0.1626  0.8431
 6214TIP3    H118606   4.822   2.355   3.559 -1.9408 -0.1991 -1.9354
 6214TIP3    H218607   4.904   2.322   3.436  0.8478 -2.2748  0.3319
 6215TIP3   OH218608   6.072   4.461   3.446 -0.1327 -0.1982 -0.4910
 6215TIP3    H118609   6.136   4.528   3.422  0.7814 -1.8565 -3.0638
 6215TIP3    H218610   6.001   4.473   3.383 -0.8025 -0.5157  0.1950
 6216TIP3   OH218611   4.607   3.690   3.313  0.2689  0.0401  0.0993
 6216TIP3    H118612   4.699   3.666   3.323  0.8620  2.2989  0.6824
 6216TIP3    H218613   4.609   3.776   3.272 -1.6040  0.0464 -0.0807
 6217TIP3   OH218614   6.411   3.039   1.136  0.1608 -0.8759 -0.5597
 6217TIP3    H118615   6.324   3.020   1.100 -0.8234  0.4141  0.9911
 6217TIP3    H218616   6.397   3.039   1.231  2.2184 -2.1981 -0.2072
 6218TIP3   OH218617   6.630   3.983   4.013 -0.2715  0.5438 -0.1988
 6218TIP3    H118618   6.535   3.973   4.023 -0.5094  2.7058  0.2486
 6218TIP3    H218619   6.646   4.077   4.028  2.1262 -0.0073  1.3810
 6219TIP3   OH218620   4.312   0.533   1.512 -0.0145 -0.1262  0.4759
 6219TIP3    H118621   4.343   0.446   1.536  2.0140  0.9938  2.3769
 6219TIP3    H218622   4.386   0.573   1.466 -1.1232  0.4319 -0.8853
 6220TIP3   OH218623   1.828   4.621   0.445  0.5380 -0.5671 -0.5405
 6220TIP3    H118624   1.798   4.560   0.378  0.8131  1.6874 -2.8667
 6220TIP3    H218625   1.749   4.666   0.475  0.3150 -2.0622  1.2749
 6221TIP3   OH218626   0.090   5.782   1.415 -0.7208  0.4201 -0.2102
 6221TIP3    H118627   0.157   5.846   1.391 -1.7031  1.1540 -1.1447
 6221TIP3    H218628   0.094   5.778   1.510  0.6269  0.4515 -0.2429
 6222TIP3   OH218629   7.126   6.476   2.660  0.1227  0.1976 -0.3944
 6222TIP3    H118630   7.107   6.382   2.663 -0.5707  0.3414 -0.1515
 6222TIP3    H218631   7.042   6.518   2.679  0.5789  0.8582  0.1978
 6223TIP3   OH218632   6.907   2.847   1.923 -0.3878 -0.6016 -0.6702
 6223TIP3    H118633   6.906   2.938   1.894 -1.6877 -0.4628 -0.2544
 6223TIP3    H218634   6.974   2.844   1.991 -0.4683  0.1010 -0.5481
 6224TIP3   OH218635   0.349   1.483   0.299 -0.0498 -0.0174  0.2221
 6224TIP3    H118636   0.370   1.495   0.207  1.4931  0.2510  0.5763
 6224TIP3    H218637   0.407   1.543   0.345  1.4110 -2.2830  1.5197
 6225TIP3   OH218638   6.497   3.175   1.989 -0.0698 -0.9880  0.1141
 6225TIP3    H118639   6.427   3.110   1.983  0.3883 -1.4729 -0.0821
 6225TIP3    H218640   6.524   3.174   2.080 -0.6161 -0.4748  0.2883
 6226TIP3   OH218641   5.923   0.914   0.005  0.3150 -0.4788  1.0048
 6226TIP3    H118642   5.971   0.943  -0.073  1.1410 -1.7005  1.0364
 6226TIP3    H218643   5.991   0.893   0.069 -0.3602  0.9261  2.2472
 6227TIP3   OH218644   4.361   2.623   4.049  0.3809  0.0346  0.3362
 6227TIP3    H118645   4.319   2.667   3.975 -0.4503 -0.5302  0.4580
 6227TIP3    H218646   4.328   2.670   4.126 -2.2070 -2.0256  0.6283
 6228TIP3   OH218647   3.337   0.739   4.513 -0.2055 -0.2148 -0.4511
 6228TIP3    H118648   3.403   0.750   4.581 -1.5731 -0.3634  0.9640
 6228TIP3    H218649   3.382   0.760   4.431  1.8810 -1.4119  0.3273
 6229TIP3   OH218650   5.014   2.921   4.168 -0.2564  0.5629 -0.2882
 6229TIP3    H118651   4.984   2.843   4.122 -0.0998  0.5749 -0.4105
 6229TIP3    H218652   5.027   2.986   4.098 -0.6764  0.7903 -0.1584
 6230TIP3   OH218653   4.740   0.922   1.232  0.3773 -0.1464  0.7967
 6230TIP3    H118654   4.742   0.888   1.322 -0.6846 -0.5060  0.7007
 6230TIP3    H218655   4.716   0.846   1.178  1.6673 -0.0867  0.1166
 6231TIP3   OH218656   0.104   2.859   2.798 -0.3848  0.0446  0.0960
 6231TIP3    H118657   0.050   2.912   2.738 -0.3974 -0.5372 -0.4208
 6231TIP3    H218658   0.082   2.769   2.776  1.9477 -0.2786 -1.2461
 6232TIP3   OH218659   5.458   3.131   2.977 -0.4555 -0.1276 -0.2453
 6232TIP3    H118660   5.525   3.121   3.044  1.7944  1.5841 -2.0443
 6232TIP3    H218661   5.431   3.041   2.956  0.7634 -0.8371  1.0525
 6233TIP3   OH218662   0.876   5.979   5.379 -0.1083  0.9771 -0.3997
 6233TIP3    H118663   0.965   5.986   5.414 -0.1855 -0.1672  0.0613
 6233TIP3    H218664   0.825   6.043   5.429  0.4627  1.7231 -0.7489
 6234TIP3   OH218665   2.785   0.533   4.259 -0.3003  0.6830 -0.3078
 6234TIP3    H118666   2.719   0.484   4.210 -0.6219 -0.6705  1.3932
 6234TIP3    H218667   2.751   0.535   4.349  2.5284 -1.2178  0.9321
 6235TIP3   OH218668   3.683   2.352   3.024  0.2388  0.1095  0.3178
 6235TIP3    H118669   3.729   2.370   2.942 -0.6886  1.2514  0.0144
 6235TIP3    H218670   3.694   2.431   3.076 -1.0951  0.3069  0.3466
 6236TIP3   OH218671   1.028   4.329   3.042  0.0503  0.1176 -0.3272
 6236TIP3    H118672   1.117   4.362   3.057  0.2420 -0.4053 -0.2880
 6236TIP3    H218673   1.010   4.273   3.117  1.2510 -3.0138 -2.1918
 6237TIP3   OH218674   5.472   4.630   5.541 -0.0367 -0.3639 -0.2205
 6237TIP3    H118675   5.567   4.625   5.552  0.2586  0.0611 -2.1993
 6237TIP3    H218676   5.437   4.566   5.604  1.4174  0.6386  1.7361
 6238TIP3   OH218677   6.813   4.806   5.462  0.2165 -0.1393  0.4156
 6238TIP3    H118678   6.857   4.765   5.388  0.8022 -0.3391  0.8719
 6238TIP3    H218679   6.784   4.891   5.429  2.2667  0.6515  0.5250
 6239TIP3   OH218680   4.675   5.422   5.449  0.1746  0.7549  0.0950
 6239TIP3    H118681   4.736   5.478   5.499  0.3830  0.2787  0.3792
 6239TIP3    H218682   4.621   5.484   5.400  1.1679  1.1773 -0.5011
 6240TIP3   OH218683   2.732   6.146   2.609  0.5560 -0.2209 -0.3927
 6240TIP3    H118684   2.689   6.104   2.683  0.9748 -0.0371 -0.0325
 6240TIP3    H218685   2.810   6.093   2.593 -0.2274 -1.0578 -1.6017
 6241TIP3   OH218686   4.185   2.257   2.435  0.8018 -0.4749 -0.3048
 6241TIP3    H118687   4.151   2.178   2.392  1.4138 -1.2027  0.5196
 6241TIP3    H218688   4.155   2.329   2.379 -1.8524 -1.0643  0.2075
 6242TIP3   OH218689   2.027   1.643   2.087 -0.2000 -0.0161  0.1378
 6242TIP3    H118690   2.041   1.571   2.026  0.0188 -1.9128  2.2682
 6242TIP3    H218691   2.014   1.720   2.032 -0.7068 -1.7158 -2.2525
 6243TIP3   OH218692   6.205   0.507   3.729 -0.1677 -0.5683 -0.1710
 6243TIP3    H118693   6.155   0.572   3.680 -0.3955 -0.6738 -0.0743
 6243TIP3    H218694   6.188   0.424   3.683 -0.5111 -0.6949  0.1847
 6244TIP3   OH218695   0.068   6.444   3.925  0.5816  0.1486  0.3503
 6244TIP3    H118696   0.112   6.359   3.925 -1.1807 -0.7934  0.7766
 6244TIP3    H218697   0.091   6.482   3.840  0.7216 -1.1227 -0.2125
 6245TIP3   OH218698   2.876   4.127   1.269  0.3973 -0.0666  0.0516
 6245TIP3    H118699   2.956   4.082   1.244 -0.4123 -0.8770 -1.1980
 6245TIP3    H218700   2.821   4.123   1.191 -0.8275  0.5569  0.8477
 6246TIP3   OH218701   1.774   3.741   1.135 -0.7039 -0.2150  0.3794
 6246TIP3    H118702   1.714   3.668   1.150 -1.4507  0.5648  1.3130
 6246TIP3    H218703   1.775   3.789   1.218 -1.3559  1.6230 -0.6065
 6247TIP3   OH218704   3.266   5.882   5.234  0.1014  0.1700  0.5671
 6247TIP3    H118705   3.315   5.902   5.154 -0.7144 -2.0102 -0.5607
 6247TIP3    H218706   3.333   5.850   5.295  0.9157  2.9632  1.2810
 6248TIP3   OH218707   3.785   5.778   5.012 -0.0975 -0.0931  0.0140
 6248TIP3    H118708   3.730   5.701   5.002  0.6582 -0.7980  1.0803
 6248TIP3    H218709   3.753   5.821   5.092  0.8391 -0.4869  0.6223
 6249TIP3   OH218710   0.523   0.451   0.222 -0.6849  0.2670  0.5634
 6249TIP3    H118711   0.497   0.533   0.182 -1.4800 -0.3210 -0.1518
 6249TIP3    H218712   0.470   0.384   0.179 -0.0613 -0.6295  1.1271
 6250TIP3   OH218713   4.830   1.802   4.056 -0.2258  0.4544  0.3997
 6250TIP3    H118714   4.865   1.727   4.104  0.2975  0.7037  0.4184
 6250TIP3    H218715   4.801   1.862   4.124 -2.9720 -0.7615  0.3986
 6251TIP3   OH218716   3.904   4.051   1.929 -0.3264 -0.2333  0.1306
 6251TIP3    H118717   3.968   4.080   1.864 -0.0255  0.6349  0.8028
 6251TIP3    H218718   3.837   4.006   1.877  0.4051 -0.4380 -0.6677
 6252TIP3   OH218719   5.541   5.920   5.562  0.0775 -0.4193 -0.2355
 6252TIP3    H118720   5.487   5.890   5.634  1.5483 -0.7716  0.7537
 6252TIP3    H218721   5.624   5.947   5.602 -0.3080  2.8281 -1.3240
 6253TIP3   OH218722   6.080   4.896   1.060 -0.0100 -0.2333 -0.4100
 6253TIP3    H118723   6.053   4.806   1.042 -0.5335 -0.2023  0.2094
 6253TIP3    H218724   6.049   4.946   0.984  1.2648 -0.7371 -1.3030
 6254TIP3   OH218725   4.690   3.018   1.131  0.3736 -0.1435  0.1341
 6254TIP3    H118726   4.635   3.094   1.150 -2.5864 -2.0235 -0.2667
 6254TIP3    H218727   4.725   2.992   1.216 -1.1197 -0.1038  0.7924
 6255TIP3   OH218728   2.255   3.902   0.290 -0.2888  0.0584 -0.1458
 6255TIP3    H118729   2.301   3.844   0.351 -1.6239 -0.9176 -0.0108
 6255TIP3    H218730   2.300   3.889   0.206 -1.9923 -3.1231 -0.7314
 6256TIP3   OH218731   6.955   2.382   1.336  0.2496  0.1110  0.0523
 6256TIP3    H118732   6.962   2.428   1.252  1.3219 -0.5469 -0.2365
 6256TIP3    H218733   7.013   2.307   1.327 -0.4567 -0.5723  1.0033
 6257TIP3   OH218734   4.517   4.192   4.736  0.3506 -0.1895 -0.0851
 6257TIP3    H118735   4.449   4.240   4.784 -1.4908  0.5862 -3.1657
 6257TIP3    H218736   4.501   4.100   4.758 -0.2703  0.1345  0.9116
 6258TIP3   OH218737   5.144   1.749   4.367 -0.2008 -0.4662 -0.1390
 6258TIP3    H118738   5.112   1.836   4.345 -1.2988 -0.8404 -0.1057
 6258TIP3    H218739   5.191   1.720   4.289  1.3393  0.6558  0.3270
 6259TIP3   OH218740   1.209   5.663   0.954  0.1158 -0.0520 -0.5939
 6259TIP3    H118741   1.133   5.676   1.010 -0.3379 -0.0489 -1.2095
 6259TIP3    H218742   1.272   5.616   1.010 -0.1767  0.2962  0.0390
 6260TIP3   OH218743   3.259   2.112   3.464  0.1832  0.8878 -0.6486
 6260TIP3    H118744   3.226   2.191   3.420  0.4422  0.2305 -2.0568
 6260TIP3    H218745   3.321   2.074   3.402  0.8389  0.1145  0.4476
 6261TIP3   OH218746   4.736   0.269   5.031 -0.0251  0.5150  0.4112
 6261TIP3    H118747   4.803   0.286   5.097  0.8813  0.2881 -0.4243
 6261TIP3    H218748   4.718   0.354   4.992  0.1418  0.4984  0.2976
 6262TIP3   OH218749   1.832   0.247   0.119 -0.5456  0.2446 -0.0025
 6262TIP3    H118750   1.830   0.152   0.116 -1.5281  0.2594 -0.3919
 6262TIP3    H218751   1.861   0.268   0.208  1.8901 -0.3835 -0.5853
 6263TIP3   OH218752   2.217   5.361   3.777  0.4328 -0.2042 -0.1632
 6263TIP3    H118753   2.128   5.354   3.743 -0.2033  0.0947  1.3446
 6263TIP3    H218754   2.256   5.434   3.730 -0.4738  0.3046 -0.1364
 6264TIP3   OH218755   2.002   3.885   0.256  0.3781  0.3342  0.3505
 6264TIP3    H118756   1.973   3.852   0.341  2.2872 -1.6055  0.3562
 6264TIP3    H218757   2.097   3.891   0.265  0.7457 -0.9374 -1.9358
 6265TIP3   OH218758   1.594   1.839   2.975 -0.2987  0.3725  0.5226
 6265TIP3    H118759   1.619   1.839   3.067  0.8126 -0.6436  0.2431
 6265TIP3    H218760   1.570   1.748   2.956 -0.4089  0.5457 -0.2297
 6266TIP3   OH218761   0.204   5.939   1.635  0.4342 -0.2948 -0.0675
 6266TIP3    H118762   0.187   6.019   1.686 -0.9404 -1.2511  1.0461
 6266TIP3    H218763   0.216   5.971   1.545 -0.7371  1.1243  0.2266
 6267TIP3   OH218764   6.814   1.086   0.466 -0.2472 -0.9290 -0.0999
 6267TIP3    H118765   6.874   1.020   0.431  1.7377  1.0779 -0.7162
 6267TIP3    H218766   6.731   1.068   0.422  0.8203 -1.6816 -1.9325
 6268TIP3   OH218767   0.867   3.979   1.949 -0.3403 -0.5740 -0.2718
 6268TIP3    H118768   0.822   3.981   2.033 -1.6979  2.8897 -0.8952
 6268TIP3    H218769   0.810   3.926   1.893 -0.6033 -1.0417  0.4218
 6269TIP3   OH218770   5.244   1.217   0.336 -0.0829 -0.2197 -0.5468
 6269TIP3    H118771   5.244   1.309   0.307  0.3134  0.0310  0.2089
 6269TIP3    H218772   5.334   1.188   0.323 -0.3009 -0.6323 -1.1644
 6270TIP3   OH218773   2.803   1.024   5.385  0.0939  0.5802  0.0483
 6270TIP3    H118774   2.724   0.991   5.428  0.8820 -0.2841  0.8642
 6270TIP3    H218775   2.805   0.977   5.301 -0.3670  0.7779 -0.0808
 6271TIP3   OH218776   6.546   5.497   4.724  0.3660 -0.4504 -0.4725
 6271TIP3    H118777   6.490   5.514   4.800  1.9861  3.1558  0.1339
 6271TIP3    H218778   6.491   5.518   4.649 -0.3413 -1.0741 -0.1448
 6272TIP3   OH218779   6.753   3.548   2.322 -0.1734  0.3339  0.0553
 6272TIP3    H118780   6.805   3.598   2.258 -1.0207 -1.4309 -2.1375
 6272TIP3    H218781   6.785   3.459   2.314 -1.8784 -0.3447  0.4097
 6273TIP3   OH218782   3.534   3.858   4.919 -0.6288 -0.4327 -0.1881
 6273TIP3    H118783   3.463   3.876   4.981  0.0626 -1.9438  1.1190
 6273TIP3    H218784   3.505   3.897   4.837 -1.5951  1.6181  1.0670
 6274TIP3   OH218785   2.626   3.871   2.284 -0.4264  0.7130 -0.5692
 6274TIP3    H118786   2.630   3.961   2.315 -0.1122  0.7613 -0.7470
 6274TIP3    H218787   2.711   3.855   2.244 -0.9709  0.8035 -1.8253
 6275TIP3   OH218788   4.970   2.141   0.969  0.3050 -0.7045  0.4995
 6275TIP3    H118789   4.932   2.085   1.037  1.0452 -0.8545  0.7930
 6275TIP3    H218790   4.908   2.214   0.963  1.6137  0.8199  3.4179
 6276TIP3   OH218791   2.602   0.947   3.040 -0.2728  0.0621 -0.1448
 6276TIP3    H118792   2.539   0.875   3.039 -1.3687  0.9660  0.4832
 6276TIP3    H218793   2.675   0.914   3.093 -1.0048 -0.3919  0.6078
 6277TIP3   OH218794   0.613   6.274   0.590  0.0855  0.1526  0.5533
 6277TIP3    H118795   0.641   6.191   0.627 -0.2720  0.7362  2.2115
 6277TIP3    H218796   0.541   6.303   0.646 -1.9867  0.0687 -1.8799
 6278TIP3   OH218797   2.895   4.889   2.871  0.0743  0.1540  0.0642
 6278TIP3    H118798   2.885   4.983   2.886 -1.1859 -0.3390  2.9393
 6278TIP3    H218799   2.987   4.879   2.847  1.2044  1.8490  3.0640
 6279TIP3   OH218800   6.339   3.442   3.469  0.1127 -0.4006  0.1465
 6279TIP3    H118801   6.331   3.357   3.427  0.5875 -0.5081  0.2602
 6279TIP3    H218802   6.390   3.495   3.408  0.8200 -0.5633  0.5838
 6280TIP3   OH218803   7.143   0.475   0.311  0.4963 -0.2036  0.2360
 6280TIP3    H118804   7.156   0.569   0.323  0.0018  0.0032 -0.7711
 6280TIP3    H218805   7.206   0.434   0.370  1.3783  0.7527 -0.0287
 6281TIP3   OH218806   4.593   6.085   3.593  0.4334  0.5509  0.9657
 6281TIP3    H118807   4.584   6.152   3.525  0.8460 -0.4381 -0.0885
 6281TIP3    H218808   4.559   6.005   3.553  1.2925 -0.1998  1.6876
 6282TIP3   OH218809   4.929   1.221   4.780 -0.3237  0.0201  0.0055
 6282TIP3    H118810   4.940   1.309   4.814  0.1221  0.2938 -0.8093
 6282TIP3    H218811   4.947   1.163   4.854 -1.2647  0.6084  0.7154
 6283TIP3   OH218812   3.968   5.858   1.451  0.3307  0.4177  0.5531
 6283TIP3    H118813   3.902   5.801   1.490  0.1071  2.5380  3.5894
 6283TIP3    H218814   3.919   5.934   1.419  0.4860 -1.1320 -4.2952
 6284TIP3   OH218815   0.123   4.119   4.036  0.0803 -0.1253  0.0652
 6284TIP3    H118816   0.106   4.036   3.994 -1.6022 -0.2492  0.9110
 6284TIP3    H218817   0.110   4.102   4.130  0.0218  0.9992  0.2806
 6285TIP3   OH218818   2.368   3.770   1.477 -0.4705  0.1082 -0.3291
 6285TIP3    H118819   2.448   3.759   1.425 -0.6418 -0.9272 -0.4035
 6285TIP3    H218820   2.400   3.774   1.568 -0.1896  1.7071 -0.4654
 6286TIP3   OH218821   3.166   0.132   3.527  0.1956 -0.4596 -0.0875
 6286TIP3    H118822   3.214   0.049   3.519  0.5867 -0.3358  0.8772
 6286TIP3    H218823   3.078   0.107   3.552  0.3020 -0.5839  0.1595
 6287TIP3   OH218824   5.810   3.250   1.179 -0.4476 -0.2974  0.4842
 6287TIP3    H118825   5.724   3.213   1.159 -0.8124 -0.0704  1.5393
 6287TIP3    H218826   5.823   3.228   1.272  0.1934  0.5251  0.5946
 6288TIP3   OH218827   2.550   1.029   3.927 -0.3639 -0.0423 -0.0908
 6288TIP3    H118828   2.606   0.972   3.978  0.1767  1.0878  0.6206
 6288TIP3    H218829   2.498   1.077   3.992 -0.1610  0.9147 -0.6121
 6289TIP3   OH218830   0.813   1.583   4.698 -0.6923 -0.1319 -0.3129
 6289TIP3    H118831   0.777   1.507   4.744 -0.9243  0.0280 -0.2303
 6289TIP3    H218832   0.755   1.595   4.622  0.3148 -1.0639 -1.2723
 6290TIP3   OH218833   0.435   1.852   5.542 -0.2862  0.0067  0.6741
 6290TIP3    H118834   0.467   1.921   5.485 -1.2209  0.0851  0.2197
 6290TIP3    H218835   0.456   1.771   5.496 -1.0371  0.0697  0.2130
 6291TIP3   OH218836   2.195   2.687   2.567 -0.5954  0.1355  0.3877
 6291TIP3    H118837   2.178   2.673   2.660 -1.2716 -0.4912  0.1783
 6291TIP3    H218838   2.289   2.705   2.563 -0.5906  0.3459  1.2082
 6292TIP3   OH218839   4.838   6.125   4.539 -0.5352  0.0001 -0.5669
 6292TIP3    H118840   4.820   6.104   4.447 -1.5327 -0.0607 -0.3590
 6292TIP3    H218841   4.773   6.191   4.562  0.0059  0.3618 -0.0274
 6293TIP3   OH218842   5.153   1.203   2.737  1.0411 -0.4028 -0.2321
 6293TIP3    H118843   5.211   1.133   2.706  1.2088 -0.9100  1.1921
 6293TIP3    H218844   5.081   1.158   2.781  0.8788  0.3007  0.2395
 6294TIP3   OH218845   2.305   1.304   4.438 -0.7105 -0.1146  0.3322
 6294TIP3    H118846   2.349   1.306   4.522  0.9230 -3.1426 -0.3135
 6294TIP3    H218847   2.360   1.357   4.380 -1.7308  1.7993  1.0122
 6295TIP3   OH218848   1.210   2.701   2.861 -0.0194 -0.2907 -0.0055
 6295TIP3    H118849   1.210   2.796   2.846 -0.8772 -0.2151  0.4090
 6295TIP3    H218850   1.183   2.664   2.778 -0.8448 -0.0966  0.1658
 6296TIP3   OH218851   5.142   0.067   4.704 -0.2217 -0.1325  0.9538
 6296TIP3    H118852   5.124  -0.004   4.643  0.2827  0.9376 -0.4964
 6296TIP3    H218853   5.056   0.098   4.732 -0.4936 -0.0349  0.0400
 6297TIP3   OH218854   6.468   0.721   2.542  0.0764 -0.2222  0.1919
 6297TIP3    H118855   6.543   0.759   2.496 -1.5749  1.5087 -1.2377
 6297TIP3    H218856   6.486   0.627   2.543  2.1136  0.1123 -0.3525
 6298TIP3   OH218857   5.482   6.613   5.265  0.2036 -0.3988  0.3118
 6298TIP3    H118858   5.489   6.536   5.209  2.4957 -1.5790  2.0732
 6298TIP3    H218859   5.405   6.595   5.320  0.6060 -1.3446  0.5811
 6299TIP3   OH218860   0.046   2.981   2.216 -0.0866  0.7714  0.2257
 6299TIP3    H118861   0.129   2.977   2.262 -0.2489 -0.1099  0.4687
 6299TIP3    H218862   0.068   3.007   2.126  0.2016  2.8067  0.8413
 6300TIP3   OH218863   2.737   0.017   3.672  0.8339  0.3945  0.0310
 6300TIP3    H118864   2.732   0.112   3.680  0.4924  0.2279  2.3110
 6300TIP3    H218865   2.761   0.002   3.580 -0.1360  2.6217 -0.6523
 6301TIP3   OH218866   2.221   1.701   0.490  0.1317  0.0145  0.1702
 6301TIP3    H118867   2.236   1.693   0.584  2.0872 -1.1062 -0.1928
 6301TIP3    H218868   2.210   1.795   0.476 -0.0626  0.2143  1.4809
 6302TIP3   OH218869   3.887   1.653   4.500 -0.1008  0.0415  0.4160
 6302TIP3    H118870   3.875   1.558   4.494 -2.6367  0.3285 -0.0931
 6302TIP3    H218871   3.799   1.688   4.513  0.5601  2.4572 -0.9134
 6303TIP3   OH218872   4.903   0.763   2.471  0.2790 -0.0751  0.0909
 6303TIP3    H118873   4.912   0.858   2.475 -0.0679 -0.0745  1.3240
 6303TIP3    H218874   4.961   0.736   2.399  1.9443  0.8857  1.0054
 6304TIP3   OH218875   2.134   0.076   2.426 -0.0677 -0.0656  0.3982
 6304TIP3    H118876   2.144  -0.010   2.386 -0.7886  0.1187 -0.2078
 6304TIP3    H218877   2.049   0.072   2.470 -0.6166  0.6780 -0.5546
 6305TIP3   OH218878   6.795   4.813   2.202  0.6653 -0.1458  0.3935
 6305TIP3    H118879   6.716   4.867   2.204  1.1660  1.1275 -4.1216
 6305TIP3    H218880   6.848   4.847   2.274 -0.6429  2.8105  0.1304
 6306TIP3   OH218881   1.595   6.558   4.928 -0.0590  0.6114  0.5867
 6306TIP3    H118882   1.666   6.495   4.945 -1.5981 -0.7310  2.6144
 6306TIP3    H218883   1.517   6.503   4.919 -1.0494  2.1195 -0.3497
 6307TIP3   OH218884   0.705   2.318   4.617  0.0386  0.7112 -0.6200
 6307TIP3    H118885   0.666   2.253   4.559  1.2581  0.8852 -1.6845
 6307TIP3    H218886   0.646   2.393   4.613 -2.1847 -0.7652  1.7695
 6308TIP3   OH218887   0.271   2.346   1.644  0.2473 -0.1578  0.2558
 6308TIP3    H118888   0.298   2.262   1.680  0.1147  0.3530  1.6263
 6308TIP3    H218889   0.264   2.404   1.721 -2.5076  0.3287 -0.2578
 6309TIP3   OH218890   0.567   5.975   0.799 -0.1273 -0.2159  0.2539
 6309TIP3    H118891   0.490   5.931   0.834 -0.0768  0.3963  1.1706
 6309TIP3    H218892   0.546   6.069   0.806 -0.5084 -0.0347 -2.2524
 6310TIP3   OH218893   0.148   2.306   3.639  0.3550  0.3484  0.2840
 6310TIP3    H118894   0.181   2.386   3.598 -0.0313  0.7982  0.8285
 6310TIP3    H218895   0.061   2.330   3.671  1.3934  0.6551  3.1533
 6311TIP3   OH218896   3.775   1.412   4.494 -0.0600  0.3884 -0.6143
 6311TIP3    H118897   3.753   1.411   4.588  1.5920  0.8832 -0.1856
 6311TIP3    H218898   3.707   1.358   4.453 -0.4168 -0.4252  0.9599
 6312TIP3   OH218899   0.548   5.818   2.772 -0.2114 -0.2442 -0.1980
 6312TIP3    H118900   0.489   5.880   2.815  0.2612 -0.9214  1.4624
 6312TIP3    H218901   0.535   5.834   2.678 -2.6079 -0.0064  0.1344
 6313TIP3   OH218902   0.042   6.417   1.281 -0.0498 -0.0812  0.4575
 6313TIP3    H118903   0.095   6.497   1.278 -0.7294  0.3476 -0.7934
 6313TIP3    H218904  -0.038   6.442   1.326  0.7552 -0.7238  2.3236
 6314TIP3   OH218905   0.524   0.615   3.990 -0.0940  0.3718 -0.1059
 6314TIP3    H118906   0.533   0.710   4.005 -1.7930  0.7789 -1.4070
 6314TIP3    H218907   0.448   0.590   4.043 -0.0207 -0.1477 -0.2438
 6315TIP3   OH218908   2.518   2.485   2.489 -0.4549  0.7094 -0.4280
 6315TIP3    H118909   2.431   2.450   2.506  0.7279 -1.0279  2.9715
 6315TIP3    H218910   2.521   2.567   2.537  0.1679  0.0505  0.7139
 6316TIP3   OH218911   6.321   1.587   2.125  0.1174 -0.4107  0.4020
 6316TIP3    H118912   6.307   1.640   2.046  0.2265  0.1713  0.7682
 6316TIP3    H218913   6.327   1.498   2.092  2.2122  0.0032 -0.5038
 6317TIP3   OH218914   0.866   2.759   1.716 -0.1907  0.5535 -0.6347
 6317TIP3    H118915   0.793   2.722   1.767  0.1186 -0.6305 -1.0154
 6317TIP3    H218916   0.927   2.792   1.782  0.3420 -1.2274 -0.1911
 6318TIP3   OH218917   6.320   1.686   4.193 -0.8609 -0.0314  0.0976
 6318TIP3    H118918   6.303   1.627   4.120 -0.5523 -0.7323  0.5793
 6318TIP3    H218919   6.294   1.636   4.271  0.2321  0.1226  0.5808
 6319TIP3   OH218920   3.967   4.653   2.704 -0.7491 -0.5180  0.2729
 6319TIP3    H118921   3.997   4.630   2.792  1.9623  0.9656 -0.1663
 6319TIP3    H218922   3.932   4.741   2.713  0.2403 -0.0579 -0.2294
 6320TIP3   OH218923   5.965   0.764   0.426  0.2688  0.4266  0.2284
 6320TIP3    H118924   5.884   0.813   0.411 -1.1828 -0.9341  2.7941
 6320TIP3    H218925   6.016   0.820   0.484  0.1978  0.3956  0.3217
 6321TIP3   OH218926   7.142   6.213   1.135  0.2320  0.2768 -0.0812
 6321TIP3    H118927   7.066   6.260   1.101 -1.4322 -1.5844  0.9283
 6321TIP3    H218928   7.179   6.272   1.201 -1.0995  0.6954  0.3190
 6322TIP3   OH218929   3.127   3.817   0.103 -0.7204 -0.1650  0.2052
 6322TIP3    H118930   3.106   3.904   0.136  2.0008  1.5526 -2.1442
 6322TIP3    H218931   3.196   3.785   0.161  0.1168  0.4093 -0.4616
 6323TIP3   OH218932   1.903   3.571   3.999 -0.0785 -0.0224  0.3712
 6323TIP3    H118933   1.986   3.572   3.951 -0.6067 -0.2813 -0.5903
 6323TIP3    H218934   1.859   3.652   3.972  0.6292  1.0910  2.3436
 6324TIP3   OH218935   3.924   0.049   0.551  0.0576  0.3414 -0.1439
 6324TIP3    H118936   3.933   0.137   0.513 -0.6302  0.0885 -0.9106
 6324TIP3    H218937   3.958   0.058   0.640  2.7565  0.6970 -1.1220
 6325TIP3   OH218938   5.931   4.702   3.688 -0.0892 -0.1435  0.3419
 6325TIP3    H118939   5.876   4.678   3.613 -1.1741  1.4865  0.5630
 6325TIP3    H218940   5.977   4.621   3.711  1.0297 -0.4955 -2.6675
 6326TIP3   OH218941   6.975   1.997   2.596  0.3011 -0.3550  0.6307
 6326TIP3    H118942   6.951   2.082   2.559  2.5688  1.5985  3.2204
 6326TIP3    H218943   6.912   1.983   2.666 -2.9892 -3.2888 -2.4748
 6327TIP3   OH218944   1.092   1.424   5.310 -0.1165 -0.3107  0.2950
 6327TIP3    H118945   1.153   1.482   5.356  1.9597 -2.0610 -0.0892
 6327TIP3    H218946   1.045   1.379   5.380 -1.0470  1.0522  0.5988
 6328TIP3   OH218947   2.510   6.423   4.884  0.2130  0.7370  0.2447
 6328TIP3    H118948   2.537   6.383   4.801  1.7810  0.3562  0.9040
 6328TIP3    H218949   2.417   6.401   4.893 -0.2083  1.4440 -1.7656
 6329TIP3   OH218950   6.074   3.317   1.140  0.1926  0.2672 -0.8102
 6329TIP3    H118951   6.046   3.309   1.049 -2.2016 -2.3608  0.0005
 6329TIP3    H218952   5.992   3.325   1.190  1.1403 -1.9945  1.3182
 6330TIP3   OH218953   0.477   2.754   3.035 -0.5075  0.4335  0.7540
 6330TIP3    H118954   0.571   2.758   3.016 -0.9683  2.2731 -1.5645
 6330TIP3    H218955   0.435   2.755   2.949 -2.6783 -1.6571  1.6834
 6331TIP3   OH218956   6.841   2.186   2.443  0.1190  0.6547  0.7780
 6331TIP3    H118957   6.798   2.257   2.490  0.1813  0.5356  1.0171
 6331TIP3    H218958   6.861   2.223   2.357 -1.8314  0.2433  0.0933
 6332TIP3   OH218959   4.294   0.549   0.236 -0.0487  0.0312  0.2007
 6332TIP3    H118960   4.200   0.558   0.223 -0.1988 -0.0819  1.1301
 6332TIP3    H218961   4.305   0.458   0.266  0.3289  0.1043  0.2846
 6333TIP3   OH218962   5.143   3.828   2.963  0.2675  0.0813 -0.1189
 6333TIP3    H118963   5.216   3.842   2.903 -0.7379  1.5281 -1.0824
 6333TIP3    H218964   5.068   3.811   2.906 -0.4894  0.3383  0.7767
 6334TIP3   OH218965   4.696   6.490   4.299  0.2407  0.5943 -0.1238
 6334TIP3    H118966   4.777   6.444   4.322 -0.3646 -0.6741 -0.4221
 6334TIP3    H218967   4.645   6.426   4.249 -1.0206  1.3098  0.1867
 6335TIP3   OH218968   2.195   1.257   3.724  0.0177 -0.3140 -0.0992
 6335TIP3    H118969   2.240   1.181   3.759 -3.0853 -1.1106  2.6121
 6335TIP3    H218970   2.171   1.232   3.635  0.0446 -2.0863  0.3535
 6336TIP3   OH218971   1.878   0.187   3.884 -0.0703  0.2087  0.0567
 6336TIP3    H118972   1.784   0.194   3.865 -0.5020  1.1695  2.1537
 6336TIP3    H218973   1.914   0.271   3.856  0.5875 -0.8389 -2.4777
 6337TIP3   OH218974   0.249   3.474   0.454  0.1179  0.0209 -0.3534
 6337TIP3    H118975   0.162   3.513   0.445  0.8616  1.4412 -2.0092
 6337TIP3    H218976   0.254   3.448   0.546 -0.5783  3.6407  0.9068
 6338TIP3   OH218977   7.003   6.448   2.995 -0.3012 -0.0286 -0.3811
 6338TIP3    H118978   7.056   6.527   3.004  0.8539 -0.4693 -2.6107
 6338TIP3    H218979   6.960   6.457   2.910 -0.1097 -1.7835 -0.7152
 6339TIP3   OH218980   3.662   1.790   3.165 -0.0184  0.4529 -0.2503
 6339TIP3    H118981   3.666   1.761   3.256 -0.6295  1.0438 -0.0231
 6339TIP3    H218982   3.750   1.776   3.131  0.5416  1.3023  0.7832
 6340TIP3   OH218983   3.617   5.212   0.656  0.3509  0.3515 -0.1065
 6340TIP3    H118984   3.625   5.186   0.564 -1.6587 -3.1888  0.5172
 6340TIP3    H218985   3.542   5.271   0.658  0.2955  0.3102 -0.7206
 6341TIP3   OH218986   2.375   1.489   2.311  0.1215 -0.8805 -0.5097
 6341TIP3    H118987   2.334   1.558   2.259 -0.1283 -0.8136 -0.2271
 6341TIP3    H218988   2.437   1.535   2.368  0.7053 -0.9962 -1.0410
 6342TIP3   OH218989   2.806   6.015   2.206 -0.1738 -0.2353  0.3715
 6342TIP3    H118990   2.884   5.961   2.217 -0.1057 -0.6218 -1.6719
 6342TIP3    H218991   2.829   6.099   2.245 -0.0067 -1.3645  2.9307
 6343TIP3   OH218992   5.587   0.572   3.344  0.1528  0.2500 -0.2221
 6343TIP3    H118993   5.606   0.652   3.295 -0.7899  0.4720 -0.2459
 6343TIP3    H218994   5.513   0.532   3.298 -1.0133  0.6683  1.2036
 6344TIP3   OH218995   3.926   5.239   3.325 -0.3813  0.1075  0.1673
 6344TIP3    H118996   3.994   5.306   3.320 -0.5195  0.4320  2.0287
 6344TIP3    H218997   3.849   5.281   3.286  0.1662  0.1369 -0.9215
 6345TIP3   OH218998   2.168   2.271   0.072  0.1354 -0.4000  0.4056
 6345TIP3    H118999   2.219   2.210   0.125 -0.7373 -1.6034 -0.0831
 6345TIP3    H219000   2.112   2.317   0.135 -0.2739 -1.1987  0.6420
 6346TIP3   OH219001   5.347   5.884   2.916  0.1953 -0.5393  0.2036
 6346TIP3    H119002   5.324   5.911   2.827  0.1261  1.0666  0.6701
 6346TIP3    H219003   5.266   5.892   2.966 -0.3639 -3.7471 -0.0396
 6347TIP3   OH219004   2.544   5.972   1.317 -0.0316 -0.1018  0.2587
 6347TIP3    H119005   2.523   5.937   1.230 -0.3051  0.2781  0.1697
 6347TIP3    H219006   2.464   6.017   1.345  0.8096  1.9118 -0.3518
 6348TIP3   OH219007   0.557   2.683   3.876  0.2813  0.1011 -0.2446
 6348TIP3    H119008   0.563   2.759   3.934  0.4201 -0.7707  0.9264
 6348TIP3    H219009   0.645   2.675   3.838 -0.1075  1.3341 -1.4768
 6349TIP3   OH219010   6.136   3.936   0.320  0.5282 -0.1371 -0.2252
 6349TIP3    H119011   6.220   3.976   0.296  1.2659  0.4444  2.8229
 6349TIP3    H219012   6.157   3.844   0.338 -0.0848 -0.6657 -2.0344
 6350TIP3   OH219013   1.237   2.131   2.501 -0.2795 -0.6458  0.3185
 6350TIP3    H119014   1.231   2.106   2.593 -0.4998  1.0568  0.7935
 6350TIP3    H219015   1.147   2.154   2.476 -0.1875 -0.8991 -0.2726
 6351TIP3   OH219016   4.577   1.062   4.091 -0.1626 -0.2583  0.6202
 6351TIP3    H119017   4.522   1.077   4.168 -1.3247  0.4716 -0.3129
 6351TIP3    H219018   4.665   1.089   4.119 -1.1264  3.2208  0.7404
 6352TIP3   OH219019   0.461   1.567   4.318  0.0134 -0.6257  0.2324
 6352TIP3    H119020   0.489   1.512   4.245 -1.3041 -2.5638  1.1297
 6352TIP3    H219021   0.366   1.562   4.318 -0.2022  1.9184  0.2101
 6353TIP3   OH219022   0.533   0.839   5.646  0.3520 -0.3844  0.2840
 6353TIP3    H119023   0.486   0.856   5.727 -0.2789  2.1536 -0.5249
 6353TIP3    H219024   0.535   0.743   5.638 -1.7140 -0.6254  2.0312
 6354TIP3   OH219025   5.703   4.459   5.351  0.1208 -0.3283  0.0205
 6354TIP3    H119026   5.783   4.483   5.397  0.6142 -0.9511 -0.4949
 6354TIP3    H219027   5.643   4.431   5.421  0.1898  0.5493  0.4478
 6355TIP3   OH219028   3.503   4.620   2.929  0.2534 -0.2935  0.4582
 6355TIP3    H119029   3.421   4.572   2.915  0.5546 -1.6044  2.7594
 6355TIP3    H219030   3.489   4.668   3.011  0.9409  1.4912 -0.4132
 6356TIP3   OH219031   2.306   2.022   0.138  0.1350 -0.1858 -0.0424
 6356TIP3    H119032   2.230   1.965   0.126 -1.2456  1.5055  0.3019
 6356TIP3    H219033   2.375   1.980   0.086 -0.7316 -2.2459  0.3447
 6357TIP3   OH219034   1.748   4.691   3.463  0.0381  0.3222  0.0070
 6357TIP3    H119035   1.757   4.628   3.391  1.4918  1.6206 -1.0357
 6357TIP3    H219036   1.795   4.651   3.536  2.2519  0.7653 -1.0874
 6358TIP3   OH219037   4.731   4.232   1.336 -0.0863 -0.5957 -0.3820
 6358TIP3    H119038   4.750   4.211   1.245 -1.9718  0.0320 -0.9596
 6358TIP3    H219039   4.719   4.147   1.378  2.0637 -0.9553 -0.3507
 6359TIP3   OH219040   1.238   4.639   3.118  0.2056 -0.5853  0.3317
 6359TIP3    H119041   1.223   4.555   3.161  0.3065 -0.9047 -0.2425
 6359TIP3    H219042   1.301   4.619   3.049 -1.1299 -0.4038 -0.9740
 6360TIP3   OH219043   2.838   3.462   2.974  0.1467  0.3817 -0.0026
 6360TIP3    H119044   2.895   3.477   2.899 -0.0812 -1.0893 -0.5190
 6360TIP3    H219045   2.772   3.400   2.942 -1.3781  1.5377  0.7547
 6361TIP3   OH219046   1.402   5.713   0.025 -0.0290 -0.0934  0.1212
 6361TIP3    H119047   1.433   5.712  -0.065  0.9165 -0.6939  0.4376
 6361TIP3    H219048   1.392   5.806   0.046  1.7014  0.1376  0.0347
 6362TIP3   OH219049   6.167   6.207   0.038 -0.0171 -0.6300 -0.5550
 6362TIP3    H119050   6.262   6.220   0.038 -0.1452  0.5134 -1.4451
 6362TIP3    H219051   6.139   6.238  -0.048 -1.5370  1.8666  0.7215
 6363TIP3   OH219052   6.156   4.675   5.605  0.1717 -0.0748  0.3209
 6363TIP3    H119053   6.222   4.616   5.570 -0.0004 -0.0381 -0.0755
 6363TIP3    H219054   6.206   4.745   5.647  0.3750 -0.3838  0.5891
 6364TIP3   OH219055   2.352   3.154   1.517 -0.1101  0.0461 -0.3183
 6364TIP3    H119056   2.261   3.176   1.540  0.1952 -0.2514  1.3024
 6364TIP3    H219057   2.345   3.070   1.471 -0.6720  0.0863 -0.3151
 6365TIP3   OH219058   1.782   1.977   2.030 -0.1130  0.1760 -0.0154
 6365TIP3    H119059   1.828   1.986   2.113  1.8648 -1.2381 -0.8613
 6365TIP3    H219060   1.753   1.885   2.028  1.4380 -0.3357 -1.5634
 6366TIP3   OH219061   1.098   1.612   4.821  0.3340  0.0601  0.0606
 6366TIP3    H119062   1.169   1.644   4.766  0.5784 -0.6149 -0.0324
 6366TIP3    H219063   1.141   1.555   4.885 -0.3260 -2.2093 -1.4069
 6367TIP3   OH219064   1.285   1.795   1.392 -0.3046  0.2774  0.4812
 6367TIP3    H119065   1.237   1.713   1.386 -0.7055  0.5758 -0.6070
 6367TIP3    H219066   1.323   1.807   1.305  1.3311  0.3095  1.1609
 6368TIP3   OH219067   3.697   2.621   3.286 -0.1189 -0.5256 -0.1782
 6368TIP3    H119068   3.691   2.636   3.192  0.2492 -0.9127 -0.2684
 6368TIP3    H219069   3.617   2.573   3.308 -1.5889  1.9546  0.2166
 6369TIP3   OH219070   3.028   6.553   2.845  0.4390 -0.2175  0.3443
 6369TIP3    H119071   2.981   6.501   2.781  2.2375 -0.6802 -0.6817
 6369TIP3    H219072   2.979   6.634   2.851  0.7269  0.2597 -2.4018
 6370TIP3   OH219073   6.766   5.180   0.018 -0.0976 -0.0703 -0.2846
 6370TIP3    H119074   6.766   5.119   0.092  1.4013 -0.1519 -0.3190
 6370TIP3    H219075   6.837   5.149  -0.038  1.7942  2.5451  0.4424
 6371TIP3   OH219076   6.969   2.590   0.361  0.1238 -0.1571 -0.5976
 6371TIP3    H119077   6.953   2.547   0.277  0.4352  0.0984 -0.7900
 6371TIP3    H219078   7.038   2.538   0.402  0.4502  0.1079 -0.7995
 6372TIP3   OH219079   4.383   0.688   3.871  0.1701  0.1143  0.3638
 6372TIP3    H119080   4.432   0.709   3.950 -0.0507 -2.2726  1.2285
 6372TIP3    H219081   4.291   0.694   3.898  0.0952 -1.2000  0.5039
 6373TIP3   OH219082   6.870   1.917   3.866  0.1151 -0.3305  0.0347
 6373TIP3    H119083   6.921   1.952   3.793  0.7410 -0.9832  0.1392
 6373TIP3    H219084   6.827   1.993   3.904 -1.4883 -0.1617 -1.9498
 6374TIP3   OH219085   5.112   5.978   2.380 -0.2234  0.3784  0.7235
 6374TIP3    H119086   5.129   6.072   2.392 -0.9801  0.5921  0.2169
 6374TIP3    H219087   5.054   5.955   2.452 -0.8680  0.5456  0.2680
 6375TIP3   OH219088   5.435   6.235   4.874 -0.6123 -0.2383  0.2520
 6375TIP3    H119089   5.351   6.266   4.839 -0.5215  0.0995  0.3280
 6375TIP3    H219090   5.422   6.141   4.887 -0.9162 -0.2226  0.0819
 6376TIP3   OH219091   5.817   2.196   0.025  0.1603 -0.5113  0.8434
 6376TIP3    H119092   5.908   2.213   0.050  0.5202  1.5740 -1.4715
 6376TIP3    H219093   5.772   2.278   0.043 -0.0395  0.3395 -2.7017
 6377TIP3   OH219094   0.103   5.304   4.272 -0.0213 -0.9991  0.7544
 6377TIP3    H119095   0.023   5.320   4.323 -0.2247  2.8560 -0.4723
 6377TIP3    H219096   0.167   5.365   4.308  0.9537 -0.8030 -1.2009
 6378TIP3   OH219097   6.722   0.709   0.611  0.1614  0.1495 -0.2038
 6378TIP3    H119098   6.810   0.740   0.631 -0.0546  0.6872 -0.0908
 6378TIP3    H219099   6.723   0.692   0.516  0.3062  0.3995 -0.2458
 6379TIP3   OH219100   3.868   3.047   1.830  0.1508 -0.4553  0.1299
 6379TIP3    H119101   3.909   2.978   1.778  0.0245  0.3041 -1.0210
 6379TIP3    H219102   3.936   3.113   1.842 -0.3146  0.1871 -0.6249
 6380TIP3   OH219103   1.472   5.276   4.213  0.0641  0.0596 -0.3257
 6380TIP3    H119104   1.424   5.279   4.131 -0.3625 -0.2032 -0.0876
 6380TIP3    H219105   1.458   5.187   4.246 -0.0237  0.2593  0.1836
 6381TIP3   OH219106   1.314   0.298   5.661 -0.3473 -0.0470 -0.5888
 6381TIP3    H119107   1.375   0.360   5.701  0.1858 -0.7683 -0.2511
 6381TIP3    H219108   1.331   0.215   5.707 -0.3277 -0.6856 -1.7166
 6382TIP3   OH219109   0.147   3.964   0.083  0.0370  0.6034 -0.1481
 6382TIP3    H119110   0.103   3.896   0.032  0.1532  0.7597 -0.4599
 6382TIP3    H219111   0.210   4.004   0.021  0.2843  0.6928  0.1584
 6383TIP3   OH219112   4.653   4.680   0.288  0.4835  0.2511  0.0511
 6383TIP3    H119113   4.712   4.690   0.362  1.0363  0.3635 -0.3948
 6383TIP3    H219114   4.710   4.688   0.211  0.3633 -2.2699 -0.4033
 6384TIP3   OH219115   6.072   2.500   0.461  0.7225 -0.1035 -0.0409
 6384TIP3    H119116   6.162   2.466   0.462 -0.0511 -2.3568  2.1902
 6384TIP3    H219117   6.024   2.438   0.406  0.2556  0.3395 -0.1427
 6385TIP3   OH219118   6.666   4.726   5.008  0.0562  0.8448  0.4776
 6385TIP3    H119119   6.614   4.658   5.052  0.2253  0.1493 -0.3610
 6385TIP3    H219120   6.740   4.678   4.971  0.1981  1.4997 -0.1032
 6386TIP3   OH219121   4.892   2.629   3.570 -0.3767  0.6875 -0.0378
 6386TIP3    H119122   4.866   2.578   3.494  0.8634  0.1589 -0.1294
 6386TIP3    H219123   4.882   2.569   3.644 -0.0556  0.6947  0.0108
 6387TIP3   OH219124   4.205   6.145   3.979 -0.4811 -0.6407 -0.0400
 6387TIP3    H119125   4.291   6.185   3.976 -0.7322 -0.0546  0.5303
 6387TIP3    H219126   4.219   6.056   3.946 -0.0499  0.1129 -2.0402
 6388TIP3   OH219127   0.532   3.811   1.312 -0.1257  0.5119 -0.0159
 6388TIP3    H119128   0.479   3.799   1.391  0.3792 -0.6629  0.1585
 6388TIP3    H219129   0.470   3.847   1.247 -1.3704 -1.5137 -0.0511
 6389TIP3   OH219130   2.463   4.719   1.502  0.7362 -0.0090  0.0041
 6389TIP3    H119131   2.397   4.659   1.535  1.0843 -0.9692 -0.9936
 6389TIP3    H219132   2.458   4.795   1.561 -0.0348 -0.8003  0.9970
 6390TIP3   OH219133   1.696   5.268   1.912  0.5655 -0.1236 -0.3505
 6390TIP3    H119134   1.641   5.235   1.841 -0.7945  2.2148 -0.5212
 6390TIP3    H219135   1.785   5.264   1.878 -0.1150  1.6841 -2.6021
 6391TIP3   OH219136   2.928   0.626   1.137  0.4339  0.0235  0.4000
 6391TIP3    H119137   2.935   0.717   1.108  0.3377 -0.0748  0.0640
 6391TIP3    H219138   3.019   0.595   1.141  0.3860 -0.7618 -2.3809
 6392TIP3   OH219139   3.113   6.051   1.747  0.2222  0.7432  0.1649
 6392TIP3    H119140   3.070   6.059   1.832  1.9099 -0.1859  1.1711
 6392TIP3    H219141   3.164   6.132   1.739  1.5221  0.0438  0.9565
 6393TIP3   OH219142   0.250   3.981   0.923 -0.3458 -0.2412 -0.7559
 6393TIP3    H119143   0.162   4.015   0.907 -0.0605  0.6118 -0.5578
 6393TIP3    H219144   0.297   4.053   0.963  0.1791 -0.9898  0.0211
 6394TIP3   OH219145   5.319   5.795   5.718  0.0099 -0.3436 -0.2845
 6394TIP3    H119146   5.275   5.711   5.712 -0.3854 -0.1508 -0.1313
 6394TIP3    H219147   5.365   5.792   5.803 -1.5815  0.3281  0.6480
 6395TIP3   OH219148   2.774   4.902   4.442  0.5492 -0.5423 -0.1416
 6395TIP3    H119149   2.713   4.833   4.468  2.3145 -1.7540  1.0557
 6395TIP3    H219150   2.772   4.902   4.346 -0.7766 -1.0183 -0.1286
 6396TIP3   OH219151   5.228   2.032   1.174  0.2499 -0.1939 -0.1915
 6396TIP3    H119152   5.190   2.115   1.145  0.2896 -0.3401 -0.6700
 6396TIP3    H219153   5.219   2.033   1.269 -1.9715 -0.7096 -0.3429
 6397TIP3   OH219154   7.049   2.284   4.431 -0.1941  0.1324  0.1726
 6397TIP3    H119155   6.954   2.289   4.439 -0.0960  0.7936  1.0633
 6397TIP3    H219156   7.066   2.198   4.395 -1.1719  0.2875 -0.6864
 6398TIP3   OH219157   5.032   5.570   0.972 -0.1740  0.4362  0.4453
 6398TIP3    H119158   5.055   5.565   1.065 -0.0343  1.1223  0.4580
 6398TIP3    H219159   5.080   5.498   0.932 -1.8781 -1.2052  1.1989
 6399TIP3   OH219160   3.086   2.596   1.805 -0.1338  0.0877  0.6384
 6399TIP3    H119161   3.100   2.683   1.842  0.6735 -0.1429  0.8932
 6399TIP3    H219162   3.098   2.536   1.878  0.1274 -0.2879  0.2951
 6400TIP3   OH219163   6.591   2.198   0.124  0.1200 -0.8233 -0.0423
 6400TIP3    H119164   6.574   2.250   0.203  0.4309 -0.9892  0.1337
 6400TIP3    H219165   6.686   2.198   0.115  0.0257  0.9170 -1.5800
 6401TIP3   OH219166   1.239   3.955   4.536  0.2126 -0.3602  0.3575
 6401TIP3    H119167   1.258   3.874   4.583  1.5794  0.6657  1.6502
 6401TIP3    H219168   1.315   3.967   4.479  1.2407  1.2273  1.9642
 6402TIP3   OH219169   2.511   6.014   2.449 -0.0114 -0.2267  0.8057
 6402TIP3    H119170   2.591   6.054   2.414  0.0124 -1.1962 -0.2824
 6402TIP3    H219171   2.442   6.075   2.424  0.0878 -0.5838 -0.4317
 6403TIP3   OH219172   3.107   1.791   2.269  0.6065  0.6426 -0.1860
 6403TIP3    H119173   3.068   1.740   2.198  0.1338  2.4565 -1.3018
 6403TIP3    H219174   3.105   1.733   2.344 -0.9546 -0.5808 -1.1138
 6404TIP3   OH219175   0.916   2.897   1.955  0.1993  0.0877  0.2514
 6404TIP3    H119176   0.848   2.962   1.934  0.0040 -0.4588 -0.8792
 6404TIP3    H219177   0.879   2.845   2.025 -0.0789  0.5148  0.4283
 6405TIP3   OH219178   1.102   0.378   4.407  0.2973  0.4436 -0.2513
 6405TIP3    H119179   1.101   0.456   4.461 -0.4640  0.2736 -0.0099
 6405TIP3    H219180   1.013   0.369   4.375  0.5555  0.1030 -0.9041
 6406TIP3   OH219181   5.247   4.616   2.936 -0.4922  0.1102  0.1125
 6406TIP3    H119182   5.220   4.681   3.001  2.1085  0.3756  1.0598
 6406TIP3    H219183   5.303   4.555   2.985  1.4679  0.2574 -1.7936
 6407TIP3   OH219184   6.061   3.949   3.661  0.7337  0.2410  0.1075
 6407TIP3    H119185   6.040   4.028   3.610 -1.5429 -0.1466  0.3443
 6407TIP3    H219186   5.979   3.900   3.664  1.2144 -0.5599  2.7348
 6408TIP3   OH219187   5.458   4.750   2.639 -0.3081 -0.9480  0.4708
 6408TIP3    H119188   5.454   4.845   2.655  1.5904 -0.7105 -0.1615
 6408TIP3    H219189   5.372   4.717   2.666 -2.3085  1.4086 -2.2770
 6409TIP3   OH219190   4.499   6.087   3.880  0.1689 -0.2852 -0.2501
 6409TIP3    H119191   4.458   6.000   3.875 -0.2655 -0.1156  0.2625
 6409TIP3    H219192   4.578   6.080   3.826  0.5781 -1.2396  0.4477
 6410TIP3   OH219193   2.017   3.109   4.462 -0.1139  0.0493  0.0485
 6410TIP3    H119194   2.074   3.059   4.521  1.2020  2.4560  1.0029
 6410TIP3    H219195   1.929   3.098   4.498  0.1769 -1.2690  0.3990
 6411TIP3   OH219196   2.272   3.406   0.021 -0.0438  0.0936 -0.0861
 6411TIP3    H119197   2.297   3.344  -0.048  0.5558 -0.9101  0.9937
 6411TIP3    H219198   2.203   3.362   0.070 -0.2150  0.6468  0.1821
 6412TIP3   OH219199   3.927   2.262   1.011 -0.1961 -0.1908 -0.0097
 6412TIP3    H119200   3.943   2.169   1.020  0.6273 -0.0179  0.4040
 6412TIP3    H219201   3.971   2.302   1.087 -0.8694  0.4983  0.0396
 6413TIP3   OH219202   2.636   1.278   1.435  0.5942  0.4477  0.7122
 6413TIP3    H119203   2.585   1.217   1.382  1.0949 -0.1710  0.9302
 6413TIP3    H219204   2.627   1.245   1.524  1.1299  0.5071  0.7895
 6414TIP3   OH219205   0.740   1.771   0.863  0.3765  0.5234  0.4118
 6414TIP3    H119206   0.786   1.691   0.839  0.3657 -0.0378  2.1275
 6414TIP3    H219207   0.804   1.821   0.914 -0.4029  0.4537  1.4824
 6415TIP3   OH219208   1.330   4.842   4.932  0.4262  0.4785  0.0024
 6415TIP3    H119209   1.301   4.758   4.970  0.2979 -0.2451 -1.6359
 6415TIP3    H219210   1.405   4.867   4.986 -1.0691  0.6355  2.1374
 6416TIP3   OH219211   5.283   3.672   2.373  0.1462 -0.4183 -0.5086
 6416TIP3    H119212   5.219   3.730   2.331  0.1881  0.5631  0.6980
 6416TIP3    H219213   5.358   3.673   2.314  0.5195  1.5865 -0.0869
 6417TIP3   OH219214   1.005   3.230  -0.011  0.3993 -0.7858 -0.0415
 6417TIP3    H119215   1.097   3.203  -0.009  0.7376  0.2169 -1.0582
 6417TIP3    H219216   1.004   3.314   0.035  0.6391  0.8844 -2.8625
 6418TIP3   OH219217   3.368   3.651   4.090  0.2361 -0.0199  0.4698
 6418TIP3    H119218   3.443   3.605   4.052 -0.3901 -0.5240 -0.1792
 6418TIP3    H219219   3.402   3.690   4.170  1.7271  1.5657 -0.8810
 6419TIP3   OH219220   3.804   6.733   5.709 -0.5406  0.1097  0.8322
 6419TIP3    H119221   3.772   6.681   5.635 -0.6764  1.8723 -0.4119
 6419TIP3    H219222   3.892   6.760   5.683 -0.4877  0.5206  1.4294
 6420TIP3   OH219223   0.371   3.626   2.386  0.1074 -0.1018 -0.3875
 6420TIP3    H119224   0.399   3.536   2.398  1.9169  0.3316 -1.0251
 6420TIP3    H219225   0.313   3.624   2.310 -0.7518 -0.8759  0.2808
 6421TIP3   OH219226   1.078   5.051   4.535 -0.3174 -0.2036  0.3134
 6421TIP3    H119227   1.036   5.109   4.471 -0.5415  0.0783  0.7103
 6421TIP3    H219228   1.019   4.976   4.542 -0.6835  0.1237  0.7619
 6422TIP3   OH219229   5.843   3.874   2.655  0.4291  0.0308 -0.2249
 6422TIP3    H119230   5.805   3.961   2.655  0.9055  0.2422 -0.5249
 6422TIP3    H219231   5.937   3.888   2.656  0.5567 -0.5064  2.5907
 6423TIP3   OH219232   5.126   6.601   2.107 -0.2281 -0.1957  0.0935
 6423TIP3    H119233   5.152   6.542   2.178 -2.6233 -2.6141 -0.8618
 6423TIP3    H219234   5.055   6.653   2.143 -0.0784  0.0385  0.0557
 6424TIP3   OH219235   0.394   3.411   1.622 -0.3298 -0.0719  0.5040
 6424TIP3    H119236   0.329   3.480   1.607 -2.1697 -1.8878 -0.3598
 6424TIP3    H219237   0.471   3.440   1.574 -1.1423  1.2536 -0.0569
 6425TIP3   OH219238   4.455   6.457   0.483 -0.4814 -0.1688 -0.3678
 6425TIP3    H119239   4.392   6.452   0.556  0.8685  2.2284  1.0889
 6425TIP3    H219240   4.528   6.402   0.511 -0.4301 -0.1271 -0.4214
 6426TIP3   OH219241   5.064   2.696   5.814  0.4744 -0.0261  0.4824
 6426TIP3    H119242   5.026   2.784   5.816 -0.3278 -0.3141 -0.7360
 6426TIP3    H219243   5.053   2.664   5.903 -2.2893 -0.1114  0.2120
 6427TIP3   OH219244   0.701   6.524   2.403 -0.6839  0.0195  0.0941
 6427TIP3    H119245   0.776   6.508   2.345  0.6564 -2.5015  2.3223
 6427TIP3    H219246   0.707   6.617   2.424  1.2253  0.0965 -0.5902
 6428TIP3   OH219247   6.542   4.437   5.215  0.0423  0.3078  0.1966
 6428TIP3    H119248   6.547   4.513   5.274  0.2032  0.1817  0.3456
 6428TIP3    H219249   6.461   4.393   5.240  0.5837 -0.2699  0.9619
 6429TIP3   OH219250   4.438   6.546   2.017  0.0679 -0.4451 -0.2708
 6429TIP3    H119251   4.357   6.503   2.045 -0.5977 -0.8584 -2.6203
 6429TIP3    H219252   4.421   6.572   1.926  2.7394 -0.9871 -1.0023
 6430TIP3   OH219253   4.736   1.453   1.039  0.0319 -0.4762  0.1026
 6430TIP3    H119254   4.765   1.543   1.022 -1.0930 -0.2167 -0.5532
 6430TIP3    H219255   4.743   1.443   1.133 -2.9799  1.4890  0.6761
 6431TIP3   OH219256   5.626   3.647   1.012  0.4430 -0.1653 -0.0945
 6431TIP3    H119257   5.584   3.578   0.961 -2.4310  2.5108 -1.6759
 6431TIP3    H219258   5.570   3.658   1.089 -0.9568  2.2600 -1.3366
 6432TIP3   OH219259   5.607   6.239   3.427 -0.4967  0.2239  0.3290
 6432TIP3    H119260   5.602   6.279   3.514 -0.3185 -0.0285  0.4553
 6432TIP3    H219261   5.691   6.268   3.391 -0.1111 -0.4760  0.6416
 6433TIP3   OH219262   0.356   3.856   3.173 -0.5327 -0.1857  0.2019
 6433TIP3    H119263   0.325   3.770   3.200  2.6459 -2.0055 -1.3277
 6433TIP3    H219264   0.403   3.890   3.249 -0.2374 -0.6569  0.2307
 6434TIP3   OH219265   6.797   4.400   0.419 -0.3071  0.2469 -0.2553
 6434TIP3    H119266   6.866   4.357   0.469  0.8245  1.4270 -0.7303
 6434TIP3    H219267   6.777   4.478   0.469  0.9791  1.5457 -1.6480
 6435TIP3   OH219268   5.877   3.270   4.081  0.0158  0.4054 -0.0797
 6435TIP3    H119269   5.905   3.288   3.992  0.1826 -0.4591 -0.2079
 6435TIP3    H219270   5.927   3.192   4.107  0.4264  0.9898  0.9825
 6436TIP3   OH219271   2.071   4.478   1.379 -0.0013  0.8538  0.1801
 6436TIP3    H119272   2.120   4.520   1.308  0.6381  0.9910  0.6922
 6436TIP3    H219273   1.984   4.517   1.374  0.0508  0.8958 -0.5018
 6437TIP3   OH219274   5.771   1.425   4.055 -0.6680 -0.3979 -0.2348
 6437TIP3    H119275   5.731   1.405   3.971 -0.2244  1.7552 -1.0298
 6437TIP3    H219276   5.865   1.424   4.038 -0.5286 -1.0179  0.5175
 6438TIP3   OH219277   0.757   1.175   5.148 -0.4105  0.0360  0.0069
 6438TIP3    H119278   0.842   1.211   5.122  0.2874 -1.3549  0.2408
 6438TIP3    H219279   0.766   1.080   5.134 -1.1055 -0.4178  2.2298
 6439TIP3   OH219280   6.144   4.612   4.665  0.1273 -0.3399  0.2111
 6439TIP3    H119281   6.111   4.523   4.671  0.9569 -0.8615 -2.0538
 6439TIP3    H219282   6.066   4.667   4.671 -0.6192 -1.3142 -0.2934
 6440TIP3   OH219283   5.426   5.888   4.150  0.0070 -0.2588  0.3479
 6440TIP3    H119284   5.388   5.822   4.208  0.4856 -0.0450  0.9134
 6440TIP3    H219285   5.404   5.971   4.191  1.6035 -0.1388  1.0403
 6441TIP3   OH219286   5.651   0.752   1.666 -0.4143  0.0194  0.6388
 6441TIP3    H119287   5.700   0.784   1.742 -0.0128  1.1115 -0.0517
 6441TIP3    H219288   5.581   0.816   1.655 -0.7495 -0.3924  0.3642
 6442TIP3   OH219289   1.071   3.492   0.093 -0.0849  0.8431 -0.0375
 6442TIP3    H119290   1.119   3.480   0.175  1.0175  1.3954 -0.5843
 6442TIP3    H219291   1.136   3.474   0.024 -1.7262 -2.8567 -0.8858
 6443TIP3   OH219292   1.265   6.281   5.264 -0.4925  0.0512  0.5922
 6443TIP3    H119293   1.220   6.231   5.331 -2.8044  0.9063 -0.2293
 6443TIP3    H219294   1.199   6.298   5.197  1.2816  0.6517 -1.1300
 6444TIP3   OH219295   2.977   6.665   1.694 -0.4533  0.2805  0.7504
 6444TIP3    H119296   2.932   6.748   1.711 -0.8921  0.4475 -1.0196
 6444TIP3    H219297   2.906   6.601   1.689 -0.3148  0.1660  0.1309
 6445TIP3   OH219298   4.513   1.921   3.713  0.2312  0.0337  0.4581
 6445TIP3    H119299   4.551   1.989   3.768 -0.8491  1.2455 -0.2314
 6445TIP3    H219300   4.539   1.944   3.624 -1.5944  0.6173  0.0224
 6446TIP3   OH219301   3.179   3.616   1.031  0.1334  0.3885 -0.3104
 6446TIP3    H119302   3.132   3.698   1.022  1.1409  0.9547 -0.5593
 6446TIP3    H219303   3.271   3.639   1.019  0.6280 -0.4561  1.5413
 6447TIP3   OH219304   6.087   1.040   1.672  0.3501  0.8317  0.3683
 6447TIP3    H119305   6.149   1.056   1.744  0.7753  1.0110 -0.0288
 6447TIP3    H219306   6.001   1.039   1.714  0.3697  3.1370  0.6049
 6448TIP3   OH219307   1.656   0.271   3.724  0.2561  0.2068  0.2140
 6448TIP3    H119308   1.610   0.208   3.669  0.9394  0.3224 -0.5133
 6448TIP3    H219309   1.604   0.351   3.717 -1.0404 -0.4643  1.7594
 6449TIP3   OH219310   3.268   4.170   2.666  0.0548  0.2696 -0.3396
 6449TIP3    H119311   3.322   4.235   2.620  0.7305 -0.4020 -0.5308
 6449TIP3    H219312   3.278   4.192   2.759 -0.2696  0.8451 -0.4378
 6450TIP3   OH219313   1.687   3.725   3.704  0.4277  0.4943 -0.5397
 6450TIP3    H119314   1.657   3.640   3.673 -0.6378  1.1873 -1.5113
 6450TIP3    H219315   1.626   3.788   3.664  0.4278  1.6268  1.1358
 6451TIP3   OH219316   3.703   4.850   2.197 -0.6867  0.1461 -0.2349
 6451TIP3    H119317   3.740   4.798   2.269 -2.9384  0.4760  1.2415
 6451TIP3    H219318   3.610   4.831   2.199 -1.1879  2.2082 -1.4105
 6452TIP3   OH219319   1.004   1.799   4.158  0.0479 -0.2134  0.1682
 6452TIP3    H119320   1.042   1.746   4.229 -1.1034 -1.1230  0.1414
 6452TIP3    H219321   1.078   1.817   4.100  0.6100 -1.2245  0.5365
 6453TIP3   OH219322   3.715   2.789   2.310 -0.3185 -0.2095 -0.1099
 6453TIP3    H119323   3.781   2.744   2.257  0.2251  0.1915  0.2105
 6453TIP3    H219324   3.747   2.782   2.400 -1.5143 -1.3628  0.2541
 6454TIP3   OH219325   1.421   2.284   1.685  0.7654 -0.3459 -0.3546
 6454TIP3    H119326   1.441   2.204   1.733  0.8002 -1.0536 -1.4872
 6454TIP3    H219327   1.467   2.353   1.732  0.7988 -1.0002  0.6066
 6455TIP3   OH219328   4.481   2.227   3.547 -0.0773 -0.1774  0.2833
 6455TIP3    H119329   4.445   2.315   3.539 -0.4278 -0.4815 -3.1995
 6455TIP3    H219330   4.405   2.169   3.544  0.2631 -0.6563  0.6675
 6456TIP3   OH219331   0.570   5.334   3.314 -0.4816 -0.0381 -0.0507
 6456TIP3    H119332   0.661   5.345   3.343 -0.4018  0.2977 -0.4182
 6456TIP3    H219333   0.570   5.249   3.269 -0.9613 -1.3636  2.2579
 6457TIP3   OH219334   5.631   2.127   3.512  0.1942 -0.3248 -0.5371
 6457TIP3    H119335   5.714   2.157   3.474  1.3048 -0.4602  1.6211
 6457TIP3    H219336   5.579   2.206   3.523  1.1036  0.1569  0.4724
 6458TIP3   OH219337   2.633   3.991   2.617  0.5526 -0.2616 -0.4809
 6458TIP3    H119338   2.582   3.985   2.537  2.2785  0.3659 -1.6868
 6458TIP3    H219339   2.721   3.965   2.592  1.1874  0.1476  1.1683
 6459TIP3   OH219340   4.670   2.693   4.601 -0.0279  0.1589  0.3299
 6459TIP3    H119341   4.705   2.609   4.572  1.4787  1.1539 -0.8455
 6459TIP3    H219342   4.743   2.737   4.644 -0.1881  1.6744 -0.8432
 6460TIP3   OH219343   0.331   2.756   1.292 -0.2824  0.7409  0.0327
 6460TIP3    H119344   0.343   2.851   1.284 -0.8152  0.7708 -0.5282
 6460TIP3    H219345   0.396   2.719   1.231  0.2861  0.7212  0.6428
 6461TIP3   OH219346   5.452   5.181   2.098  0.3142 -0.7151 -0.4279
 6461TIP3    H119347   5.485   5.172   2.008  1.1138 -0.3757 -0.1784
 6461TIP3    H219348   5.507   5.249   2.137  0.8079 -1.7278  0.7139
 6462TIP3   OH219349   1.232   4.826   0.056 -0.1088  0.5031 -0.3456
 6462TIP3    H119350   1.217   4.920   0.044  0.2159  1.0418  2.7905
 6462TIP3    H219351   1.145   4.791   0.078  0.1293  0.4441  0.5088
 6463TIP3   OH219352   3.364   5.479   5.724 -0.1267 -0.4797  0.2526
 6463TIP3    H119353   3.326   5.392   5.738 -0.3587 -0.6883 -1.4215
 6463TIP3    H219354   3.458   5.464   5.725 -0.1410 -1.2074 -2.1449
 6464TIP3   OH219355   4.479   3.105   0.079  0.4649  0.0827  0.0962
 6464TIP3    H119356   4.417   3.050   0.127  0.1845  1.2454  1.1150
 6464TIP3    H219357   4.547   3.126   0.143  1.4305 -0.3879 -0.7400
 6465TIP3   OH219358   4.064   4.674   4.391 -0.6202 -0.3076  0.2240
 6465TIP3    H119359   4.090   4.619   4.465 -0.2591  0.5864  0.7907
 6465TIP3    H219360   4.026   4.752   4.432 -1.3368 -0.2372 -0.5588
 6466TIP3   OH219361   3.785   5.551   4.772 -0.2530  0.4440 -0.2881
 6466TIP3    H119362   3.737   5.571   4.852 -0.0716 -0.6646  0.1047
 6466TIP3    H219363   3.870   5.594   4.784  0.0779 -0.3943  0.4814
 6467TIP3   OH219364   1.089   3.846   2.014  0.2609  0.4041 -0.1413
 6467TIP3    H119365   1.092   3.831   2.108 -0.8308  3.0814  0.4021
 6467TIP3    H219366   1.004   3.887   1.999  1.1940  1.7863 -1.9857
 6468TIP3   OH219367   5.464   6.552   0.448  0.1064 -0.5452  0.6652
 6468TIP3    H119368   5.443   6.460   0.463  0.8623 -0.8087  0.2026
 6468TIP3    H219369   5.516   6.578   0.525  2.4493 -1.3835 -0.5430
 6469TIP3   OH219370   3.401   4.624   1.963  0.6938  0.3723  0.1471
 6469TIP3    H119371   3.434   4.688   1.900 -1.9332 -0.1680 -1.9437
 6469TIP3    H219372   3.402   4.541   1.915 -1.1542 -0.1057  0.8781
 6470TIP3   OH219373   6.188   6.449   3.396  0.1616  0.2405 -0.3216
 6470TIP3    H119374   6.199   6.377   3.458 -1.4124 -0.7976 -1.1710
 6470TIP3    H219375   6.133   6.512   3.441  0.7622  0.4804  0.0843
 6471TIP3   OH219376   2.685   3.838   0.606 -0.5140 -0.2120 -0.2965
 6471TIP3    H119377   2.726   3.863   0.523 -0.0084  0.4160  0.1306
 6471TIP3    H219378   2.651   3.920   0.642 -1.1502 -0.5538 -0.1029
 6472TIP3   OH219379   3.948   3.927   4.939  0.2483  0.2347 -0.3035
 6472TIP3    H119380   3.902   3.845   4.958  0.6513 -0.3235 -1.5910
 6472TIP3    H219381   3.885   3.996   4.962 -0.8486 -0.4897 -1.0009
 6473TIP3   OH219382   4.639   4.043   4.539 -0.1571  0.1513  0.3255
 6473TIP3    H119383   4.719   4.000   4.568 -1.3681 -0.8846  2.3557
 6473TIP3    H219384   4.622   4.109   4.605 -0.2661  1.3204 -0.8365
 6474TIP3   OH219385   5.847   4.930   2.553 -0.3493 -0.3982 -0.8334
 6474TIP3    H119386   5.860   4.838   2.576  0.8660 -0.0034  0.1850
 6474TIP3    H219387   5.800   4.966   2.629 -0.4471 -0.0820 -1.0454
 6475TIP3   OH219388   0.283   1.247   4.936  0.1441  0.3426  0.6009
 6475TIP3    H119389   0.286   1.296   4.854  0.6176 -0.6111  0.0223
 6475TIP3    H219390   0.367   1.266   4.979  0.1659  0.3488  0.5557
 6476TIP3   OH219391   4.225   3.609   1.886 -0.5206 -0.2038 -0.4408
 6476TIP3    H119392   4.151   3.649   1.840 -0.6411  0.4406  0.2977
 6476TIP3    H219393   4.223   3.648   1.973  1.6648  1.0591 -0.8983
 6477TIP3   OH219394   6.537   6.164   3.596 -0.0593  0.0417  0.3894
 6477TIP3    H119395   6.600   6.092   3.601  0.5270  0.4217 -1.0643
 6477TIP3    H219396   6.461   6.126   3.551  0.0105  0.1660  0.1655
 6478TIP3   OH219397   5.443   5.253   2.987 -0.4450 -0.2241  0.0404
 6478TIP3    H119398   5.498   5.296   2.921 -1.5634 -0.8497 -1.3794
 6478TIP3    H219399   5.493   5.258   3.068 -0.0003  2.6337 -0.3124
 6479TIP3   OH219400   3.372   0.317   0.658  0.1342 -0.0255 -0.2874
 6479TIP3    H119401   3.412   0.316   0.571  0.1668 -0.0295 -0.2726
 6479TIP3    H219402   3.278   0.327   0.641  0.1140 -0.2902 -0.3314
 6480TIP3   OH219403   1.170   2.218   1.403 -0.4011 -0.8553 -0.6175
 6480TIP3    H119404   1.141   2.302   1.438 -0.5687 -1.4526  0.7140
 6480TIP3    H219405   1.155   2.226   1.308 -0.0377  0.7485 -0.5665
 6481TIP3   OH219406   5.580   5.713   3.042  0.1883  0.6194  0.8302
 6481TIP3    H119407   5.486   5.700   3.058  0.0057  0.1416 -0.5151
 6481TIP3    H219408   5.585   5.737   2.950  1.5117 -0.9259  0.4600
 6482TIP3   OH219409   6.973   4.195   0.608  0.1369 -0.3393 -0.3489
 6482TIP3    H119410   7.034   4.148   0.551  1.0210  0.9214 -0.4779
 6482TIP3    H219411   7.019   4.276   0.631  0.4353 -1.3761  3.3004
 6483TIP3   OH219412   6.787   6.467   3.181  0.3684  0.9430  0.0524
 6483TIP3    H119413   6.873   6.439   3.148 -0.0783  0.7012 -0.9334
 6483TIP3    H219414   6.805   6.497   3.270  1.4264  0.6022 -0.0251
 6484TIP3   OH219415   2.255   4.840   4.818 -0.4885 -0.4337 -0.2792
 6484TIP3    H119416   2.302   4.889   4.750 -0.2843 -0.8898 -0.4712
 6484TIP3    H219417   2.252   4.900   4.892  1.9354 -0.9665  0.3614
 6485TIP3   OH219418   0.010   1.018   0.680 -0.0881  0.6648  0.0809
 6485TIP3    H119419   0.038   1.063   0.760 -1.1767 -0.1799  0.9505
 6485TIP3    H219420  -0.021   1.089   0.622  0.3558  1.2408  0.5381
 6486TIP3   OH219421   6.000   2.785   1.256 -0.3201  0.0878  0.3607
 6486TIP3    H119422   5.915   2.827   1.257 -0.6637 -0.5814  1.3282
 6486TIP3    H219423   5.981   2.693   1.235  0.4384  0.4141 -2.0033
 6487TIP3   OH219424   6.196   0.054   4.452  0.2801  0.8887 -0.0034
 6487TIP3    H119425   6.193   0.130   4.394  0.0708  2.3732  1.8531
 6487TIP3    H219426   6.192   0.091   4.540  0.8502 -1.2543  0.9901
 6488TIP3   OH219427   4.601   3.755   1.157 -0.4997  0.2553 -0.0147
 6488TIP3    H119428   4.600   3.780   1.250 -0.5540 -0.7600  0.2776
 6488TIP3    H219429   4.620   3.836   1.110 -1.3957  0.9808  0.8218
 6489TIP3   OH219430   0.044   4.292   5.592 -0.2904  0.1976  0.5722
 6489TIP3    H119431  -0.041   4.294   5.635 -0.0842  0.2849  0.9830
 6489TIP3    H219432   0.040   4.362   5.527 -0.2061  0.8241  1.2244
 6490TIP3   OH219433   4.107   6.514   3.706 -0.5671  0.0824 -0.1434
 6490TIP3    H119434   4.119   6.607   3.687 -2.0604  0.1169 -1.0863
 6490TIP3    H219435   4.078   6.476   3.623  0.3613 -1.3108  0.1269
 6491TIP3   OH219436   4.836   1.162   3.827  0.0048  0.0595  0.2966
 6491TIP3    H119437   4.746   1.130   3.829 -0.3181  0.9937  0.9298
 6491TIP3    H219438   4.834   1.246   3.873  0.9514  0.7387 -0.8408
 6492TIP3   OH219439   2.893   2.185   0.622 -0.1858  0.1646  0.0212
 6492TIP3    H119440   2.824   2.142   0.572  0.9657 -0.8254 -0.7708
 6492TIP3    H219441   2.910   2.127   0.696  0.4989 -0.1396 -0.3593
 6493TIP3   OH219442   1.412   2.025   3.114 -0.0403 -0.3145  0.2856
 6493TIP3    H119443   1.487   1.992   3.064  0.6764  0.6021  0.7115
 6493TIP3    H219444   1.415   2.120   3.101 -0.1884 -0.1136  1.5572
 6494TIP3   OH219445   6.175   6.404   0.931 -0.2546 -0.3239 -0.0861
 6494TIP3    H119446   6.109   6.341   0.959 -2.4283  2.3306  1.2412
 6494TIP3    H219447   6.125   6.473   0.887  1.6855  1.5717  0.5199
 6495TIP3   OH219448   4.530   1.560   5.833 -0.4375 -0.3036  0.0282
 6495TIP3    H119449   4.612   1.575   5.786 -0.6855  1.6703  0.1408
 6495TIP3    H219450   4.552   1.497   5.902  1.0780  0.4973  0.2984
 6496TIP3   OH219451   3.513   5.470   4.099 -0.0068  0.1050 -0.2144
 6496TIP3    H119452   3.524   5.416   4.020 -1.4077 -0.3716 -0.1097
 6496TIP3    H219453   3.504   5.559   4.065 -2.1400 -0.2608 -0.7652
 6497TIP3   OH219454   1.324   2.652   3.116  0.1826  0.1957  0.4116
 6497TIP3    H119455   1.288   2.660   3.028  1.5228 -2.9323 -0.5831
 6497TIP3    H219456   1.248   2.638   3.172 -0.5732  0.3075 -0.5592
 6498TIP3   OH219457   3.644   1.999   3.864  0.4985  0.6719  0.0728
 6498TIP3    H119458   3.553   2.005   3.836 -0.3919 -1.9063  2.0035
 6498TIP3    H219459   3.646   2.042   3.949  0.8490 -0.0163  0.4259
 6499TIP3   OH219460   6.165   5.918   5.465 -0.5950 -0.2780 -0.3366
 6499TIP3    H119461   6.082   5.928   5.511 -0.4957  0.8877 -0.3867
 6499TIP3    H219462   6.167   5.990   5.402 -0.2683 -1.2524 -1.4876
 6500TIP3   OH219463   6.443   5.217   2.327  0.2862 -0.0656  0.2335
 6500TIP3    H119464   6.356   5.194   2.293  0.8641 -0.5683 -1.0006
 6500TIP3    H219465   6.443   5.186   2.417 -0.7839 -0.1448  0.2140
 6501TIP3   OH219466   1.649   0.087   4.379  0.3204  0.5148  0.0326
 6501TIP3    H119467   1.709   0.155   4.409  0.6164 -0.4943  1.8391
 6501TIP3    H219468   1.706   0.018   4.344  0.1687  0.0113  0.7682
 6502TIP3   OH219469   7.087   1.280   4.820 -0.3876  0.1097 -0.1719
 6502TIP3    H119470   7.163   1.312   4.772 -0.3998 -0.7925 -0.8137
 6502TIP3    H219471   7.123   1.215   4.881 -0.6964 -0.6431 -0.7895
 6503TIP3   OH219472   7.005   5.212   0.454 -0.0677 -0.1459  0.2741
 6503TIP3    H119473   6.945   5.217   0.529  2.1777 -0.9644  2.2643
 6503TIP3    H219474   7.002   5.300   0.416 -2.3415 -0.1145  0.3656
 6504TIP3   OH219475   0.727   5.234   4.240 -0.2809 -0.7487 -0.1656
 6504TIP3    H119476   0.807   5.234   4.292  0.0024  0.1697 -0.5738
 6504TIP3    H219477   0.747   5.177   4.165 -0.3226 -1.2233  0.1805
 6505TIP3   OH219478   2.775   5.734   0.745  0.2389 -0.4321  0.1393
 6505TIP3    H119479   2.736   5.661   0.792  0.1116 -1.1563 -1.0513
 6505TIP3    H219480   2.735   5.731   0.658  0.3189  0.9884  0.0285
 6506TIP3   OH219481   6.202   1.628   5.763 -0.0768 -0.4809 -0.1011
 6506TIP3    H119482   6.289   1.649   5.729 -0.5397 -0.6908 -1.4652
 6506TIP3    H219483   6.192   1.686   5.839 -0.1643  2.2052 -2.0366
 6507TIP3   OH219484   1.441   5.671   3.338 -0.4137 -0.1782 -0.3519
 6507TIP3    H119485   1.403   5.583   3.334  0.8323 -0.7389 -0.1892
 6507TIP3    H219486   1.464   5.691   3.248  0.1062 -0.3876 -0.2682
 6508TIP3   OH219487   6.297   0.262   4.628 -0.3400  0.1483 -0.2733
 6508TIP3    H119488   6.314   0.341   4.679  0.6938 -0.1789 -0.0919
 6508TIP3    H219489   6.367   0.260   4.563 -0.7209 -0.2886 -0.6796
 6509TIP3   OH219490   4.040   1.957   1.363 -0.1983 -0.0034  0.0393
 6509TIP3    H119491   3.964   1.924   1.315 -0.9020  1.7183 -0.0854
 6509TIP3    H219492   4.116   1.919   1.318 -0.9125 -0.1655 -1.0533
 6510TIP3   OH219493   0.530   1.653   2.081 -0.4600 -0.4872 -0.8257
 6510TIP3    H119494   0.455   1.613   2.126  1.4458 -2.8792  0.4696
 6510TIP3    H219495   0.506   1.652   1.989 -1.2997 -3.0312 -0.6507
 6511TIP3   OH219496   4.829   3.364   2.168 -0.4952  0.5204 -0.1147
 6511TIP3    H119497   4.869   3.430   2.224 -1.7201  0.7782  0.4919
 6511TIP3    H219498   4.788   3.302   2.229  1.3517 -1.3266 -0.6290
 6512TIP3   OH219499   5.141   2.836   5.174 -0.3737  0.6259 -0.2130
 6512TIP3    H119500   5.115   2.922   5.142 -0.2821  0.7249 -0.0240
 6512TIP3    H219501   5.061   2.784   5.174 -0.2512  0.4047 -1.2871
 6513TIP3   OH219502   0.029   3.747   0.314  0.4628 -0.5683  0.1103
 6513TIP3    H119503  -0.005   3.758   0.225  0.2608 -0.5222  0.1945
 6513TIP3    H219504   0.052   3.836   0.342  0.0121 -0.5143  0.3126
 6514TIP3   OH219505   6.721   3.892   2.485  0.9419  0.2886 -0.4432
 6514TIP3    H119506   6.791   3.952   2.461 -0.1466  1.3136 -1.1462
 6514TIP3    H219507   6.661   3.893   2.410 -1.3003  1.6771  1.2248
 6515TIP3   OH219508   2.272   5.778   2.373  0.0844  0.1096 -0.5266
 6515TIP3    H119509   2.335   5.708   2.352  0.9388  0.2157  1.4564
 6515TIP3    H219510   2.196   5.732   2.409  0.3297  0.1437  0.0448
 6516TIP3   OH219511   0.419   6.335   0.035  0.1725 -0.2217 -0.5563
 6516TIP3    H119512   0.420   6.359   0.128  0.5628 -1.9686 -0.0688
 6516TIP3    H219513   0.326   6.331   0.013  0.0474 -0.7811  0.0443
 6517TIP3   OH219514   3.157   2.861   3.982 -0.8998  0.6242  0.3729
 6517TIP3    H119515   3.166   2.942   3.932 -1.4360  0.7162  0.4214
 6517TIP3    H219516   3.063   2.849   3.992 -0.8451 -0.3663 -0.2178
 6518TIP3   OH219517   1.813   2.636   5.050 -0.6655  0.7735  0.3693
 6518TIP3    H119518   1.904   2.654   5.027 -1.1790  0.9858 -1.6975
 6518TIP3    H219519   1.816   2.611   5.142  1.4479  0.9942  0.4086
 6519TIP3   OH219520   4.887   5.603   2.187  0.1902  0.1619  0.1728
 6519TIP3    H119521   4.923   5.683   2.148 -0.3652 -0.6725 -2.2715
 6519TIP3    H219522   4.950   5.535   2.165 -0.8084 -0.5767 -0.5162
 6520TIP3   OH219523   4.711   1.798   1.325  0.3395 -0.9472 -0.1018
 6520TIP3    H119524   4.636   1.847   1.290 -0.6327 -3.5584 -1.9877
 6520TIP3    H219525   4.696   1.795   1.419  0.3482  2.0916  0.0922
 6521TIP3   OH219526   1.930   0.475   5.188  0.2566  0.4089  0.4815
 6521TIP3    H119527   1.843   0.470   5.148  0.2628 -1.3945  0.6048
 6521TIP3    H219528   1.926   0.554   5.243 -1.0336  0.7848 -0.0954
 6522TIP3   OH219529   1.055   4.779   5.163  0.1625  0.5663  0.5742
 6522TIP3    H119530   1.080   4.794   5.072 -1.2717 -1.2100 -0.1651
 6522TIP3    H219531   1.138   4.783   5.211  1.0008  1.1620 -0.8480
 6523TIP3   OH219532   4.114   4.666   0.522 -0.0836  0.6225  0.8561
 6523TIP3    H119533   4.142   4.757   0.529 -0.6550  0.7337  1.8188
 6523TIP3    H219534   4.052   4.654   0.594 -0.1036 -0.4962  0.6702
 6524TIP3   OH219535   3.090   4.675   3.755 -0.1263 -0.3768 -0.0206
 6524TIP3    H119536   3.153   4.740   3.787 -0.4132 -0.5103  0.8460
 6524TIP3    H219537   3.123   4.650   3.669  0.7240 -0.0633  0.2025
 6525TIP3   OH219538   4.693   1.487   5.410 -0.3661  0.5488 -0.4118
 6525TIP3    H119539   4.649   1.528   5.336 -0.5210  2.0916  0.4926
 6525TIP3    H219540   4.777   1.457   5.375 -1.1929 -0.4230 -1.6289
 6526TIP3   OH219541   1.656   5.453   4.293  0.1792  0.0660 -0.1494
 6526TIP3    H119542   1.592   5.397   4.248  0.2711 -0.2881  0.1596
 6526TIP3    H219543   1.687   5.400   4.367 -1.7109  1.4722  1.7680
 6527TIP3   OH219544   7.166   3.028   5.500 -0.5491 -0.3303  0.0406
 6527TIP3    H119545   7.125   3.113   5.514 -2.8437 -1.1408 -1.1906
 6527TIP3    H219546   7.243   3.047   5.446 -1.6732  0.9003 -1.2051
 6528TIP3   OH219547   2.246   0.771   5.303 -0.2221 -0.2410  0.1513
 6528TIP3    H119548   2.289   0.825   5.370 -0.7822  0.3919  0.0123
 6528TIP3    H219549   2.194   0.708   5.354 -2.5271  1.7324  0.3845
 6529TIP3   OH219550   1.683   6.283   0.794 -0.2335 -0.3106 -0.6941
 6529TIP3    H119551   1.744   6.226   0.747 -1.6003 -0.2559 -2.6404
 6529TIP3    H219552   1.596   6.257   0.763 -1.1728  0.2826  1.2590
 6530TIP3   OH219553   0.102   3.784   4.895 -0.1097 -0.0320 -0.0339
 6530TIP3    H119554   0.115   3.727   4.970  1.3636  2.4243  1.7324
 6530TIP3    H219555   0.020   3.830   4.913 -0.8185 -0.8895 -0.9862
 6531TIP3   OH219556   4.525   3.189   1.935 -0.1526  0.1302  0.1487
 6531TIP3    H119557   4.481   3.115   1.892  0.7298 -0.2721 -0.0730
 6531TIP3    H219558   4.464   3.216   2.004  0.2172 -1.8532  1.3199
 6532TIP3   OH219559   3.836   4.934   4.674  0.2622  0.1997  0.0243
 6532TIP3    H119560   3.864   4.927   4.583 -1.1520 -0.9171 -0.3580
 6532TIP3    H219561   3.741   4.923   4.672  0.1240  0.7697  1.5709
 6533TIP3   OH219562   0.956   3.479   5.084 -0.3467  0.0517 -0.0505
 6533TIP3    H119563   1.001   3.423   5.021 -2.1241 -0.7621 -0.6513
 6533TIP3    H219564   0.898   3.534   5.030  0.2214  1.3846  0.6609
 6534TIP3   OH219565   0.357   6.476   4.442 -0.4028  0.1750  0.2279
 6534TIP3    H119566   0.379   6.452   4.352 -0.1518 -0.5534  0.4774
 6534TIP3    H219567   0.290   6.544   4.433 -0.9576 -0.4543 -0.5001
 6535TIP3   OH219568   2.518   6.772   0.566 -0.1253  0.0781  0.1158
 6535TIP3    H119569   2.480   6.737   0.647  0.8079 -0.2856  0.4018
 6535TIP3    H219570   2.442   6.793   0.512 -0.7484 -1.4783  0.3203
 6536TIP3   OH219571   5.906   0.613   2.478 -0.7087  0.0442  0.5974
 6536TIP3    H119572   5.983   0.587   2.429 -1.1802  1.2960 -0.8862
 6536TIP3    H219573   5.844   0.542   2.465 -0.7924  0.3117 -0.5801
 6537TIP3   OH219574   4.601   5.740   3.633 -0.1816  0.5294 -0.1477
 6537TIP3    H119575   4.587   5.663   3.578 -0.9959  0.5388  0.0272
 6537TIP3    H219576   4.626   5.809   3.572  2.6498 -0.3359 -0.1100
 6538TIP3   OH219577   1.069   0.091   0.895  0.0918  0.0941 -0.6642
 6538TIP3    H119578   1.105   0.103   0.807  0.4536  0.1028 -0.5153
 6538TIP3    H219579   1.104   0.164   0.946  0.4678 -0.3124 -0.3299
 6539TIP3   OH219580   3.503   1.131   0.192 -0.5525  0.4081 -0.0216
 6539TIP3    H119581   3.412   1.116   0.164 -0.5837 -1.9023  1.0346
 6539TIP3    H219582   3.499   1.128   0.287  0.7651 -0.9883  0.0305
 6540TIP3   OH219583   1.998   6.037   2.129 -0.2112 -0.0424 -0.7675
 6540TIP3    H119584   1.985   6.106   2.194  0.3805  0.3110 -1.0223
 6540TIP3    H219585   2.085   6.003   2.147  1.0968  1.8478 -3.0116
 6541TIP3   OH219586   1.269   5.216   4.688 -0.4491  0.2222  0.3839
 6541TIP3    H119587   1.240   5.307   4.690 -0.1595  0.3222  2.5020
 6541TIP3    H219588   1.335   5.210   4.757  0.3610 -1.3569 -0.4545
 6542TIP3   OH219589   1.293   4.992   0.604  0.0728  0.2678  0.0259
 6542TIP3    H119590   1.357   4.935   0.645 -0.6893 -0.7221 -0.1285
 6542TIP3    H219591   1.233   5.017   0.675  0.2502  0.6666  0.0388
 6543TIP3   OH219592   6.725   1.552   3.287 -0.0005  0.5456  0.3250
 6543TIP3    H119593   6.742   1.539   3.194 -0.0356  1.8703  0.1194
 6543TIP3    H219594   6.637   1.519   3.301 -0.2823  1.0274 -0.2794
 6544TIP3   OH219595   1.636   3.085   5.378  0.1253  0.1124 -0.2868
 6544TIP3    H119596   1.674   3.161   5.421  0.9923 -0.1946 -0.4960
 6544TIP3    H219597   1.682   3.010   5.416 -0.6575 -0.3101 -0.1427
 6545TIP3   OH219598   7.031   3.146   2.092  0.4926  0.1842 -0.2179
 6545TIP3    H119599   7.018   3.209   2.021  0.6543 -0.2576 -0.6456
 6545TIP3    H219600   7.126   3.136   2.098  0.4845  0.3090  0.1428
 6546TIP3   OH219601   4.349   6.116   3.316  0.4809 -0.0437  0.2868
 6546TIP3    H119602   4.305   6.054   3.258  0.4535 -0.7658  1.0640
 6546TIP3    H219603   4.351   6.072   3.401  1.9382  0.3288  0.4689
 6547TIP3   OH219604   7.184   0.123   3.595 -0.1641  0.3899 -0.0469
 6547TIP3    H119605   7.114   0.151   3.536  0.6797 -0.9284 -1.7647
 6547TIP3    H219606   7.247   0.079   3.538  1.2194 -0.0152  1.7107
 6548TIP3   OH219607   5.471   1.315   1.829  0.2459  0.1187  0.1844
 6548TIP3    H119608   5.545   1.336   1.886  0.5100  1.7340 -0.6741
 6548TIP3    H219609   5.394   1.343   1.878  0.4346  1.0158 -0.0111
 6549TIP3   OH219610   1.107   5.247   2.928 -0.0025 -0.2984 -0.1990
 6549TIP3    H119611   1.035   5.306   2.905  0.8677  0.1910 -1.8180
 6549TIP3    H219612   1.065   5.178   2.980 -1.3518  0.7846  0.2204
 6550TIP3   OH219613   3.755   1.079   1.699  0.0046  0.4470 -0.3010
 6550TIP3    H119614   3.701   1.027   1.640 -0.1377  2.0355 -1.6361
 6550TIP3    H219615   3.785   1.017   1.765 -2.9143 -0.6324  0.1483
 6551TIP3   OH219616   6.711   0.419   4.559 -0.4725  0.2494  0.0335
 6551TIP3    H119617   6.705   0.410   4.464  0.2175 -0.7726  0.0671
 6551TIP3    H219618   6.802   0.444   4.576  0.2643 -2.4547  0.5593
 6552TIP3   OH219619   2.183   1.937   3.675 -0.2122  0.1722 -0.8401
 6552TIP3    H119620   2.251   1.943   3.742 -1.2653  2.6207  0.1315
 6552TIP3    H219621   2.227   1.902   3.598  1.5719 -0.5348  0.4440
 6553TIP3   OH219622   6.812   4.431   5.107 -0.4237 -0.2974 -0.0215
 6553TIP3    H119623   6.731   4.383   5.126  0.5743 -1.0273  2.9200
 6553TIP3    H219624   6.880   4.364   5.108  0.9386  0.9026  3.6272
 6554TIP3   OH219625   2.091   3.897   3.608 -0.0364  0.5103 -0.4911
 6554TIP3    H119626   2.130   3.850   3.533  2.0888  0.2114  0.7080
 6554TIP3    H219627   2.163   3.949   3.643 -1.3965  1.8303  0.4601
 6555TIP3   OH219628   7.150   2.196   0.926 -0.3354  0.0723  0.2377
 6555TIP3    H119629   7.159   2.251   0.849 -0.5036  1.7383  1.3609
 6555TIP3    H219630   7.237   2.197   0.967 -0.8750  1.3648  1.4358
 6556TIP3   OH219631   4.383   2.310   5.716  0.4599  0.2817 -0.0109
 6556TIP3    H119632   4.332   2.366   5.657  1.0632  0.3616 -0.4672
 6556TIP3    H219633   4.317   2.264   5.768 -0.1131 -0.0943 -1.0377
 6557TIP3   OH219634   0.810   0.008   0.917 -0.0143 -0.5455 -0.1943
 6557TIP3    H119635   0.882   0.070   0.906  0.8390 -1.5776 -0.6255
 6557TIP3    H219636   0.850  -0.070   0.955 -1.0843 -0.8098  0.4458
 6558TIP3   OH219637   0.567   6.440   2.856 -0.3924 -0.2711  0.2290
 6558TIP3    H119638   0.644   6.383   2.860 -0.8537 -0.9413 -0.2151
 6558TIP3    H219639   0.584   6.498   2.782 -0.8256 -1.1971 -0.6134
 6559TIP3   OH219640   4.923   3.485   1.834 -0.1437 -0.2928 -0.1159
 6559TIP3    H119641   4.924   3.393   1.860  1.0058 -0.9984 -2.4124
 6559TIP3    H219642   5.015   3.507   1.821 -0.4774  0.9131 -0.5147
 6560TIP3   OH219643   3.289   4.036   4.267 -0.0821  0.0774 -0.4653
 6560TIP3    H119644   3.323   4.097   4.202 -1.2095 -0.0787 -1.2262
 6560TIP3    H219645   3.324   4.068   4.350  0.5124  0.9026 -1.0173
 6561TIP3   OH219646   2.962   2.362   0.936 -0.0008 -0.2699 -0.5043
 6561TIP3    H119647   2.900   2.402   0.996  1.4448 -1.5304  2.0027
 6561TIP3    H219648   2.923   2.278   0.912  1.0342 -1.5819  1.9650
 6562TIP3   OH219649   4.585   0.683   1.780 -0.1421 -0.2438  0.2935
 6562TIP3    H119650   4.495   0.653   1.788 -0.2977 -0.0175 -0.5517
 6562TIP3    H219651   4.596   0.743   1.854 -1.1103  0.7429 -0.3337
 6563TIP3   OH219652   7.029   5.447   4.115  0.2263 -0.1797  0.1276
 6563TIP3    H119653   7.096   5.508   4.083 -0.6876  0.4948 -0.5354
 6563TIP3    H219654   7.050   5.364   4.072  0.4727  0.0936 -0.2858
 6564TIP3   OH219655   0.597   6.418   5.090 -0.3928  0.3324 -0.0588
 6564TIP3    H119656   0.590   6.512   5.073 -0.6453  0.3994  0.4124
 6564TIP3    H219657   0.655   6.386   5.021 -0.4576  0.8012 -0.3376
 6565TIP3   OH219658   1.729   0.134   5.896 -0.1127  0.3407  0.2062
 6565TIP3    H119659   1.825   0.142   5.889 -0.0331 -0.8065 -0.3913
 6565TIP3    H219660   1.696   0.178   5.818 -0.0937  0.8954  0.5037
 6566TIP3   OH219661   2.660   6.665   4.033  0.0924 -0.2848 -0.0960
 6566TIP3    H119662   2.701   6.710   3.959  3.0506  0.8998  2.0883
 6566TIP3    H219663   2.598   6.728   4.068  2.0615  1.0580  1.1418
 6567TIP3   OH219664   0.207   4.144   5.794  0.3249 -0.3612 -0.4361
 6567TIP3    H119665   0.150   4.180   5.725 -0.4054 -1.0241 -0.1986
 6567TIP3    H219666   0.278   4.101   5.746 -0.2597 -0.9528 -0.7922
 6568TIP3   OH219667   3.959   6.148   1.129 -0.2479  0.4097 -0.1988
 6568TIP3    H119668   4.025   6.111   1.070 -1.3412 -0.3000 -1.0158
 6568TIP3    H219669   3.923   6.223   1.081 -0.0587  0.7716  0.2262
 6569TIP3   OH219670   5.151   0.417   5.363 -0.6646 -0.4030  0.4825
 6569TIP3    H119671   5.123   0.508   5.361  0.3777 -0.0597 -1.3899
 6569TIP3    H219672   5.234   0.418   5.410 -1.0597 -0.5346  1.1939
 6570TIP3   OH219673   6.355   6.723   3.301 -0.0531  0.0522 -0.5096
 6570TIP3    H119674   6.292   6.652   3.291  1.1109 -1.6947  2.8143
 6570TIP3    H219675   6.434   6.680   3.332  0.4917  2.7646  2.3587
 6571TIP3   OH219676   2.556   6.600   5.311 -0.4686  0.1569  0.1628
 6571TIP3    H119677   2.559   6.504   5.310 -0.0956  0.1670  0.1555
 6571TIP3    H219678   2.583   6.625   5.222  3.4368  0.3521  1.2230
 6572TIP3   OH219679   3.356   2.272   1.954  1.0909 -0.3954 -0.2050
 6572TIP3    H119680   3.382   2.185   1.984  0.0764 -0.5863  0.1437
 6572TIP3    H219681   3.421   2.331   1.993  1.8420 -0.9935 -0.5222
 6573TIP3   OH219682   1.154   0.661   0.219 -0.4057  0.4419  0.4619
 6573TIP3    H119683   1.235   0.687   0.262 -0.6822 -0.6372  1.7271
 6573TIP3    H219684   1.170   0.672   0.126  1.0526  0.6073  0.7190
 6574TIP3   OH219685   0.886   0.252   3.520 -0.1592 -0.2132  0.0128
 6574TIP3    H119686   0.879   0.290   3.608 -0.6337 -0.1750 -0.0428
 6574TIP3    H219687   0.867   0.325   3.461  2.5896  0.4290 -0.2165
 6575TIP3   OH219688   5.859   3.314   0.200  0.1170  0.2885  0.0650
 6575TIP3    H119689   5.818   3.359   0.127  0.0180  0.2465  0.0943
 6575TIP3    H219690   5.901   3.383   0.251 -0.4461  0.4070  0.3760
 6576TIP3   OH219691   6.010   6.690   5.159 -0.5608 -0.2365  0.3263
 6576TIP3    H119692   6.060   6.646   5.228 -0.2444 -2.7176 -1.3393
 6576TIP3    H219693   6.031   6.641   5.080 -3.0691  0.7368 -1.0590
 6577TIP3   OH219694   6.516   4.743   3.662  0.0392  0.3627  0.3587
 6577TIP3    H119695   6.514   4.725   3.756  2.1166 -2.2223  0.0124
 6577TIP3    H219696   6.424   4.761   3.639 -0.7630 -0.4954  2.6026
 6578TIP3   OH219697   3.685   0.331   2.410 -0.4373 -0.6268 -0.1609
 6578TIP3    H119698   3.720   0.334   2.499 -0.8032 -0.8124 -0.0079
 6578TIP3    H219699   3.762   0.337   2.353 -0.2531  0.0978  0.1619
 6579TIP3   OH219700   2.420   1.045   1.564  0.8108  0.0497  0.3187
 6579TIP3    H119701   2.470   1.078   1.638  0.5674  0.1120  0.4555
 6579TIP3    H219702   2.394   1.123   1.515 -0.0058  0.0968  0.7971
 6580TIP3   OH219703   2.533   0.127   1.778 -0.8289  0.5773 -0.5242
 6580TIP3    H119704   2.580   0.207   1.753 -1.0625  0.6460 -0.7380
 6580TIP3    H219705   2.447   0.157   1.806 -0.6692  0.4728  0.0946
 6581TIP3   OH219706   5.441   1.984   0.980 -0.1570 -0.0629  0.0237
 6581TIP3    H119707   5.442   1.888   0.988  0.3089 -0.0719 -0.1020
 6581TIP3    H219708   5.389   2.014   1.054 -1.5722 -0.4919 -0.7491
 6582TIP3   OH219709   6.330   0.824   0.712  0.1732 -0.4728  0.9994
 6582TIP3    H119710   6.365   0.736   0.701  0.3021 -0.5249  1.7636
 6582TIP3    H219711   6.406   0.882   0.699  0.5931 -0.5902  2.7469
 6583TIP3   OH219712   0.293   2.868   5.243 -0.5750  0.3680 -0.3290
 6583TIP3    H119713   0.273   2.938   5.181  2.4044  0.8551 -0.8944
 6583TIP3    H219714   0.282   2.787   5.192 -3.7895  0.2922  0.2594
 6584TIP3   OH219715   6.105   3.289   3.129 -0.7343  0.2051 -0.1086
 6584TIP3    H119716   6.034   3.345   3.098 -1.2081 -0.4554 -0.2449
 6584TIP3    H219717   6.181   3.315   3.076 -1.4311 -0.6197 -1.5633
 6585TIP3   OH219718   5.404   6.600   0.960  0.4505  0.1753  0.1536
 6585TIP3    H119719   5.339   6.602   1.030  0.0809  1.7698 -0.2018
 6585TIP3    H219720   5.447   6.685   0.964  1.4075 -0.2491 -0.6551
 6586TIP3   OH219721   6.115   3.773   0.652 -0.0772 -0.2212 -0.1574
 6586TIP3    H119722   6.153   3.784   0.565  4.7930 -1.2871  1.4974
 6586TIP3    H219723   6.097   3.680   0.660 -0.1757 -0.1854  0.0702
 6587TIP3   OH219724   2.170   0.090   4.256  0.0586 -0.1029  0.0777
 6587TIP3    H119725   2.163  -0.005   4.266 -0.7228 -0.2065 -1.3181
 6587TIP3    H219726   2.083   0.118   4.229  0.2211  1.0529  0.6926
 6588TIP3   OH219727   3.803   1.721   2.807 -0.0123 -0.3035  0.1925
 6588TIP3    H119728   3.858   1.693   2.880  0.4167  2.4287  1.0148
 6588TIP3    H219729   3.858   1.709   2.730  1.3985  1.3170  0.8826
 6589TIP3   OH219730   1.787   6.435   0.260  0.2469 -0.4486  0.3342
 6589TIP3    H119731   1.761   6.390   0.340 -2.7367 -0.8710 -0.7363
 6589TIP3    H219732   1.814   6.522   0.288 -0.9740 -0.5108  1.7785
 6590TIP3   OH219733   4.989   4.750   3.963 -0.1407  0.0106 -0.4529
 6590TIP3    H119734   4.969   4.663   3.998  0.9333 -0.5603 -1.1623
 6590TIP3    H219735   5.028   4.797   4.036 -1.2449  0.1042  0.0949
 6591TIP3   OH219736   5.678   4.260   0.898  0.2185  0.5598  0.1483
 6591TIP3    H119737   5.771   4.246   0.910  0.1018  0.7992  1.4366
 6591TIP3    H219738   5.636   4.217   0.972 -0.7228  0.2865 -0.5086
 6592TIP3   OH219739   4.542   3.903   3.163 -0.6209  0.3341  0.4180
 6592TIP3    H119740   4.622   3.933   3.121 -1.0868  1.6707  0.4303
 6592TIP3    H219741   4.472   3.947   3.116 -1.4453 -1.5888 -0.2400
 6593TIP3   OH219742   2.134   6.259   4.425  0.3001  0.2689 -0.2126
 6593TIP3    H119743   2.039   6.254   4.439 -0.0174  1.8343 -1.6039
 6593TIP3    H219744   2.147   6.222   4.338  0.6634  1.9983 -0.9354
 6594TIP3   OH219745   5.271   2.501   1.879  0.0256  0.3445 -0.2406
 6594TIP3    H119746   5.317   2.526   1.959  1.8972  0.4338 -1.2974
 6594TIP3    H219747   5.275   2.406   1.878  0.0080  0.3438 -0.2495
 6595TIP3   OH219748   3.226   5.587   2.192  0.3543 -0.1437 -0.6213
 6595TIP3    H119749   3.131   5.599   2.185  0.3863  0.1743 -0.5382
 6595TIP3    H219750   3.258   5.594   2.102  0.7506  3.7922 -0.3542
 6596TIP3   OH219751   2.643   6.093   4.426 -0.3804  0.1242 -0.6386
 6596TIP3    H119752   2.634   6.120   4.335  2.1480  1.9571 -0.4539
 6596TIP3    H219753   2.716   6.032   4.426 -0.3621  0.1351  0.1420
 6597TIP3   OH219754   5.440   5.242   1.250 -0.1181 -0.1766 -0.3212
 6597TIP3    H119755   5.479   5.316   1.204  3.0850 -1.7405 -0.4061
 6597TIP3    H219756   5.355   5.275   1.280  0.2726  2.8284 -2.0590
 6598TIP3   OH219757   3.542   6.208   2.566 -0.5690 -0.6344 -0.4795
 6598TIP3    H119758   3.479   6.253   2.622 -0.1071  0.2676 -0.6592
 6598TIP3    H219759   3.568   6.274   2.502  2.5292 -0.1097  1.1247
 6599TIP3   OH219760   3.819   6.067   3.523 -0.7164 -0.1184 -0.4126
 6599TIP3    H119761   3.896   6.094   3.573  0.1028 -0.5130 -1.4340
 6599TIP3    H219762   3.807   6.136   3.458 -1.1138 -0.1589 -0.3858
 6600TIP3   OH219763   0.818   4.303   3.744  0.2287 -0.7480  0.0732
 6600TIP3    H119764   0.768   4.229   3.711  0.4393 -2.3190  3.0254
 6600TIP3    H219765   0.755   4.375   3.748 -0.7178 -1.5615 -0.0457
 6601TIP3   OH219766   6.462   3.379   2.592  0.8260 -0.5062  0.3790
 6601TIP3    H119767   6.443   3.373   2.685  0.2398  0.3870  0.3329
 6601TIP3    H219768   6.522   3.307   2.575  0.1001 -1.3329  1.2251
 6602TIP3   OH219769   0.498   1.177   5.872  0.4138  0.1215 -0.3529
 6602TIP3    H119770   0.540   1.260   5.850  0.0666  0.6422  0.8552
 6602TIP3    H219771   0.571   1.116   5.888  0.7424  0.8997  1.3067
 6603TIP3   OH219772   0.856   4.135   5.116  0.2745  0.1128 -0.2336
 6603TIP3    H119773   0.848   4.184   5.034 -0.2268  0.4786  0.0309
 6603TIP3    H219774   0.868   4.201   5.183  1.6487 -0.2303 -0.1079
 6604TIP3   OH219775   7.020   0.920   3.932  0.0214  0.4080 -0.0222
 6604TIP3    H119776   7.114   0.906   3.918 -0.3188 -1.0634 -1.0157
 6604TIP3    H219777   6.980   0.902   3.848 -1.2470  0.2326  0.5927
 6605TIP3   OH219778   5.329   0.133   1.663  0.6431 -0.3541  0.4184
 6605TIP3    H119779   5.417   0.120   1.699  0.2574 -1.5793  0.9704
 6605TIP3    H219780   5.293   0.205   1.713  1.1970 -0.0725  0.4261
 6606TIP3   OH219781   5.241   2.948   0.193 -0.0973  0.0158  0.1784
 6606TIP3    H119782   5.221   3.041   0.206 -1.1269 -0.1458 -0.1098
 6606TIP3    H219783   5.325   2.948   0.146 -0.7715  0.8707 -1.1188
 6607TIP3   OH219784   5.107   5.724   0.161  0.0870  0.6157  0.5804
 6607TIP3    H119785   5.195   5.763   0.157  0.6514 -0.7199 -1.4543
 6607TIP3    H219786   5.122   5.630   0.151 -1.6223  0.4491 -1.0209
 6608TIP3   OH219787   0.390   1.948   3.603 -0.0686 -0.2285  0.2622
 6608TIP3    H119788   0.393   2.040   3.629 -1.5113  0.5100 -1.8900
 6608TIP3    H219789   0.351   1.950   3.515 -1.4374 -2.9996  0.7229
 6609TIP3   OH219790   3.251   6.236   4.840  0.0073  0.2390  0.4450
 6609TIP3    H119791   3.204   6.174   4.896  0.3933 -0.2868  0.1823
 6609TIP3    H219792   3.219   6.322   4.869 -1.9021 -0.1306 -0.4171
 6610TIP3   OH219793   3.515   5.972   0.061  0.5434  0.0144 -0.0705
 6610TIP3    H119794   3.547   6.019   0.138  1.1668  0.5504 -0.6392
 6610TIP3    H219795   3.423   5.997   0.054 -0.1383 -1.7684  1.7510
 6611TIP3   OH219796   0.143   4.459   0.630 -0.5444 -0.0814  0.3844
 6611TIP3    H119797   0.126   4.397   0.560 -1.2659  0.0519  0.4327
 6611TIP3    H219798   0.212   4.516   0.597 -0.4561 -0.4039  0.0214
 6612TIP3   OH219799   3.496   5.083   1.491  0.1618 -0.0347 -0.3003
 6612TIP3    H119800   3.534   5.153   1.437 -1.8001  0.6780 -0.8430
 6612TIP3    H219801   3.501   5.118   1.581 -0.5322  0.7205 -0.5349
 6613TIP3   OH219802   5.149   6.343   5.542  0.1846  0.0061  0.2684
 6613TIP3    H119803   5.146   6.386   5.627 -1.1753 -0.9757  0.7573
 6613TIP3    H219804   5.126   6.252   5.560  0.4273 -0.3527 -1.0795
 6614TIP3   OH219805   3.019   6.754   1.348 -0.5610  0.6968  0.7294
 6614TIP3    H119806   3.023   6.829   1.288  1.9189 -0.3894 -0.6122
 6614TIP3    H219807   2.928   6.725   1.343 -0.8389  1.7126 -1.1793
 6615TIP3   OH219808   5.198   6.531   5.361  0.0749 -0.3458  0.2950
 6615TIP3    H119809   5.177   6.497   5.275 -1.4013  1.4413 -0.1055
 6615TIP3    H219810   5.211   6.453   5.415 -2.2554 -1.5466 -0.7653
 6616TIP3   OH219811   6.273   4.805   3.582  0.2699 -0.8151 -0.1217
 6616TIP3    H119812   6.310   4.859   3.512  0.5001  2.6448  2.3804
 6616TIP3    H219813   6.209   4.749   3.539  0.6140  0.8817 -3.1092
 6617TIP3   OH219814   2.459   4.001   0.863  0.2625 -0.0476 -0.3364
 6617TIP3    H119815   2.375   4.047   0.855 -0.6297 -1.7780 -1.4483
 6617TIP3    H219816   2.507   4.025   0.783 -0.4226 -1.3801 -1.1895
 6618TIP3   OH219817   5.515   4.857   3.756  0.2762  0.0176 -0.6406
 6618TIP3    H119818   5.517   4.952   3.744 -1.2673 -0.1294 -2.5418
 6618TIP3    H219819   5.431   4.830   3.718  1.0294 -2.1996 -0.8491
 6619TIP3   OH219820   5.754   2.198   5.632  0.1947 -0.3746 -0.0933
 6619TIP3    H119821   5.821   2.180   5.566  0.7809  0.4977  0.2596
 6619TIP3    H219822   5.770   2.288   5.660 -0.5536 -0.4618  0.6599
 6620TIP3   OH219823   6.889   5.867   5.583 -0.4157  0.1209  0.1173
 6620TIP3    H119824   6.981   5.845   5.598 -0.2810 -0.2351 -1.1170
 6620TIP3    H219825   6.840   5.799   5.629 -0.0674  0.3639  0.8569
 6621TIP3   OH219826   3.200   1.165   2.049  0.3185 -0.5381 -0.0384
 6621TIP3    H119827   3.137   1.114   2.100  0.3594 -0.2827  0.2692
 6621TIP3    H219828   3.156   1.182   1.966  0.5142 -1.5484 -0.3675
 6622TIP3   OH219829   6.176   5.406   1.153  0.0108  0.1595 -0.5033
 6622TIP3    H119830   6.140   5.489   1.185  1.1553  0.7370 -0.6668
 6622TIP3    H219831   6.228   5.431   1.077 -0.3568 -0.8406 -1.0923
 6623TIP3   OH219832   1.686   4.075   0.208  0.3899 -0.3751 -0.1512
 6623TIP3    H119833   1.757   4.138   0.218  1.5971 -1.5322 -1.1055
 6623TIP3    H219834   1.626   4.116   0.145  0.8904  0.0504 -0.3592
 6624TIP3   OH219835   4.287   0.150   1.696  0.6413  0.0456 -0.3042
 6624TIP3    H119836   4.265   0.078   1.637  0.9769 -1.6277  1.4977
 6624TIP3    H219837   4.211   0.159   1.753  1.5794 -0.6911  1.1402
 6625TIP3   OH219838   2.022   3.598   3.073  0.4022  0.0937 -0.1450
 6625TIP3    H119839   2.010   3.679   3.024  1.6873 -1.1621 -2.7597
 6625TIP3    H219840   1.942   3.548   3.058  1.0148 -0.5165 -1.5240
 6626TIP3   OH219841   0.796   0.198   0.506 -0.4136  0.0014  0.2573
 6626TIP3    H119842   0.801   0.223   0.414 -0.9592 -0.0536  0.2081
 6626TIP3    H219843   0.861   0.253   0.550  1.7907 -1.7879 -0.5208
 6627TIP3   OH219844   5.425   3.453   0.892 -0.0709 -0.1453  0.4600
 6627TIP3    H119845   5.511   3.411   0.892  0.0973  0.1518 -0.8907
 6627TIP3    H219846   5.376   3.407   0.960  0.3786 -1.9831 -0.3761
 6628TIP3   OH219847   3.792   2.198   0.553  0.0345 -0.0121  0.5220
 6628TIP3    H119848   3.759   2.256   0.620 -0.4595  0.2064  0.0938
 6628TIP3    H219849   3.718   2.143   0.529 -0.0223  0.4374 -0.3966
 6629TIP3   OH219850   0.096   3.546   4.749 -0.3372  0.7266  0.3038
 6629TIP3    H119851   0.110   3.636   4.779  0.7971  1.1824 -1.4581
 6629TIP3    H219852   0.004   3.545   4.722 -0.1827  1.5874 -0.3179
 6630TIP3   OH219853   4.510   3.402   4.442  0.0133 -0.3825 -0.7182
 6630TIP3    H119854   4.526   3.495   4.459 -1.2845 -0.2381 -0.1815
 6630TIP3    H219855   4.594   3.369   4.410  0.4158  1.0313 -1.1995
 6631TIP3   OH219856   2.049   3.711   4.829 -0.4504 -0.1509 -0.3843
 6631TIP3    H119857   2.037   3.745   4.740 -0.3041  0.0277 -0.3352
 6631TIP3    H219858   2.089   3.625   4.815 -0.4382 -0.1288 -0.4917
 6632TIP3   OH219859   1.322   1.950   0.349  0.6377 -0.6105  0.1299
 6632TIP3    H119860   1.292   2.029   0.305  2.3442  1.5514  2.5445
 6632TIP3    H219861   1.350   1.892   0.278  0.1706  1.2875 -1.7018
 6633TIP3   OH219862   2.847   3.406   3.886  0.4139  0.4460 -0.1670
 6633TIP3    H119863   2.881   3.427   3.798  1.7613 -1.8036 -0.2455
 6633TIP3    H219864   2.904   3.455   3.945 -0.3140  1.7388 -0.4885
 6634TIP3   OH219865   4.562   6.216   4.112 -0.1558 -0.2092 -0.6116
 6634TIP3    H119866   4.480   6.258   4.137  0.2423 -0.4307  1.1604
 6634TIP3    H219867   4.540   6.164   4.035 -2.0372 -1.3866  0.6430
 6635TIP3   OH219868   3.887   5.211   1.925  0.3139  0.2817 -0.4303
 6635TIP3    H119869   3.855   5.126   1.895 -1.6227  1.0987 -0.8570
 6635TIP3    H219870   3.951   5.190   1.993  0.8739 -1.5197 -1.4443
 6636TIP3   OH219871   4.658   5.339   1.588 -0.1792  0.5225 -0.1510
 6636TIP3    H119872   4.743   5.296   1.597 -0.4549  0.1902  1.1294
 6636TIP3    H219873   4.600   5.270   1.557 -0.1448  0.5510 -0.2792
 6637TIP3   OH219874   5.474   1.935   5.253  0.0008  0.2877  0.2217
 6637TIP3    H119875   5.478   1.847   5.293 -0.5823 -0.7972 -1.9470
 6637TIP3    H219876   5.391   1.935   5.205  0.6411  1.5234 -0.9285
 6638TIP3   OH219877   0.825   5.023   2.409 -0.1344 -0.5408 -0.6593
 6638TIP3    H119878   0.820   4.934   2.373 -2.8233 -0.2942 -1.1096
 6638TIP3    H219879   0.738   5.060   2.394  0.8617  2.1681 -0.4101
 6639TIP3   OH219880   2.703   1.669   0.067 -0.4653 -0.3296  0.7248
 6639TIP3    H119881   2.619   1.668   0.112 -0.9381 -1.5582 -0.1355
 6639TIP3    H219882   2.763   1.623   0.126  0.1213  2.0906  2.1693
 6640TIP3   OH219883   7.078   6.414   2.231  0.0807  0.3395 -0.0940
 6640TIP3    H119884   7.015   6.346   2.256 -1.6562  1.9618  0.1509
 6640TIP3    H219885   7.119   6.380   2.152 -1.8175 -0.3868 -0.8393
 6641TIP3   OH219886   1.261   5.327   4.025 -0.0074 -0.0967 -0.1865
 6641TIP3    H119887   1.299   5.289   3.946  0.2000 -1.1852  0.4299
 6641TIP3    H219888   1.247   5.419   4.002 -0.8652 -0.5891 -1.8418
 6642TIP3   OH219889   4.313   4.781   1.540  0.3992 -0.9764  0.0929
 6642TIP3    H119890   4.262   4.714   1.496  1.3223 -1.7154  0.1146
 6642TIP3    H219891   4.306   4.759   1.633 -0.5138 -0.1580  0.2290
 6643TIP3   OH219892   5.093   0.509   2.065 -0.2229  0.8728 -0.0366
 6643TIP3    H119893   5.107   0.497   1.971 -1.7916  1.0848 -0.3133
 6643TIP3    H219894   5.106   0.421   2.103 -0.7390  0.5405 -0.6108
 6644TIP3   OH219895   6.906   1.121   5.836 -0.0790  0.2951  0.9817
 6644TIP3    H119896   6.858   1.041   5.815  2.2687 -1.4661  1.9538
 6644TIP3    H219897   6.923   1.116   5.930 -0.2411  2.2063  1.1692
 6645TIP3   OH219898   1.966   3.161   5.812  0.2641  0.1822 -0.5503
 6645TIP3    H119899   1.993   3.214   5.737  0.3391  1.5766  0.4192
 6645TIP3    H219900   1.871   3.160   5.808  0.2844 -0.3978 -1.0768
 6646TIP3   OH219901   5.106   1.526   4.515 -0.3493 -0.3862 -0.0872
 6646TIP3    H119902   5.107   1.598   4.451 -1.6662 -0.9428 -0.7735
 6646TIP3    H219903   5.017   1.526   4.549  0.6729  0.7769  2.8417
 6647TIP3   OH219904   3.011   6.567   0.730 -0.2599 -0.0566 -0.0622
 6647TIP3    H119905   2.974   6.499   0.787 -0.9059  0.5411  0.2400
 6647TIP3    H219906   2.935   6.614   0.696  0.2035  1.6155  1.0822
 6648TIP3   OH219907   6.055   3.071   1.299 -0.4220  0.3671  0.0614
 6648TIP3    H119908   6.068   3.085   1.206 -4.0226  0.4813 -0.5432
 6648TIP3    H219909   6.064   2.976   1.310 -1.1868  0.2009 -0.6569
 6649TIP3   OH219910   5.761   2.929   3.679 -0.3676 -0.0788  0.1609
 6649TIP3    H119911   5.699   2.866   3.641  1.2793 -2.0785  0.6023
 6649TIP3    H219912   5.734   3.013   3.642 -2.1393 -1.1384 -1.1740
 6650TIP3   OH219913   3.866   5.314   0.001 -0.0929 -0.5814  0.1777
 6650TIP3    H119914   3.887   5.260   0.077 -0.6730  0.9347  1.4605
 6650TIP3    H219915   3.949   5.356  -0.022 -0.6291  1.9878  2.4899
 6651TIP3   OH219916   3.995   2.849   2.922 -0.0165  0.2700 -0.2803
 6651TIP3    H119917   3.990   2.797   3.002  0.2999 -0.5408 -0.7681
 6651TIP3    H219918   3.925   2.813   2.866  0.1033  0.4727 -0.5633
 6652TIP3   OH219919   0.091   4.843   3.505 -0.2271 -0.1134 -0.4573
 6652TIP3    H119920   0.143   4.885   3.573 -0.9379  0.0640 -0.0097
 6652TIP3    H219921   0.142   4.855   3.425 -1.0981  3.0866 -0.6881
 6653TIP3   OH219922   4.306   0.614   1.832  0.4857  0.4796 -0.1636
 6653TIP3    H119923   4.272   0.667   1.904  0.9820  0.7051 -0.0947
 6653TIP3    H219924   4.241   0.544   1.822  0.1254  0.7666  0.1281
 6654TIP3   OH219925   4.984   2.345   1.865  0.0167 -0.3093  0.8823
 6654TIP3    H119926   4.987   2.346   1.961 -0.8580 -0.6025  0.9198
 6654TIP3    H219927   4.956   2.433   1.841  1.1756  0.0687  0.8417
 6655TIP3   OH219928   1.308   2.399   2.172  0.7804 -0.2961 -0.1194
 6655TIP3    H119929   1.290   2.307   2.190  1.5992  0.0629  3.2723
 6655TIP3    H219930   1.265   2.416   2.089 -0.4583 -3.4059 -0.2598
 6656TIP3   OH219931   3.866   4.140   3.001  0.0948  0.4047 -0.3047
 6656TIP3    H119932   3.877   4.048   3.023  1.2055  0.2145 -1.5674
 6656TIP3    H219933   3.772   4.155   3.007  0.1456  0.1216  3.4052
 6657TIP3   OH219934   2.093   5.544   3.496  0.2642 -0.2976 -0.3669
 6657TIP3    H119935   2.142   5.564   3.417  0.7459  0.5052  0.1112
 6657TIP3    H219936   2.095   5.449   3.504 -0.8138 -0.4829 -1.9446
 6658TIP3   OH219937   6.785   4.444   5.404 -0.1438  0.2552 -0.3318
 6658TIP3    H119938   6.803   4.451   5.311  0.7753  1.1321 -0.1080
 6658TIP3    H219939   6.708   4.500   5.417 -1.3846 -1.2553 -0.8203
 6659TIP3   OH219940   3.909   0.742   4.228 -0.5827  0.6579  0.0061
 6659TIP3    H119941   3.910   0.838   4.235  1.0721  0.6078  0.9453
 6659TIP3    H219942   3.839   0.723   4.166 -0.2465  2.5372 -1.0146
 6660TIP3   OH219943   0.688   4.818   1.083 -1.0136  0.2561  0.5514
 6660TIP3    H119944   0.598   4.822   1.116 -1.5501 -0.6062 -0.7082
 6660TIP3    H219945   0.712   4.725   1.093 -0.2725  0.4689  0.8203
 6661TIP3   OH219946   0.502   5.572   5.346 -0.2017  0.2127 -0.2380
 6661TIP3    H119947   0.509   5.668   5.347 -0.2823  0.2251 -0.7689
 6661TIP3    H219948   0.445   5.553   5.421 -0.7299  0.6314 -0.5214
 6662TIP3   OH219949   6.982   4.098   1.884 -0.2851  0.2175 -0.6185
 6662TIP3    H119950   6.971   4.105   1.789  1.6430  1.4167 -0.8215
 6662TIP3    H219951   6.990   4.189   1.913 -2.2559 -0.0422  0.9336
 6663TIP3   OH219952   0.272   6.205   1.701 -0.1569  0.1106  0.6731
 6663TIP3    H119953   0.312   6.201   1.614 -0.3014 -1.3680  0.6542
 6663TIP3    H219954   0.345   6.216   1.761 -0.0192  0.6814  0.4101
 6664TIP3   OH219955   0.955   1.157   2.012  0.3243 -0.3793 -0.3671
 6664TIP3    H119956   0.862   1.132   2.004 -0.7690  3.2945 -1.1247
 6664TIP3    H219957   0.997   1.116   1.936 -1.2720 -0.0500 -1.4876
 6665TIP3   OH219958   4.894   1.817   5.472  0.5436  0.2464 -0.0168
 6665TIP3    H119959   4.862   1.785   5.388 -0.7017  0.6770  0.2703
 6665TIP3    H219960   4.985   1.843   5.455 -0.8082  4.3142 -2.3812
 6666TIP3   OH219961   5.002   0.555   3.082 -0.2473  0.0097  0.0518
 6666TIP3    H119962   5.022   0.493   3.152  0.8874 -0.1528 -0.4111
 6666TIP3    H219963   5.071   0.621   3.088 -0.4456  0.2825 -0.5848
 6667TIP3   OH219964   5.127   4.914   2.161 -0.1764  0.3122 -0.6495
 6667TIP3    H119965   5.204   4.956   2.124  0.7987 -0.1003  0.8064
 6667TIP3    H219966   5.162   4.851   2.225 -1.6742 -0.8357 -0.8826
 6668TIP3   OH219967   7.082   4.275   3.919 -0.1022  0.0700 -0.4940
 6668TIP3    H119968   7.095   4.370   3.927 -0.1833  0.1468 -1.2189
 6668TIP3    H219969   7.109   4.240   4.004 -0.5390  0.7902 -0.0500
 6669TIP3   OH219970   5.097   1.004   4.136  0.0577  0.1956  0.0008
 6669TIP3    H119971   5.086   0.919   4.180 -0.2193 -0.0691 -0.5714
 6669TIP3    H219972   5.125   0.981   4.047 -0.1381  0.7029 -0.1937
 6670TIP3   OH219973   0.569   0.266   5.806  0.7728  0.4293 -0.0927
 6670TIP3    H119974   0.612   0.329   5.865  0.6789 -1.1567  1.7815
 6670TIP3    H219975   0.487   0.244   5.851 -0.8051  1.3955 -2.3337
 6671TIP3   OH219976   2.651   4.151   1.439  0.2193 -0.2904 -0.0208
 6671TIP3    H119977   2.581   4.186   1.385  0.4484 -1.3940 -1.0665
 6671TIP3    H219978   2.726   4.142   1.380  0.1907 -2.4610  0.1751
 6672TIP3   OH219979   0.560   3.834   4.378 -0.1073 -0.3770  0.7624
 6672TIP3    H119980   0.516   3.837   4.293  0.5128  0.6794  0.4569
 6672TIP3    H219981   0.629   3.769   4.367 -0.2483 -0.4935  0.5585
 6673TIP3   OH219982   3.676   1.604   0.582  0.4078  0.0370  0.4012
 6673TIP3    H119983   3.763   1.644   0.585  1.0448 -1.3339  0.8303
 6673TIP3    H219984   3.617   1.674   0.611  1.4581  0.7422  0.9159
 6674TIP3   OH219985   4.533   6.303   2.177  0.1202  0.3572  0.6543
 6674TIP3    H119986   4.501   6.391   2.156 -0.8987  0.5369  2.7114
 6674TIP3    H219987   4.608   6.318   2.235 -0.2001 -0.1013  1.2020
 6675TIP3   OH219988   1.212   1.456   5.027 -0.1147  0.0414 -0.0302
 6675TIP3    H119989   1.295   1.468   4.979 -0.3674  1.2376 -0.1986
 6675TIP3    H219990   1.237   1.463   5.119  0.3549 -2.1543  0.0705
 6676TIP3   OH219991   5.430   2.854   2.901 -0.1677  0.1982  0.0277
 6676TIP3    H119992   5.342   2.834   2.933 -0.8693  0.5981 -1.5098
 6676TIP3    H219993   5.453   2.778   2.848 -0.7023  1.1526 -1.6578
 6677TIP3   OH219994   3.399   3.937   3.038 -0.0402 -0.1928 -0.4333
 6677TIP3    H119995   3.353   3.931   3.121  0.7631  0.5716  0.0780
 6677TIP3    H219996   3.490   3.914   3.059 -0.1827 -1.9154 -1.4683
 6678TIP3   OH219997   0.472   1.225   0.151 -0.5672 -0.1082 -0.4184
 6678TIP3    H119998   0.414   1.167   0.200  0.1639 -0.4626  0.0452
 6678TIP3    H219999   0.450   1.210   0.059  0.0579 -1.6265 -0.3515
 6679TIP3   OH220000   4.198   0.882   5.066 -0.0634  0.3828  0.1826
 6679TIP3    H120001   4.130   0.932   5.112  0.1665 -0.1824  1.1768
 6679TIP3    H220002   4.152   0.807   5.028 -0.4330  1.3707 -1.4277
 6680TIP3   OH220003   0.483   4.219   0.740 -0.5263 -0.2286 -0.5134
 6680TIP3    H120004   0.477   4.304   0.697 -1.6962 -1.2710 -2.5335
 6680TIP3    H220005   0.515   4.240   0.828  1.5262  2.0265 -1.6833
 6681TIP3   OH220006   5.432   6.759   2.833  0.0161 -0.0866 -0.0307
 6681TIP3    H120007   5.377   6.683   2.852  1.0946 -0.9887 -0.4616
 6681TIP3    H220008   5.451   6.797   2.919 -2.2803  1.0213  0.0883
 6682TIP3   OH220009   4.474   2.430   0.737  0.4041 -0.1986 -0.0944
 6682TIP3    H120010   4.452   2.402   0.825 -0.9121 -0.2411 -0.4121
 6682TIP3    H220011   4.546   2.492   0.748  2.1437 -2.2530  0.7644
 6683TIP3   OH220012   3.282   4.463   2.888  0.1386  0.2644 -0.7464
 6683TIP3    H120013   3.276   4.369   2.869 -0.0426  0.2382 -0.5668
 6683TIP3    H220014   3.216   4.477   2.955 -2.3979  1.1725 -3.2385
 6684TIP3   OH220015   0.480   2.108   2.910 -0.3023  0.9783  0.5586
 6684TIP3    H120016   0.550   2.156   2.955  0.3931  0.5762 -0.0795
 6684TIP3    H220017   0.404   2.165   2.918 -0.4574  0.5257  3.0258
 6685TIP3   OH220018   3.331   1.725   3.658 -0.2300 -0.8940 -0.4263
 6685TIP3    H120019   3.296   1.781   3.727  0.1830  0.0114 -0.9337
 6685TIP3    H220020   3.254   1.687   3.616 -0.4906 -1.2672  0.3675
 6686TIP3   OH220021   1.656   4.191   5.277 -0.0414 -0.0328 -0.1064
 6686TIP3    H120022   1.637   4.266   5.334  1.7345  0.7146 -0.4112
 6686TIP3    H220023   1.590   4.126   5.299 -3.6210  2.6108 -1.8852
 6687TIP3   OH220024   2.043   0.694   0.972 -0.6093 -0.3507 -0.0017
 6687TIP3    H120025   2.085   0.619   0.930 -1.0152 -0.1571 -0.7749
 6687TIP3    H220026   2.115   0.751   0.999 -0.3633  0.4300 -2.1415
 6688TIP3   OH220027   6.839   5.961   1.445  0.7730 -0.6694 -0.3176
 6688TIP3    H120028   6.930   5.977   1.418  1.1332  0.0487  1.2184
 6688TIP3    H220029   6.836   5.867   1.463  1.3310 -0.6237  0.0417
 6689TIP3   OH220030   0.432   2.113   2.538 -0.2163 -0.3936 -0.0744
 6689TIP3    H120031   0.442   2.187   2.598 -1.4721  0.3022 -0.6794
 6689TIP3    H220032   0.352   2.069   2.566  0.2502 -1.2339 -0.0320
 6690TIP3   OH220033   4.763   4.733   2.438  0.3166  0.0991 -0.2954
 6690TIP3    H120034   4.717   4.664   2.487  0.3630  1.1858  1.3601
 6690TIP3    H220035   4.848   4.694   2.416  1.0166  0.1132  2.0965
 6691TIP3   OH220036   6.602   5.044   3.989  0.2235  0.3238  0.2761
 6691TIP3    H120037   6.510   5.068   3.981 -0.6053 -2.6230 -0.3693
 6691TIP3    H220038   6.639   5.110   4.046 -1.7861  2.7695 -1.0633
 6692TIP3   OH220039   6.466   1.481   3.275 -0.2994 -0.1651 -0.3180
 6692TIP3    H120040   6.424   1.565   3.256  1.3428  0.7554 -0.0123
 6692TIP3    H220041   6.527   1.468   3.203 -0.7331 -1.2635 -0.5117
 6693TIP3   OH220042   0.654   5.173   4.611 -0.1506 -0.0432  0.9354
 6693TIP3    H120043   0.644   5.134   4.698  0.7249  1.1052  1.5707
 6693TIP3    H220044   0.721   5.240   4.622  0.3624 -0.2284 -0.7501
 6694TIP3   OH220045   4.006   5.733   4.367  0.0527  0.3386  0.3744
 6694TIP3    H120046   4.081   5.674   4.352 -0.3649  0.2327 -1.5302
 6694TIP3    H220047   4.023   5.772   4.453  0.7993 -1.8723  1.3014
 6695TIP3   OH220048   1.710   4.676   5.317  0.4625 -0.3854 -0.3779
 6695TIP3    H120049   1.796   4.638   5.330  1.8721  1.9127 -2.2732
 6695TIP3    H220050   1.660   4.608   5.272  1.7282 -1.2578 -0.5012
 6696TIP3   OH220051   0.265   2.060   1.416 -0.3815  0.1454 -0.4122
 6696TIP3    H120052   0.332   2.118   1.453  0.2451 -0.4707 -0.5598
 6696TIP3    H220053   0.191   2.117   1.398 -0.6948  0.5082  1.7277
 6697TIP3   OH220054   2.427   4.866   5.287 -0.0348  0.7865 -0.1996
 6697TIP3    H120055   2.385   4.942   5.247 -0.0762  0.3647 -0.9850
 6697TIP3    H220056   2.521   4.882   5.276 -0.0366  0.8521 -0.1196
 6698TIP3   OH220057   3.756   6.138   4.994 -0.1610  0.5318  0.2003
 6698TIP3    H120058   3.783   6.222   4.957  2.2007 -0.5003 -0.6283
 6698TIP3    H220059   3.817   6.124   5.067 -0.6591 -0.3711  0.4528
 6699TIP3   OH220060   1.065   6.628   0.189  0.0025 -0.1684  0.2138
 6699TIP3    H120061   1.079   6.601   0.099  0.3078  0.8539 -0.0610
 6699TIP3    H220062   1.059   6.546   0.238  0.7475 -0.7249 -0.5912
 6700TIP3   OH220063   1.685   3.112   5.798 -0.1826  0.1864 -0.1665
 6700TIP3    H120064   1.591   3.128   5.808 -0.1984  2.6785 -3.0131
 6700TIP3    H220065   1.695   3.073   5.712  1.3093 -2.2013  0.9712
 6701TIP3   OH220066   5.106   3.754   5.509  0.0155 -0.2893  0.0296
 6701TIP3    H120067   5.112   3.662   5.484  2.8839 -0.0270 -0.5652
 6701TIP3    H220068   5.115   3.803   5.427  0.6887  0.5261  0.5682
 6702TIP3   OH220069   6.022   1.994   1.795  0.1248  0.6048 -0.5146
 6702TIP3    H120070   6.039   2.075   1.748  1.5870  0.3468 -0.4756
 6702TIP3    H220071   6.104   1.976   1.842 -1.1132  0.6111  1.7855
 6703TIP3   OH220072   1.596   6.695   3.634  0.5388  0.5088  0.1909
 6703TIP3    H120073   1.548   6.712   3.553  2.4779 -0.1619 -1.1624
 6703TIP3    H220074   1.582   6.774   3.687  0.8157  1.8089 -1.5982
 6704TIP3   OH220075   3.831   3.671   1.844 -0.6979 -0.4257  0.0317
 6704TIP3    H120076   3.826   3.759   1.807  1.7401 -0.9933 -1.9324
 6704TIP3    H220077   3.788   3.616   1.779  0.7396 -1.0446 -0.4366
 6705TIP3   OH220078   1.945   5.340   2.328  0.3432 -0.2718 -0.3366
 6705TIP3    H120079   1.899   5.279   2.384  2.1485 -0.2552  1.2725
 6705TIP3    H220080   1.954   5.294   2.244 -1.7620 -0.5729 -0.4478
 6706TIP3   OH220081   3.854   2.461   2.275 -0.2733  0.6342  0.3354
 6706TIP3    H120082   3.863   2.432   2.185  0.7880  2.1159 -0.0868
 6706TIP3    H220083   3.770   2.426   2.304 -0.3120 -0.4465 -0.9916
 6707TIP3   OH220084   7.090   6.630   2.001  0.4807 -0.7535 -0.4497
 6707TIP3    H120085   7.020   6.649   2.063  1.0016  1.4114 -0.4521
 6707TIP3    H220086   7.078   6.538   1.978 -2.0089 -0.5891 -0.0331
 6708TIP3   OH220087   2.993   4.582   2.746 -0.4817 -0.3219  0.3267
 6708TIP3    H120088   2.966   4.516   2.682 -1.0360  0.5923 -0.4060
 6708TIP3    H220089   2.950   4.662   2.717  0.0390  0.3252  1.3035
 6709TIP3   OH220090   2.227   0.697   3.192  0.6304  0.3708  0.0298
 6709TIP3    H120091   2.285   0.770   3.213  0.4749  1.0430 -1.7145
 6709TIP3    H220092   2.212   0.705   3.098  0.5244 -1.8669 -0.1936
 6710TIP3   OH220093   2.183   5.093   5.475  0.4603  0.1469  0.5453
 6710TIP3    H120094   2.211   5.111   5.564  0.1728 -3.1555  1.4336
 6710TIP3    H220095   2.163   4.999   5.474 -1.1952  0.3797 -2.5589
 6711TIP3   OH220096   4.595   0.305   1.308 -0.4488 -0.0112 -0.4842
 6711TIP3    H120097   4.629   0.238   1.367 -0.3079  0.6831  0.2481
 6711TIP3    H220098   4.649   0.382   1.326 -1.1711  0.5519 -0.6789
 6712TIP3   OH220099   0.165   5.109   0.887 -0.5111 -0.4453 -0.0219
 6712TIP3    H120100   0.107   5.160   0.831 -0.1463  0.8833  0.7620
 6712TIP3    H220101   0.154   5.148   0.974  1.8396  0.0892  0.0803
 6713TIP3   OH220102   3.587   4.554   2.142  0.4366  0.1329  0.1826
 6713TIP3    H120103   3.649   4.608   2.093  2.6041 -1.9651  0.4368
 6713TIP3    H220104   3.506   4.561   2.093  1.2978  1.6707 -1.1339
 6714TIP3   OH220105   3.762   4.592   3.134  0.3850 -0.7950  0.5576
 6714TIP3    H120106   3.816   4.513   3.139  1.6568  0.0444  0.7294
 6714TIP3    H220107   3.685   4.565   3.085  1.7188 -1.6493 -1.1684
 6715TIP3   OH220108   0.116   6.399   1.795  0.0140  0.1057 -0.6173
 6715TIP3    H120109   0.169   6.354   1.728  1.4082  1.0949 -0.2364
 6715TIP3    H220110   0.070   6.468   1.746  0.3970  0.3082 -0.7002
 6716TIP3   OH220111   1.556   4.833   4.747 -0.2908 -0.4990 -0.6492
 6716TIP3    H120112   1.470   4.826   4.789  0.4403  0.1255  1.0491
 6716TIP3    H220113   1.560   4.923   4.715  1.2145  0.9142  2.9592
 6717TIP3   OH220114   5.670   1.127   3.435  0.2985  0.5717 -0.7703
 6717TIP3    H120115   5.592   1.071   3.424 -1.0671  2.0679  0.6830
 6717TIP3    H220116   5.644   1.190   3.501  3.2419  0.3446  0.7459
 6718TIP3   OH220117   0.305   4.839   2.775  0.0722  0.1710  0.1164
 6718TIP3    H120118   0.356   4.878   2.703 -0.7578  1.2556  0.0775
 6718TIP3    H220119   0.371   4.811   2.839  0.7582  0.6492 -0.3637
 6719TIP3   OH220120   6.192   5.474   1.628 -0.5337  0.5531 -0.2501
 6719TIP3    H120121   6.131   5.435   1.691  0.7594  1.4251  1.6492
 6719TIP3    H220122   6.206   5.405   1.563 -1.6347 -0.5409  0.6144
 6720TIP3   OH220123   3.132   5.452   0.571  0.5352  0.6601 -0.5309
 6720TIP3    H120124   3.170   5.390   0.634 -0.3716 -0.1422 -0.7591
 6720TIP3    H220125   3.100   5.524   0.625  0.7403  0.4912 -0.1770
 6721TIP3   OH220126   1.864   1.873   4.795  0.0648  0.1268 -0.3242
 6721TIP3    H120127   1.820   1.883   4.711 -2.1089  1.6343  0.9136
 6721TIP3    H220128   1.829   1.792   4.831 -2.4702  1.7014  0.9935
 6722TIP3   OH220129   6.686   5.297   3.173 -0.0881  0.0556  0.5576
 6722TIP3    H120130   6.697   5.250   3.090  0.6902  0.3472  0.4873
 6722TIP3    H220131   6.634   5.238   3.228  1.2216 -1.0704  0.6225
 6723TIP3   OH220132   0.691   5.497   0.960  0.2614  0.2814  0.2800
 6723TIP3    H120133   0.653   5.513   1.046  0.4930 -0.3994  0.5097
 6723TIP3    H220134   0.661   5.571   0.907 -0.7688  0.1380  0.6474
 6724TIP3   OH220135   4.378   1.382   4.176 -0.1212 -0.0735  0.2674
 6724TIP3    H120136   4.331   1.377   4.093  0.7287 -1.8676 -0.1529
 6724TIP3    H220137   4.398   1.291   4.197  1.2336  0.4905  1.5533
 6725TIP3   OH220138   3.513   2.870   2.574  0.2185 -0.0546  0.0337
 6725TIP3    H120139   3.541   2.961   2.586  0.7548 -0.0519 -1.0468
 6725TIP3    H220140   3.447   2.875   2.504 -0.2769 -0.4207  0.4675
 6726TIP3   OH220141   2.223   6.412   3.722  0.0484 -0.0505  0.0486
 6726TIP3    H120142   2.158   6.431   3.654 -0.0756  0.5217  0.3208
 6726TIP3    H220143   2.172   6.383   3.797  0.2845 -2.8599 -0.7490
 6727TIP3   OH220144   6.383   2.462   3.474  0.2989 -0.5307  0.3391
 6727TIP3    H120145   6.308   2.504   3.516  0.2673 -1.6824  1.4844
 6727TIP3    H220146   6.366   2.471   3.380  0.4172  2.1832  0.5024
 6728TIP3   OH220147   0.135   0.437   0.502 -0.2369  0.2837  0.3376
 6728TIP3    H120148   0.211   0.378   0.505 -0.0040  0.5524 -0.2476
 6728TIP3    H220149   0.172   0.524   0.492 -0.6365  0.3453 -0.7369
 6729TIP3   OH220150   0.680   3.655   2.754 -0.2630  0.0846 -0.1972
 6729TIP3    H120151   0.755   3.650   2.813  0.0966 -1.2856 -0.7395
 6729TIP3    H220152   0.621   3.718   2.796  0.5910  0.1826  0.9085
 6730TIP3   OH220153   4.262   5.310   1.484  0.2891 -0.2515  1.0069
 6730TIP3    H120154   4.197   5.364   1.437  0.5564 -1.1346 -0.4272
 6730TIP3    H220155   4.216   5.282   1.563  0.8627  3.9508  3.1432
 6731TIP3   OH220156   1.298   2.197   4.524  0.1284  0.1179 -0.1800
 6731TIP3    H120157   1.289   2.237   4.611 -0.6233 -2.1786  0.8682
 6731TIP3    H220158   1.209   2.195   4.489 -0.0396 -1.4888  0.2434
 6732TIP3   OH220159   4.771   1.309   2.434  0.3131  0.5640  0.4050
 6732TIP3    H120160   4.714   1.350   2.499 -0.1181  1.2091 -0.3506
 6732TIP3    H220161   4.857   1.307   2.474 -0.2809 -0.7642  1.7251
 6733TIP3   OH220162   1.082   2.453   3.959 -0.0783  0.4021 -0.7911
 6733TIP3    H120163   1.069   2.386   3.892  2.0666 -0.8250 -0.0767
 6733TIP3    H220164   1.049   2.413   4.040 -0.8275  1.1036 -0.7348
 6734TIP3   OH220165   5.029   1.354   2.125 -0.7310 -0.2714  0.6300
 6734TIP3    H120166   4.946   1.374   2.082 -1.2659 -2.1203  0.7293
 6734TIP3    H220167   5.017   1.267   2.163  1.1942 -0.5176  0.7984
 6735TIP3   OH220168   0.495   0.573   0.479 -0.0204 -1.0075 -0.3973
 6735TIP3    H120169   0.574   0.554   0.531  0.6046 -2.0162 -1.6495
 6735TIP3    H220170   0.524   0.564   0.388 -0.7129  2.1533 -1.0352
 6736TIP3   OH220171   2.528   0.605   0.948 -0.3084 -0.3805 -0.2595
 6736TIP3    H120172   2.618   0.597   0.917 -0.1307 -2.8048  0.6649
 6736TIP3    H220173   2.476   0.619   0.869  0.7775  0.1173 -0.9002
 6737TIP3   OH220174   3.244   2.905   4.235 -0.1360  0.1577 -0.0597
 6737TIP3    H120175   3.222   2.886   4.144  0.2479  0.5012 -0.2259
 6737TIP3    H220176   3.206   2.832   4.285  0.9309 -0.8278 -0.6365
 6738TIP3   OH220177   4.195   2.765   2.271 -0.6412  0.3505 -0.2000
 6738TIP3    H120178   4.172   2.690   2.326  0.5528  0.3882  0.3892
 6738TIP3    H220179   4.166   2.841   2.321  2.4264  0.5383  1.5783
 6739TIP3   OH220180   4.027   2.836   0.297 -0.2816  0.7928  0.3325
 6739TIP3    H120181   3.992   2.881   0.374  1.9759  2.9346  0.2448
 6739TIP3    H220182   4.122   2.836   0.311  0.0189 -0.8623 -1.3886
 6740TIP3   OH220183   6.504   1.258   0.805 -0.0590  0.6049  0.0306
 6740TIP3    H120184   6.496   1.258   0.710  0.3528  1.1458 -0.0091
 6740TIP3    H220185   6.414   1.254   0.837 -0.1675 -1.3900 -0.3607
 6741TIP3   OH220186   3.028   4.521   1.131  0.6115 -0.3844  0.1922
 6741TIP3    H120187   2.980   4.561   1.059 -0.5692 -0.0065  1.1602
 6741TIP3    H220188   3.056   4.595   1.186  1.4293 -0.6684  0.1735
 6742TIP3   OH220189   5.126   1.664   3.865 -0.1305  0.0260  0.0770
 6742TIP3    H120190   5.116   1.651   3.959 -0.1643 -1.2294 -0.0871
 6742TIP3    H220191   5.216   1.692   3.854 -0.4137  1.1788  0.5714
 6743TIP3   OH220192   2.065   6.157   0.290  0.3161 -0.0494 -0.2388
 6743TIP3    H120193   1.982   6.202   0.309  0.4143 -0.1570  0.5078
 6743TIP3    H220194   2.052   6.069   0.326  1.4104  0.4995  1.6208
 6744TIP3   OH220195   6.509   5.985   3.854 -0.6956 -0.8023  0.0025
 6744TIP3    H120196   6.524   5.978   3.760 -1.7939 -1.2858 -0.1580
 6744TIP3    H220197   6.563   5.916   3.892  2.2819  1.3710  0.0871
 6745TIP3   OH220198   1.879   5.520   1.930  0.0155 -0.3040  0.4267
 6745TIP3    H120199   1.884   5.584   2.001  1.1673  1.2186 -0.9565
 6745TIP3    H220200   1.789   5.486   1.935  0.0633 -0.2215  2.5630
 6746TIP3   OH220201   5.670   4.357   1.367  0.3675 -0.2338  0.2287
 6746TIP3    H120202   5.650   4.435   1.419 -0.6832 -0.6894  0.5267
 6746TIP3    H220203   5.650   4.284   1.424  0.0560 -0.7425 -0.5151
 6747TIP3   OH220204   6.221   5.189   3.993 -0.2365 -1.0236 -0.1928
 6747TIP3    H120205   6.146   5.201   4.052 -1.3374 -0.4717 -1.6337
 6747TIP3    H220206   6.252   5.101   4.012 -1.8097 -1.6029 -0.1275
 6748TIP3   OH220207   1.799   5.523   3.403  0.1934 -0.2204  0.4525
 6748TIP3    H120208   1.785   5.560   3.316 -2.7125 -0.0352  0.8720
 6748TIP3    H220209   1.815   5.598   3.459  1.9206 -0.3283  0.1649
 6749TIP3   OH220210   7.179   2.822   0.964  0.3637 -0.4273  0.3291
 6749TIP3    H120211   7.181   2.917   0.954  0.2539 -0.4523  0.0786
 6749TIP3    H220212   7.165   2.809   1.058  1.9868 -0.2095  0.6244
 6750TIP3   OH220213   5.106   1.908   5.903 -0.2749  0.6295 -0.5006
 6750TIP3    H120214   5.016   1.941   5.902 -1.4590 -2.2916 -1.0712
 6750TIP3    H220215   5.110   1.846   5.830  1.2552 -1.5051  1.2596
 6751TIP3   OH220216   4.864   0.305   0.159  0.0963  0.2363  0.4279
 6751TIP3    H120217   4.835   0.395   0.144 -1.2191 -0.0411  1.2312
 6751TIP3    H220218   4.960   0.309   0.149 -0.0844  1.3654 -1.2328
 6752TIP3   OH220219   2.487   5.217   0.391 -0.4924  0.3440  0.3540
 6752TIP3    H120220   2.579   5.244   0.397 -0.3926  0.0254  0.3068
 6752TIP3    H220221   2.461   5.202   0.482  0.3848 -2.4078  0.2462
 6753TIP3   OH220222   5.054   2.640   5.534  0.0527  0.0534 -0.4228
 6753TIP3    H120223   5.090   2.658   5.621  0.9324  1.2483 -0.9942
 6753TIP3    H220224   4.991   2.711   5.519 -1.8228 -1.4087  0.1207
 6754TIP3   OH220225   5.333   3.774   3.765 -0.0278 -0.1277  0.0240
 6754TIP3    H120226   5.268   3.841   3.742 -1.9367 -2.6384 -2.7750
 6754TIP3    H220227   5.376   3.754   3.682  0.7816 -2.0301  0.8450
 6755TIP3   OH220228   6.532   6.158   1.003  0.1357  0.0109 -0.4162
 6755TIP3    H120229   6.540   6.243   1.045 -0.2368 -0.0342 -0.2473
 6755TIP3    H220230   6.513   6.097   1.075 -0.4430 -0.0743 -0.6305
 6756TIP3   OH220231   1.520   5.552   1.677  0.2285 -0.1736  0.4828
 6756TIP3    H120232   1.439   5.501   1.678  0.9145 -1.3257 -0.4123
 6756TIP3    H220233   1.513   5.606   1.598  0.7929 -1.0830 -0.2074
 6757TIP3   OH220234   6.392   0.695   2.971  0.3756 -0.0571 -0.1822
 6757TIP3    H120235   6.343   0.740   3.040  0.7152 -0.4683  0.3359
 6757TIP3    H220236   6.334   0.696   2.895  0.2102  0.8723 -0.0538
 6758TIP3   OH220237   1.249   1.644   0.630 -0.3021  0.4553 -0.0599
 6758TIP3    H120238   1.157   1.648   0.604 -1.4213  1.0584  3.4103
 6758TIP3    H220239   1.251   1.576   0.698  1.2359  2.0919  1.6712
 6759TIP3   OH220240   1.080   6.740   0.854 -0.2240 -0.0918  0.1193
 6759TIP3    H120241   1.130   6.819   0.834  2.8331 -1.5734  1.2404
 6759TIP3    H220242   1.132   6.668   0.817  0.3072 -2.0285  4.0869
 6760TIP3   OH220243   6.087   1.883   5.054 -0.4323  0.5565  0.1328
 6760TIP3    H120244   6.073   1.799   5.098  0.8809  0.7474  0.9640
 6760TIP3    H220245   6.036   1.877   4.973  1.1786 -1.8262 -0.7997
 6761TIP3   OH220246   5.865   1.282   3.266  0.0264  0.9527 -0.1639
 6761TIP3    H120247   5.951   1.314   3.293  0.1740  2.7934 -2.4884
 6761TIP3    H220248   5.884   1.209   3.206 -0.1073  0.5627  0.2574
 6762TIP3   OH220249   5.296   1.653   4.165  0.3621  0.8147  0.2142
 6762TIP3    H120250   5.385   1.643   4.197  1.2040  2.2468 -1.4953
 6762TIP3    H220251   5.261   1.564   4.161  1.2711  0.3415  2.0596
 6763TIP3   OH220252   0.507   2.132   3.952 -0.4333  0.6345 -0.1752
 6763TIP3    H120253   0.458   2.158   3.874  0.1837  0.9582 -0.4582
 6763TIP3    H220254   0.599   2.146   3.929 -0.1033 -1.2299 -0.1289
 6764TIP3   OH220255   5.289   2.852   2.558  0.7267  0.1577  0.4285
 6764TIP3    H120256   5.360   2.802   2.598  0.0421  0.0223  1.5197
 6764TIP3    H220257   5.214   2.837   2.615  0.3323  1.9296  0.4407
 6765TIP3   OH220258   3.597   3.305   3.259  0.2928  0.0944 -0.4092
 6765TIP3    H120259   3.560   3.337   3.176  0.6469 -1.9188 -1.4130
 6765TIP3    H220260   3.675   3.257   3.233  0.8440  0.0829  1.1961
 6766TIP3   OH220261   4.374   1.824   4.725 -0.3599 -0.1971 -0.0951
 6766TIP3    H120262   4.321   1.770   4.667  0.3004  0.7392 -1.6105
 6766TIP3    H220263   4.440   1.863   4.669  0.6259  0.3578  1.3775
 6767TIP3   OH220264   6.697   6.030   0.819 -1.0340 -0.0126 -0.3007
 6767TIP3    H120265   6.786   6.064   0.825 -0.8403 -0.7481  1.4245
 6767TIP3    H220266   6.642   6.098   0.859 -0.9614 -0.5502  0.7297
 6768TIP3   OH220267   6.724   4.898   3.529  0.4021  0.3596  0.2784
 6768TIP3    H120268   6.769   4.953   3.594  1.0871  1.6156 -1.1919
 6768TIP3    H220269   6.663   4.845   3.580  1.5598  0.6545  2.0337
 6769TIP3   OH220270   4.555   5.433   0.555 -0.5306  0.0161  0.3523
 6769TIP3    H120271   4.541   5.373   0.629 -0.1899  0.2215  0.5897
 6769TIP3    H220272   4.560   5.376   0.479 -1.5143 -0.1492  0.3968
 6770TIP3   OH220273   2.572   1.124   3.471 -0.7215  0.2103 -0.0971
 6770TIP3    H120274   2.555   1.155   3.382  0.7530  0.9065 -0.1655
 6770TIP3    H220275   2.565   1.203   3.525 -0.0018  0.1072  0.1612
 6771TIP3   OH220276   2.362   5.309   5.625  0.2397  0.3841 -0.0766
 6771TIP3    H120277   2.378   5.340   5.536 -0.8823  0.5276 -0.2482
 6771TIP3    H220278   2.339   5.388   5.674  1.2586  0.3696  0.4582
 6772TIP3   OH220279   4.598   3.841   0.838 -0.3313  0.1919 -0.8163
 6772TIP3    H120280   4.676   3.885   0.804 -1.1275  1.7209 -0.7422
 6772TIP3    H220281   4.624   3.749   0.845  1.4436  0.6482 -0.8533
 6773TIP3   OH220282   0.564   4.881   3.660  0.3220  0.0558  0.1045
 6773TIP3    H120283   0.556   4.974   3.637 -0.9217 -0.3142 -1.1060
 6773TIP3    H220284   0.631   4.847   3.601  0.0810 -0.0224 -0.1239
 6774TIP3   OH220285   5.360   5.635   0.461  0.0097  0.8120 -0.1977
 6774TIP3    H120286   5.349   5.598   0.373  3.4538 -0.2630 -0.3484
 6774TIP3    H220287   5.412   5.714   0.446  0.6144  0.6258  0.8517
 6775TIP3   OH220288   5.550   2.374   3.542  0.3193 -0.0087 -0.0960
 6775TIP3    H120289   5.526   2.431   3.468 -0.1788 -1.3732 -1.0218
 6775TIP3    H220290   5.600   2.431   3.600 -1.5964  1.8693 -0.1366
 6776TIP3   OH220291   5.815   5.657   4.774 -0.1057 -0.2387 -0.5748
 6776TIP3    H120292   5.745   5.658   4.708 -0.5220  0.1773 -0.1359
 6776TIP3    H220293   5.785   5.593   4.839 -0.7646  0.9445  0.3242
 6777TIP3   OH220294   4.077   2.955   2.101  0.9108 -0.1281 -0.0856
 6777TIP3    H120295   4.129   2.939   2.180 -0.4941 -1.4473  0.6152
 6777TIP3    H220296   4.014   2.883   2.098  0.9061 -0.1030 -2.4249
 6778TIP3   OH220297   4.570   0.133   1.074 -0.1497  0.7995 -0.0297
 6778TIP3    H120298   4.583   0.225   1.096 -1.3552  0.6567  1.4326
 6778TIP3    H220299   4.476   0.125   1.059  0.1402  0.0789 -1.5694
 6779TIP3   OH220300   0.419   3.644   5.711  0.2650  0.0989  0.5125
 6779TIP3    H120301   0.416   3.633   5.806  1.2683 -2.9557  0.3025
 6779TIP3    H220302   0.497   3.696   5.695  0.0539  0.6949  1.3659
 6780TIP3   OH220303   4.041   0.242   1.007 -0.6384 -0.5210  0.2935
 6780TIP3    H120304   3.988   0.220   1.084 -1.2657 -1.6214 -0.4270
 6780TIP3    H220305   4.004   0.324   0.975  1.0640  1.2162  2.4221
 6781TIP3   OH220306   2.450   0.726   1.827 -0.2398 -0.2042  0.2690
 6781TIP3    H120307   2.490   0.693   1.908  0.9013 -1.7312 -0.8556
 6781TIP3    H220308   2.392   0.797   1.856  1.8383  0.8532  2.2019
 6782TIP3   OH220309   3.558   0.205   2.067 -0.2260 -0.5837  0.2883
 6782TIP3    H120310   3.605   0.241   2.142 -2.1172 -0.4633  1.5029
 6782TIP3    H220311   3.612   0.226   1.991  0.3183  1.9751  1.2991
 6783TIP3   OH220312   4.403   5.398   2.949 -0.4762 -0.2152 -0.2732
 6783TIP3    H120313   4.480   5.379   2.896  0.1779  0.7536  0.2976
 6783TIP3    H220314   4.438   5.421   3.035 -1.3072  1.3327 -0.3156
 6784TIP3   OH220315   0.851   3.161   0.707 -0.5515 -0.2396  0.6764
 6784TIP3    H120316   0.768   3.131   0.744 -0.4038 -0.4154  0.8683
 6784TIP3    H220317   0.836   3.162   0.612 -0.4281 -1.3129  0.6432
 6785TIP3   OH220318   3.655   1.527   5.520 -0.0166 -0.2702  0.2360
 6785TIP3    H120319   3.617   1.536   5.432  0.8849 -0.2493 -0.1636
 6785TIP3    H220320   3.630   1.439   5.547  0.5628 -0.6605 -0.4734
 6786TIP3   OH220321   0.420   5.657   3.436 -0.0230 -0.0377 -0.5992
 6786TIP3    H120322   0.454   5.636   3.349  3.2382 -1.6455  0.8842
 6786TIP3    H220323   0.407   5.572   3.478  2.4253  0.6312  1.7764
 6787TIP3   OH220324   0.894   2.034   1.022  0.2145  0.3775  0.0677
 6787TIP3    H120325   0.888   2.124   1.051 -2.2413  0.4964 -0.5650
 6787TIP3    H220326   0.920   2.040   0.930  2.3674  0.2768  0.6269
 6788TIP3   OH220327   5.788   3.091   2.988 -0.1261  0.0731  0.0739
 6788TIP3    H120328   5.814   3.174   2.948  0.9437  0.0768  0.7307
 6788TIP3    H220329   5.863   3.066   3.042 -1.3786 -0.1012  1.8056
 6789TIP3   OH220330   2.168   5.290   3.475 -0.1985  0.4011 -0.0170
 6789TIP3    H120331   2.239   5.237   3.510 -0.3182  0.7996  0.8642
 6789TIP3    H220332   2.174   5.280   3.380  0.2320 -0.5911  0.1079
 6790TIP3   OH220333   2.628   3.175   3.669  0.0323  0.1760  0.0131
 6790TIP3    H120334   2.656   3.139   3.585 -0.0365  2.3415 -1.0097
 6790TIP3    H220335   2.537   3.147   3.678  0.3651 -1.0003 -0.0524
 6791TIP3   OH220336   1.758   4.974   2.418 -0.2731 -0.8085 -0.6631
 6791TIP3    H120337   1.754   5.016   2.332  0.2712 -2.1409 -1.3746
 6791TIP3    H220338   1.772   5.046   2.480  0.9430  0.0401 -1.8554
 6792TIP3   OH220339   6.094   0.955   5.880 -0.2199 -0.1564 -0.9251
 6792TIP3    H120340   6.082   1.047   5.854 -2.3611 -0.4776 -1.2684
 6792TIP3    H220341   6.093   0.906   5.798  1.0679 -0.5112 -0.7546
 6793TIP3   OH220342   4.630   3.493   4.157 -0.1577 -0.3219 -0.9654
 6793TIP3    H120343   4.611   3.432   4.085  0.7270 -0.5301 -1.0407
 6793TIP3    H220344   4.687   3.443   4.216 -0.4553  0.0221 -0.3790
 6794TIP3   OH220345   3.547   6.593   1.835  0.3615  0.2626 -0.4707
 6794TIP3    H120346   3.581   6.630   1.916  1.1887 -0.7296 -0.3468
 6794TIP3    H220347   3.461   6.558   1.859  1.2443 -1.4392  0.4113
 6795TIP3   OH220348   6.862   5.803   0.606 -0.0906  0.2791 -0.1571
 6795TIP3    H120349   6.951   5.774   0.628 -0.1099  1.1170  1.0853
 6795TIP3    H220350   6.866   5.898   0.610 -1.5428  0.3280  2.1276
 6796TIP3   OH220351   5.226   5.105   2.988  0.8950  0.1407 -0.1193
 6796TIP3    H120352   5.192   5.107   3.077 -0.2958  1.7206 -0.5567
 6796TIP3    H220353   5.311   5.148   2.994  0.4614  0.9800  0.1372
 6797TIP3   OH220354   1.875   6.620   5.058 -0.1080  0.2292  0.1691
 6797TIP3    H120355   1.817   6.692   5.084  0.0364 -0.4231  2.5287
 6797TIP3    H220356   1.960   6.661   5.047  0.5731  0.1959  4.0190
 6798TIP3   OH220357   6.837   1.826   1.053 -0.4700 -0.3764 -0.0916
 6798TIP3    H120358   6.787   1.840   1.133 -0.3707  0.6031 -0.1841
 6798TIP3    H220359   6.882   1.909   1.038 -1.4788 -0.0994 -1.8492
 6799TIP3   OH220360   1.400   3.762   1.278  0.1272 -0.3047  0.2526
 6799TIP3    H120361   1.310   3.728   1.282  0.0283  0.0315  1.6591
 6799TIP3    H220362   1.409   3.796   1.189 -0.6416 -1.6383 -0.3703
 6800TIP3   OH220363   5.062   3.725   5.791 -0.2157 -0.0720 -0.3207
 6800TIP3    H120364   4.973   3.759   5.781 -1.1500 -1.9878  0.9654
 6800TIP3    H220365   5.088   3.702   5.702 -0.0912  2.5201 -1.0310
 6801TIP3   OH220366   0.669   2.259   2.642 -0.1763 -0.1802  0.0055
 6801TIP3    H120367   0.744   2.304   2.678  0.4193  0.5681 -2.0137
 6801TIP3    H220368   0.594   2.312   2.667  0.1820  0.1521  0.3741
 6802TIP3   OH220369   1.386   3.849   4.014  0.5615 -0.1276 -0.0108
 6802TIP3    H120370   1.372   3.794   3.937  0.9231 -0.0752 -0.1172
 6802TIP3    H220371   1.371   3.790   4.088 -2.1351  0.3866 -0.0658
 6803TIP3   OH220372   2.598   2.793   4.433  0.1983  0.0873  0.2157
 6803TIP3    H120373   2.621   2.860   4.497 -1.4245  0.0577  0.8886
 6803TIP3    H220374   2.577   2.716   4.486 -0.9530 -0.0031 -0.3296
 6804TIP3   OH220375   0.174   3.205   1.268  0.1404  0.1107  0.0212
 6804TIP3    H120376   0.206   3.157   1.191  0.3649 -2.2044  1.4603
 6804TIP3    H220377   0.164   3.138   1.335  0.5064  2.1480  2.2255
 6805TIP3   OH220378   5.476   3.931   4.381  0.1656 -0.0887 -0.3594
 6805TIP3    H120379   5.433   3.952   4.464  0.4760  0.7687 -0.3978
 6805TIP3    H220380   5.545   3.997   4.373 -0.1670  0.1495 -1.5297
 6806TIP3   OH220381   7.116   0.231   4.297 -0.3045  0.0646  0.4773
 6806TIP3    H120382   7.141   0.138   4.294  0.4417  0.2777  0.0526
 6806TIP3    H220383   7.024   0.231   4.270  0.0729 -0.4199 -0.8542
 6807TIP3   OH220384   1.223   5.385   4.307  0.0331 -0.3999 -0.0137
 6807TIP3    H120385   1.235   5.386   4.212 -1.1148 -2.1639 -0.2235
 6807TIP3    H220386   1.310   5.365   4.341  0.7011  1.3384 -0.5906
 6808TIP3   OH220387   0.162   2.137   2.923  0.1736 -0.2050  0.2022
 6808TIP3    H120388   0.104   2.139   2.847  0.2085 -2.4955  0.0441
 6808TIP3    H220389   0.113   2.086   2.988  0.8812  0.2091  1.0745
 6809TIP3   OH220390   6.918   0.668   4.697  0.2964 -0.3172  0.1599
 6809TIP3    H120391   6.907   0.620   4.779  1.0179 -1.7021 -0.5179
 6809TIP3    H220392   7.006   0.706   4.703 -0.0345  0.4319  0.4313
 6810TIP3   OH220393   5.879   2.035   4.639  0.1455 -0.0315 -0.8371
 6810TIP3    H120394   5.872   2.129   4.657  1.1784 -0.1181  0.1106
 6810TIP3    H220395   5.800   1.998   4.678  1.1475  0.1084  1.4661
 6811TIP3   OH220396   0.784   2.256   3.903 -0.5688  0.0336 -0.0938
 6811TIP3    H120397   0.777   2.268   3.808 -1.4679  0.7158  0.0393
 6811TIP3    H220398   0.870   2.217   3.916 -0.0409  0.7909 -1.1223
 6812TIP3   OH220399   3.517   2.207   2.723  0.4901  0.1767 -0.1967
 6812TIP3    H120400   3.592   2.158   2.756 -0.0765  0.7838  2.1185
 6812TIP3    H220401   3.488   2.262   2.796 -1.1238  1.3033 -1.5716
 6813TIP3   OH220402   6.176   6.605   3.823  0.5538  0.3012 -0.0198
 6813TIP3    H120403   6.133   6.690   3.836  1.2192  0.4231  1.7146
 6813TIP3    H220404   6.111   6.541   3.852  0.7063  0.3480  0.4389
 6814TIP3   OH220405   4.879   2.711   3.943 -0.2775  0.4240 -0.1176
 6814TIP3    H120406   4.896   2.642   4.008 -2.9367 -1.0708 -0.8847
 6814TIP3    H220407   4.966   2.731   3.906  0.6186 -2.4266  0.2369
 6815TIP3   OH220408   3.696   4.813   1.415  0.0422  0.1360  0.7128
 6815TIP3    H120409   3.601   4.797   1.414  0.2024 -1.3322 -1.8941
 6815TIP3    H220410   3.714   4.854   1.330  1.6790  0.9893  1.4323
 6816TIP3   OH220411   5.211   5.019   3.449 -0.2130 -0.0635 -0.3398
 6816TIP3    H120412   5.146   5.007   3.518 -1.3826 -0.4689 -1.4772
 6816TIP3    H220413   5.249   4.931   3.438 -0.7062 -0.2154 -0.8584
 6817TIP3   OH220414   4.932   4.507   4.094  0.1600 -0.6998 -0.3726
 6817TIP3    H120415   5.026   4.496   4.106  0.0005  0.1592  2.6433
 6817TIP3    H220416   4.895   4.422   4.120  0.0495 -0.4463  0.3317
 6818TIP3   OH220417   0.391   1.414   4.726 -0.2279  0.2959 -0.4614
 6818TIP3    H120418   0.443   1.484   4.765  2.6813 -0.9439 -1.7673
 6818TIP3    H220419   0.436   1.394   4.644 -2.9665 -0.8106 -1.8222
 6819TIP3   OH220420   1.723   2.919   3.142  0.1454 -0.5425 -0.0844
 6819TIP3    H120421   1.644   2.899   3.092 -0.5478 -2.2128  1.5679
 6819TIP3    H220422   1.791   2.930   3.075 -1.1771 -0.4803 -1.4753
 6820TIP3   OH220423   3.946   0.666   1.000 -0.0666 -0.5496  0.6856
 6820TIP3    H120424   3.909   0.624   1.078  2.7110  0.0304  2.5045
 6820TIP3    H220425   4.016   0.721   1.035  1.5718 -0.5557 -2.2882
 6821TIP3   OH220426   2.973   3.943   1.648 -0.0220  0.9099 -0.4375
 6821TIP3    H120427   3.049   3.990   1.681  2.2857 -1.7108 -1.6270
 6821TIP3    H220428   2.972   3.861   1.697 -2.9172  1.3138  0.4080
 6822TIP3   OH220429   2.435   3.134   2.804 -0.0880  0.1542 -0.1019
 6822TIP3    H120430   2.449   3.040   2.813  0.7508  0.0636 -1.8511
 6822TIP3    H220431   2.358   3.141   2.747 -1.0587  0.5743  1.2111
 6823TIP3   OH220432   1.958   6.070   2.837 -0.1042  0.0166  0.2966
 6823TIP3    H120433   1.960   5.977   2.816  0.3486 -0.1922  1.2584
 6823TIP3    H220434   2.035   6.106   2.793 -1.9423  0.5761 -2.8229
 6824TIP3   OH220435   2.863   2.362   4.897  0.2583  0.1313  0.5147
 6824TIP3    H120436   2.905   2.391   4.978 -0.5529 -0.0974  1.0307
 6824TIP3    H220437   2.857   2.440   4.843  0.4736  0.3650  0.8277
 6825TIP3   OH220438   4.209   4.716   0.839  0.4073 -0.1055  0.2996
 6825TIP3    H120439   4.210   4.778   0.766  1.8059 -0.7449 -0.2497
 6825TIP3    H220440   4.293   4.729   0.883  1.3810 -2.5699 -0.6704
 6826TIP3   OH220441   1.527   5.970   5.529 -0.7097  0.3988 -0.2111
 6826TIP3    H120442   1.460   5.921   5.576 -1.1377 -0.5975 -1.8014
 6826TIP3    H220443   1.507   5.957   5.437  1.6552  0.1153 -0.7484
 6827TIP3   OH220444   4.756   2.976   4.430 -0.0595 -0.2097 -0.4906
 6827TIP3    H120445   4.820   3.039   4.462 -0.0420 -0.1870 -0.5721
 6827TIP3    H220446   4.797   2.891   4.447 -1.4678 -0.3773  2.7565
 6828TIP3   OH220447   0.879   3.150   1.299 -0.0049 -0.1564  0.6537
 6828TIP3    H120448   0.822   3.184   1.230  2.0182  0.3306 -0.8651
 6828TIP3    H220449   0.867   3.211   1.372  1.1339  2.0261 -0.8725
 6829TIP3   OH220450   5.223   0.969   0.059 -0.1741 -0.1668 -0.2346
 6829TIP3    H120451   5.275   0.915   0.118 -2.3467 -0.3263  1.6537
 6829TIP3    H220452   5.132   0.946   0.078 -1.0367  0.5471 -2.9435
 6830TIP3   OH220453   1.090   4.536   3.522 -0.2695 -0.3904 -0.2518
 6830TIP3    H120454   1.182   4.562   3.517 -0.3980  0.2191  0.3312
 6830TIP3    H220455   1.050   4.572   3.443  0.5252 -3.0745 -2.0123
 6831TIP3   OH220456   3.838   4.053   2.713 -0.6574 -0.2663  0.6486
 6831TIP3    H120457   3.834   4.081   2.804 -0.7074 -1.3383  0.9865
 6831TIP3    H220458   3.840   4.135   2.663 -0.6845  0.3313  1.6006
 6832TIP3   OH220459   5.915   2.670   4.712 -0.0125 -0.0636 -1.0649
 6832TIP3    H120460   5.909   2.760   4.744 -0.1350 -0.2308 -0.6209
 6832TIP3    H220461   5.825   2.647   4.689 -0.5780 -1.1820  1.8458
 6833TIP3   OH220462   1.659   1.117   4.873 -0.3420 -0.3262  0.1515
 6833TIP3    H120463   1.695   1.139   4.959 -1.6327 -1.5425  1.0489
 6833TIP3    H220464   1.735   1.110   4.816  0.5543  0.3460  1.2192
 6834TIP3   OH220465   3.338   3.152   4.664  0.0938  0.4981 -0.0221
 6834TIP3    H120466   3.414   3.203   4.639 -0.0156 -0.1614 -1.9538
 6834TIP3    H220467   3.268   3.216   4.677  0.0471  0.9299 -2.0478
 6835TIP3   OH220468   4.220   3.354   4.013 -0.3684 -0.4136 -0.2927
 6835TIP3    H120469   4.241   3.270   3.971  0.1340 -0.1282 -0.6197
 6835TIP3    H220470   4.260   3.420   3.957 -2.3214  0.1810 -1.0548
 6836TIP3   OH220471   0.003   0.062   2.851  0.7625 -0.2017 -0.1688
 6836TIP3    H120472   0.082   0.101   2.888  0.1726  0.5777  0.3127
 6836TIP3    H220473  -0.045   0.028   2.927 -0.4477  1.3922 -0.1398
 6837TIP3   OH220474   1.666   1.567   0.914  0.0370 -0.4165 -0.2165
 6837TIP3    H120475   1.686   1.659   0.931 -0.7445 -0.6990  2.6825
 6837TIP3    H220476   1.605   1.569   0.841 -1.0408  1.4866  0.6699
 6838TIP3   OH220477   2.669   1.601   4.506 -0.1993 -0.6445 -0.3181
 6838TIP3    H120478   2.642   1.616   4.415  2.2473  1.0149 -0.8533
 6838TIP3    H220479   2.589   1.617   4.557 -1.0883  0.6243 -2.0102
 6839TIP3   OH220480   2.730   1.017   1.566  0.8108  0.1268 -0.6942
 6839TIP3    H120481   2.796   0.948   1.563  1.2560  0.5037  0.2472
 6839TIP3    H220482   2.649   0.973   1.539  0.9694 -0.9214  0.4210
 6840TIP3   OH220483   2.933   0.295   3.609 -0.1792 -0.2142 -0.0421
 6840TIP3    H120484   2.985   0.288   3.529  1.0456 -0.0067  0.6976
 6840TIP3    H220485   2.856   0.345   3.584  1.3295  1.9726 -0.5663
 6841TIP3   OH220486   3.003   0.830   0.020 -0.0187  0.1261  0.4953
 6841TIP3    H120487   3.035   0.850   0.108  0.1131 -0.4392  0.5801
 6841TIP3    H220488   2.941   0.758   0.033  0.9927 -0.8571 -0.0116
 6842TIP3   OH220489   1.629   1.411   4.179  0.0057  0.1653 -0.1165
 6842TIP3    H120490   1.552   1.358   4.195  0.6407 -0.5118  0.8033
 6842TIP3    H220491   1.617   1.488   4.234  0.5363 -0.5126  0.9833
 6843TIP3   OH220492   0.325   2.374   5.089  0.0299  0.1677 -0.0897
 6843TIP3    H120493   0.338   2.427   5.010 -1.5553 -0.5005 -0.8341
 6843TIP3    H220494   0.231   2.356   5.091  0.5186 -2.9917 -0.1190
 6844TIP3   OH220495   3.522   5.450   1.766 -0.0481  0.3364 -0.6675
 6844TIP3    H120496   3.437   5.467   1.724  0.1920  0.9576 -0.9138
 6844TIP3    H220497   3.499   5.410   1.850 -0.5934  0.6196 -0.6780
 6845TIP3   OH220498   5.275   4.106   2.988  0.3693 -0.9557 -0.1003
 6845TIP3    H120499   5.299   4.045   2.918 -0.2157 -1.2981 -0.0106
 6845TIP3    H220500   5.208   4.060   3.038  0.0704 -0.3212  0.0939
 6846TIP3   OH220501   4.613   6.471   2.958 -0.3132 -0.3476 -0.0986
 6846TIP3    H120502   4.702   6.436   2.967 -0.7466 -1.1187  1.5202
 6846TIP3    H220503   4.602   6.483   2.864  2.6087  2.7565 -0.2636
 6847TIP3   OH220504   4.059   0.742   4.544 -0.2301 -0.0617  0.0678
 6847TIP3    H120505   4.072   0.692   4.624  0.5827 -2.2711 -1.3511
 6847TIP3    H220506   3.990   0.696   4.497  2.3252 -1.5994 -2.4846
 6848TIP3   OH220507   2.240   0.957   0.633 -0.1256 -0.5731  0.0891
 6848TIP3    H120508   2.253   0.865   0.610 -1.3073 -0.4366 -1.2346
 6848TIP3    H220509   2.148   0.974   0.614 -0.5019  0.3377  2.4203
 6849TIP3   OH220510   2.019   6.156   4.859  0.0644  0.1465 -0.3471
 6849TIP3    H120511   2.089   6.218   4.881 -0.4879  1.0892 -1.1565
 6849TIP3    H220512   2.044   6.123   4.772 -1.5049  2.0831 -1.6211
 6850TIP3   OH220513   1.183   4.755   5.844  0.4750 -0.0258  0.7978
 6850TIP3    H120514   1.090   4.731   5.849  0.2581  0.7998  0.9450
 6850TIP3    H220515   1.212   4.721   5.759  0.3221 -1.2083  1.2017
 6851TIP3   OH220516   3.866   1.643   2.061 -0.1335  0.3460 -0.2598
 6851TIP3    H120517   3.789   1.617   2.112  0.6437 -0.4475  0.5545
 6851TIP3    H220518   3.862   1.590   1.982 -0.0585 -0.2401  0.1166
 6852TIP3   OH220519   5.319   2.521   5.714 -0.1886 -0.2621  0.0221
 6852TIP3    H120520   5.234   2.483   5.738  1.2117 -1.9895  2.7216
 6852TIP3    H220521   5.344   2.474   5.635 -0.9652 -1.0068  0.2041
 6853TIP3   OH220522   3.439   5.139   2.621 -0.2841 -0.0849 -0.2278
 6853TIP3    H120523   3.492   5.183   2.554  1.6867  0.1246  1.3577
 6853TIP3    H220524   3.387   5.209   2.660 -2.5374 -0.4359 -2.3948
 6854TIP3   OH220525   0.553   0.553   5.665  0.3137  0.4013 -0.1467
 6854TIP3    H120526   0.524   0.474   5.619 -0.0567  0.9851 -0.9519
 6854TIP3    H220527   0.647   0.558   5.649  0.2868  0.2772 -0.3399
 6855TIP3   OH220528   4.324   6.536   1.390  0.0867 -0.0321 -0.3929
 6855TIP3    H120529   4.336   6.508   1.299  1.5388 -1.8292  0.2900
 6855TIP3    H220530   4.392   6.601   1.404 -2.0226  2.5694 -1.3868
 6856TIP3   OH220531   1.333   5.924   2.426 -0.2462  0.0723 -0.4775
 6856TIP3    H120532   1.398   5.983   2.388 -0.2545 -0.0429 -0.6670
 6856TIP3    H220533   1.296   5.877   2.352  1.4905 -1.9912 -0.1270
 6857TIP3   OH220534   1.101   3.509   1.576  0.4981 -0.3064  0.1848
 6857TIP3    H120535   1.153   3.508   1.656 -0.0760 -0.3083  0.5649
 6857TIP3    H220536   1.022   3.558   1.599 -0.8400 -2.4687  0.3673
 6858TIP3   OH220537   5.484   2.373   1.036  0.5420  0.3808 -0.2785
 6858TIP3    H120538   5.516   2.301   1.090 -0.2806  0.6223  0.5559
 6858TIP3    H220539   5.390   2.357   1.027  0.9128 -0.7224 -3.2933
 6859TIP3   OH220540   3.864   1.024   1.364 -0.8819  0.6544  0.2864
 6859TIP3    H120541   3.872   0.974   1.282  0.2651  2.5551 -0.8384
 6859TIP3    H220542   3.791   0.982   1.410 -1.8634 -0.2191 -1.9027
 6860TIP3   OH220543   3.813   6.442   2.058 -0.5184  0.2227  0.3386
 6860TIP3    H120544   3.764   6.384   2.116  0.9673 -0.1682  1.2789
 6860TIP3    H220545   3.792   6.531   2.088 -0.8105  0.0654  0.5972
 6861TIP3   OH220546   3.071   5.484   4.066  0.9482 -0.5038  0.1839
 6861TIP3    H120547   3.075   5.393   4.038  0.9176 -1.0341  1.7861
 6861TIP3    H220548   3.151   5.523   4.032  0.6475 -0.9357 -1.0831
 6862TIP3   OH220549   5.437   4.399   1.146 -0.0051  0.4312 -0.2232
 6862TIP3    H120550   5.406   4.422   1.233 -0.1000  0.2595 -0.2123
 6862TIP3    H220551   5.523   4.361   1.160 -0.8857 -1.5920  0.0116
 6863TIP3   OH220552   6.364   4.505   4.974 -0.0910  0.4000 -0.0376
 6863TIP3    H120553   6.393   4.538   5.060  1.4702  1.5984 -0.9628
 6863TIP3    H220554   6.286   4.454   4.993  0.5151  0.1907  2.1718
 6864TIP3   OH220555   3.144   3.950   1.426 -0.2799 -0.3214 -0.4008
 6864TIP3    H120556   3.185   3.866   1.405  2.0770 -0.0875  2.5693
 6864TIP3    H220557   3.088   3.931   1.502 -0.3494  0.6135 -0.2044
 6865TIP3   OH220558   2.057   1.171   4.528  0.4222 -0.3978  0.4516
 6865TIP3    H120559   2.104   1.101   4.483 -0.4341  0.1331 -1.3616
 6865TIP3    H220560   2.124   1.236   4.547  0.5335  0.3662 -2.1268
 6866TIP3   OH220561   1.240   1.924   0.948  0.3584  0.0234 -0.8723
 6866TIP3    H120562   1.285   2.009   0.941  0.5341 -0.0798 -1.0052
 6866TIP3    H220563   1.147   1.947   0.949  0.4189  0.3567  1.1072
 6867TIP3   OH220564   1.007   5.714   2.846 -0.1392  0.2273  0.0815
 6867TIP3    H120565   0.975   5.654   2.779 -0.1636  0.2513  0.0717
 6867TIP3    H220566   0.953   5.793   2.836 -0.0832  0.2639  0.0712
 6868TIP3   OH220567   3.808   2.668   2.774 -0.5268  0.1010  0.6310
 6868TIP3    H120568   3.713   2.676   2.764 -0.8590 -2.1397  1.4985
 6868TIP3    H220569   3.827   2.576   2.755  1.4046  0.3679  1.0294
 6869TIP3   OH220570   0.393   2.329   2.695 -0.1412 -0.6263  0.1090
 6869TIP3    H120571   0.318   2.345   2.752  0.3593  0.7185  0.4235
 6869TIP3    H220572   0.447   2.408   2.703  1.3737 -1.6022 -0.0193
 6870TIP3   OH220573   3.571   4.903   2.803 -0.6432  0.3439 -0.2032
 6870TIP3    H120574   3.583   4.871   2.713 -0.9854 -1.1075  0.2468
 6870TIP3    H220575   3.493   4.859   2.834 -0.8702  1.3018  0.6230
 6871TIP3   OH220576   1.305   5.745   3.736  0.2041 -0.4223 -0.7824
 6871TIP3    H120577   1.296   5.688   3.660 -1.0370 -0.1476 -0.8557
 6871TIP3    H220578   1.399   5.744   3.756  0.3708 -1.4624 -1.5635
 6872TIP3   OH220579   5.196   2.436   1.442 -0.0346 -0.8195  0.0851
 6872TIP3    H120580   5.291   2.446   1.431 -0.2105  1.3077  0.0127
 6872TIP3    H220581   5.187   2.368   1.509  1.5593 -0.5758  0.6058
 6873TIP3   OH220582   2.365   1.158   4.093  0.0196 -0.8761 -0.2896
 6873TIP3    H120583   2.270   1.155   4.084 -0.2606  0.6099  1.6023
 6873TIP3    H220584   2.385   1.250   4.111  1.7359 -1.2792  0.0684
 6874TIP3   OH220585   3.844   1.920   1.955 -0.0590  0.4099  0.1339
 6874TIP3    H120586   3.852   1.825   1.970 -3.5188  0.2631  2.1714
 6874TIP3    H220587   3.800   1.927   1.870 -0.1213  0.1478  0.1416
 6875TIP3   OH220588   6.150   1.362   3.396 -0.0710 -0.3223  0.0725
 6875TIP3    H120589   6.137   1.456   3.380  0.1664 -0.4304 -0.8102
 6875TIP3    H220590   6.213   1.335   3.329  0.7096 -0.8902  1.0155
 6876TIP3   OH220591   2.484   0.603   5.646 -0.0545 -0.1376 -0.2188
 6876TIP3    H120592   2.425   0.529   5.663 -0.3088  0.2682  0.7169
 6876TIP3    H220593   2.521   0.584   5.560 -2.2933  0.0858 -1.3121
 6877TIP3   OH220594   4.037   5.256   3.821 -0.3708  0.4923 -0.2324
 6877TIP3    H120595   4.007   5.289   3.906  0.4289  0.2179  0.1705
 6877TIP3    H220596   4.024   5.161   3.827 -0.1258  0.4528 -0.3454
 6878TIP3   OH220597   7.092   2.014   4.376 -0.0119 -0.5485  0.0905
 6878TIP3    H120598   7.098   1.924   4.344 -0.0785 -0.5556  0.0967
 6878TIP3    H220599   7.050   2.006   4.462  0.2247 -0.5346  0.2068
 6879TIP3   OH220600   7.125   0.806   4.506 -0.4797  0.6924  0.5678
 6879TIP3    H120601   7.167   0.722   4.486 -1.6509  0.4442 -1.0339
 6879TIP3    H220602   7.137   0.858   4.427 -0.9233  1.5642  1.0627
 6880TIP3   OH220603   6.591   4.248   2.972 -0.1840  0.0202 -0.0987
 6880TIP3    H120604   6.541   4.264   2.893  3.2100 -0.2362 -2.5209
 6880TIP3    H220605   6.628   4.334   2.995 -0.1500 -0.1412  0.4752
 6881TIP3   OH220606   4.109   1.754   1.608  0.4906 -0.4292  0.1457
 6881TIP3    H120607   4.073   1.843   1.607 -0.4940 -0.7996 -1.3884
 6881TIP3    H220608   4.032   1.697   1.600  1.1455 -1.4070  0.6608
 6882TIP3   OH220609   7.024   2.626   2.991 -0.3507 -0.2625 -0.4611
 6882TIP3    H120610   6.991   2.711   3.021  2.9232  0.6552  0.9135
 6882TIP3    H220611   7.019   2.631   2.896  1.7718  2.4757 -0.5592
 6883TIP3   OH220612   3.952   3.509   4.019  0.1297  0.4541 -1.2931
 6883TIP3    H120613   4.032   3.457   4.010 -0.3583 -0.3590 -1.0316
 6883TIP3    H220614   3.965   3.558   4.100  0.2253  0.0613 -1.0648
 6884TIP3   OH220615   1.748   4.374   0.365 -0.3230  0.3069 -0.1512
 6884TIP3    H120616   1.665   4.376   0.316 -0.1534  0.1532 -0.4484
 6884TIP3    H220617   1.727   4.324   0.444 -0.5543  0.3978 -0.1540
 6885TIP3   OH220618   3.794   6.417   2.632 -0.6059  0.1649 -0.0600
 6885TIP3    H120619   3.797   6.400   2.726  0.7873  0.5231 -0.0174
 6885TIP3    H220620   3.851   6.493   2.620 -1.6472  0.8225 -1.0566
 6886TIP3   OH220621   6.269   1.047   5.022  0.4498 -0.0046 -0.4403
 6886TIP3    H120622   6.344   0.988   5.019  1.3717  1.1583 -0.8433
 6886TIP3    H220623   6.246   1.061   4.930 -1.6962 -2.0696 -0.3117
 6887TIP3   OH220624   3.735   4.346   5.414  0.6426  0.0040 -0.3668
 6887TIP3    H120625   3.778   4.430   5.400 -1.3530  1.2488  0.5370
 6887TIP3    H220626   3.764   4.318   5.501  1.9519 -0.6835 -1.0048
 6888TIP3   OH220627   4.086   5.139   2.102  0.0615  0.0604 -0.2578
 6888TIP3    H120628   4.126   5.094   2.028  2.8705  2.6759 -0.5175
 6888TIP3    H220629   4.096   5.078   2.175  2.8249 -0.2398 -0.7716
 6889TIP3   OH220630   1.275   5.996   0.018  0.5454 -0.0628  0.9830
 6889TIP3    H120631   1.362   6.028  -0.007  1.3736 -0.3256  3.2879
 6889TIP3    H220632   1.216   6.069  -0.003  0.5197 -1.1809 -4.2335
 6890TIP3   OH220633   2.393   1.583   4.579 -0.2360 -0.4837 -0.4235
 6890TIP3    H120634   2.362   1.523   4.647  0.2054 -0.2855 -0.0353
 6890TIP3    H220635   2.320   1.591   4.518 -0.3874 -1.2014 -0.3349
 6891TIP3   OH220636   1.542   3.744   0.547 -0.4936  0.0727  0.0078
 6891TIP3    H120637   1.587   3.753   0.463 -0.1550 -1.0376  0.0658
 6891TIP3    H220638   1.466   3.689   0.528 -0.7924  0.3788  0.2991
 6892TIP3   OH220639   0.037   0.763   0.608 -0.7347  0.4850 -0.5625
 6892TIP3    H120640   0.023   0.842   0.660  0.2787 -0.4854  1.3185
 6892TIP3    H220641   0.119   0.779   0.562 -1.2569  1.0618 -1.3131
 6893TIP3   OH220642   2.319   0.279   0.816  0.3778  0.1492 -0.1157
 6893TIP3    H120643   2.404   0.314   0.788  0.5386  0.2506  0.4737
 6893TIP3    H220644   2.338   0.191   0.848  0.2551  0.1499 -0.0375
 6894TIP3   OH220645   5.189   0.210   4.476 -0.7296  0.4948 -0.0575
 6894TIP3    H120646   5.192   0.161   4.558 -2.9671 -1.4397 -1.0438
 6894TIP3    H220647   5.279   0.206   4.443  0.3244  1.6950  2.4276
 6895TIP3   OH220648   2.160   1.560   1.472 -0.0060 -0.1476 -0.1213
 6895TIP3    H120649   2.097   1.609   1.420 -0.7065 -1.0149 -0.1197
 6895TIP3    H220650   2.165   1.608   1.555  0.5418  0.8098 -0.6946
 6896TIP3   OH220651   6.749   6.609   1.061  0.5645  0.5961 -0.3050
 6896TIP3    H120652   6.831   6.657   1.054  1.4281 -0.7845 -0.0783
 6896TIP3    H220653   6.691   6.667   1.109  1.3561  1.6577 -0.5920
 6897TIP3   OH220654   5.608   0.243   3.190  0.1842  0.1141 -0.8033
 6897TIP3    H120655   5.693   0.223   3.149  0.4526  0.7334 -0.5567
 6897TIP3    H220656   5.586   0.163   3.238  1.6479  0.6533  0.8710
 6898TIP3   OH220657   0.529   2.755   5.505  0.8659 -0.2579 -0.2499
 6898TIP3    H120658   0.495   2.834   5.462 -0.1048 -1.2921 -1.4809
 6898TIP3    H220659   0.465   2.737   5.574  1.2184  0.1460  0.1918
 6899TIP3   OH220660   5.715   4.605   5.664  0.1353 -0.5475 -0.0056
 6899TIP3    H120661   5.783   4.558   5.616  0.7132 -0.2395  0.4889
 6899TIP3    H220662   5.743   4.697   5.661  0.8953 -0.6673  2.0087
 6900TIP3   OH220663   1.929   1.966   1.132 -0.6703 -0.2768  0.3416
 6900TIP3    H120664   1.906   1.898   1.068  1.3862 -0.5181 -0.2279
 6900TIP3    H220665   1.922   2.048   1.085  0.7618 -0.4491 -0.2423
 6901TIP3   OH220666   4.230   1.390   0.130 -0.3678  0.5535  0.1124
 6901TIP3    H120667   4.291   1.407   0.057  0.9511 -1.1034  0.7782
 6901TIP3    H220668   4.150   1.361   0.087 -0.0962  0.9698 -0.7199
 6902TIP3   OH220669   4.044   6.726   4.550 -0.0115  0.0666 -0.6991
 6902TIP3    H120670   3.958   6.701   4.516 -1.1120  1.7264  0.6592
 6902TIP3    H220671   4.091   6.760   4.474 -0.9034 -0.0158 -1.2992
 6903TIP3   OH220672   3.931   1.345   2.683 -0.1853  0.0259 -0.7304
 6903TIP3    H120673   3.866   1.281   2.711 -0.1824  0.7357  1.0377
 6903TIP3    H220674   4.008   1.326   2.737  0.7498 -0.1334 -2.0584
 6904TIP3   OH220675   6.147   6.743   0.290  0.1915 -0.2200 -0.3573
 6904TIP3    H120676   6.160   6.706   0.203  1.6475 -0.1650 -0.1922
 6904TIP3    H220677   6.056   6.722   0.312 -0.0864 -0.5539 -1.7280
 6905TIP3   OH220678   6.347   0.024   0.663  0.1360  0.0085 -0.6262
 6905TIP3    H120679   6.380   0.036   0.574 -1.4867 -1.0426 -1.4268
 6905TIP3    H220680   6.297  -0.057   0.659  2.5452 -1.7985  2.0284
 6906TIP3   OH220681   3.146   3.793   3.950 -0.5146  0.2563  0.5770
 6906TIP3    H120682   3.159   3.886   3.929  0.0897 -0.0224 -0.3412
 6906TIP3    H220683   3.224   3.769   4.000  0.4953 -0.3224 -1.1966
 6907TIP3   OH220684   1.779   5.243   0.734  0.2095 -0.2321 -0.6349
 6907TIP3    H120685   1.796   5.332   0.701 -1.3064  0.1295 -0.5144
 6907TIP3    H220686   1.803   5.247   0.826 -0.9956  0.4281 -0.3289
 6908TIP3   OH220687   5.739   0.463   4.365 -0.0684 -0.2833  0.0824
 6908TIP3    H120688   5.779   0.381   4.334 -1.3922 -1.5931  1.6515
 6908TIP3    H220689   5.728   0.450   4.459 -2.0433  0.9327  0.0658
 6909TIP3   OH220690   1.000   6.293   5.679 -0.5180 -0.1792  0.2330
 6909TIP3    H120691   1.034   6.216   5.725  2.4383  0.2828 -0.9308
 6909TIP3    H220692   1.022   6.367   5.736 -0.4409  0.0675 -0.1114
 6910TIP3   OH220693   4.750   0.088   0.331 -0.4356  0.3155  0.1256
 6910TIP3    H120694   4.799   0.015   0.293 -1.7029  0.5076 -2.0800
 6910TIP3    H220695   4.804   0.165   0.313 -0.3510  0.2241 -0.0109
 6911TIP3   OH220696   0.200   3.884   3.876  0.3225 -0.2978  0.3414
 6911TIP3    H120697   0.257   3.810   3.852 -1.0112 -1.3635  0.3147
 6911TIP3    H220698   0.199   3.939   3.798  3.0345  0.9616  1.0550
 6912TIP3   OH220699   5.478   1.349   3.509 -0.1070 -0.1310 -0.0572
 6912TIP3    H120700   5.445   1.435   3.535  1.3227  0.2810  0.4761
 6912TIP3    H220701   5.427   1.327   3.430  1.7405  2.7390 -2.2700
 6913TIP3   OH220702   0.841   4.832   5.587  0.3471 -0.5248  0.1362
 6913TIP3    H120703   0.788   4.805   5.662  2.0002  0.9012  1.8907
 6913TIP3    H220704   0.776   4.854   5.519 -1.1791 -1.9136  1.0529
 6914TIP3   OH220705   2.489   4.769   4.074  0.4272  0.1388 -0.2626
 6914TIP3    H120706   2.545   4.846   4.067 -0.2190  0.6522  0.0551
 6914TIP3    H220707   2.439   4.768   3.992  0.4515  0.0474 -0.2760
 6915TIP3   OH220708   4.419   2.848   0.418 -0.3248 -0.4396  0.0273
 6915TIP3    H120709   4.377   2.765   0.443  3.8141 -3.6562 -2.2786
 6915TIP3    H220710   4.464   2.877   0.497  1.0324 -2.4805  0.0752
 6916TIP3   OH220711   2.681   1.926   3.367  0.0181 -0.0932  0.2083
 6916TIP3    H120712   2.651   1.971   3.288  1.0960  0.0273 -0.1550
 6916TIP3    H220713   2.701   1.996   3.428  2.1604  0.0108 -0.5253
 6917TIP3   OH220714   0.277   1.619   0.851 -0.7102  0.0253 -0.0156
 6917TIP3    H120715   0.185   1.615   0.827 -0.5043  0.2635 -0.8780
 6917TIP3    H220716   0.310   1.530   0.837 -0.6329  0.1205 -0.4276
 6918TIP3   OH220717   3.960   5.538   1.909 -0.8983  0.2424  0.8109
 6918TIP3    H120718   3.953   5.633   1.907 -1.2806  0.2095  0.4413
 6918TIP3    H220719   3.873   5.507   1.881 -1.0653 -0.2167  1.8034
 6919TIP3   OH220720   4.494   4.184   3.722 -0.1197  0.4145  0.1099
 6919TIP3    H120721   4.421   4.246   3.721  0.1668  0.8404  2.1857
 6919TIP3    H220722   4.453   4.100   3.742 -0.1685  0.4273  0.0670
 6920TIP3   OH220723   1.443   1.830   0.108 -0.0045 -0.3430  0.3391
 6920TIP3    H120724   1.436   1.743   0.149  1.5569 -0.2705  0.8196
 6920TIP3    H220725   1.504   1.817   0.036  0.0435  0.3091  0.2632
 6921TIP3   OH220726   5.638   1.845   3.475 -0.1372  0.0132 -0.1791
 6921TIP3    H120727   5.637   1.940   3.486 -0.5538  0.0952 -0.8047
 6921TIP3    H220728   5.546   1.822   3.462 -0.1897 -0.6462  1.2274
 6922TIP3   OH220729   5.334  -0.014   4.172  0.1769 -0.3175 -0.2590
 6922TIP3    H120730   5.357   0.061   4.227  1.7171 -0.8737 -0.1121
 6922TIP3    H220731   5.238  -0.011   4.167  0.0066  0.0472  2.0412
 6923TIP3   OH220732   3.698   0.827   1.494 -0.0221  0.2101 -0.0789
 6923TIP3    H120733   3.668   0.764   1.559 -1.7626 -1.3362 -2.2584
 6923TIP3    H220734   3.621   0.880   1.474 -0.1026 -0.6204 -2.2252
 6924TIP3   OH220735   5.701   0.354   5.032  0.7084  0.4470 -0.1689
 6924TIP3    H120736   5.607   0.339   5.043  0.2024  1.1544 -2.8496
 6924TIP3    H220737   5.712   0.448   5.042  0.9528  0.4878 -0.7635
 6925TIP3   OH220738   6.583   1.407   4.554 -0.0530  0.2971 -0.1706
 6925TIP3    H120739   6.662   1.460   4.548 -0.2683  0.5220 -1.2837
 6925TIP3    H220740   6.600   1.330   4.500 -0.7332  0.5489 -0.7664
 6926TIP3   OH220741   0.598   2.181   4.292  0.6132 -0.7816 -0.0820
 6926TIP3    H120742   0.626   2.251   4.234 -0.7437 -0.4946 -0.4251
 6926TIP3    H220743   0.617   2.100   4.243  2.0332 -0.6597  0.2511
 6927TIP3   OH220744   6.437   5.826   4.660  0.2970 -0.4300 -0.2199
 6927TIP3    H120745   6.407   5.737   4.642 -2.4383  0.5779 -1.0662
 6927TIP3    H220746   6.400   5.879   4.589  0.2602  1.6649  1.2846
 6928TIP3   OH220747   0.963   5.457   0.360  0.2422  0.7777  0.1812
 6928TIP3    H120748   0.872   5.465   0.332  0.1528 -2.4995 -0.8040
 6928TIP3    H220749   0.957   5.451   0.456 -0.5907  0.4205  0.1178
 6929TIP3   OH220750   2.966   4.768   2.412  0.4733 -0.3406  0.2931
 6929TIP3    H120751   3.045   4.714   2.415  1.0676  0.5310  2.1510
 6929TIP3    H220752   2.894   4.708   2.430  0.9211 -0.8252  0.4934
 6930TIP3   OH220753   4.967   1.505   5.726  0.3783 -0.9612 -0.4203
 6930TIP3    H120754   4.987   1.484   5.635  1.2558  1.6767 -0.9018
 6930TIP3    H220755   5.048   1.485   5.774  0.2442 -1.4044 -0.3744
 6931TIP3   OH220756   3.798   5.420   3.149 -0.0754  0.3031  0.0002
 6931TIP3    H120757   3.840   5.506   3.144  0.4654  0.0832  0.6876
 6931TIP3    H220758   3.839   5.369   3.079 -0.6691  0.7056 -0.6612
 6932TIP3   OH220759   0.409   2.889   2.038  0.6411  0.2053 -0.1941
 6932TIP3    H120760   0.489   2.908   2.087  0.2220  0.2649  0.4760
 6932TIP3    H220761   0.364   2.822   2.090 -0.7573  1.6648  0.5481
 6933TIP3   OH220762   3.249   6.535   1.857  0.1480 -0.3959  0.1111
 6933TIP3    H120763   3.190   6.484   1.913 -1.1899 -0.1896 -1.0323
 6933TIP3    H220764   3.204   6.619   1.846  0.7767 -0.1402 -0.5828
 6934TIP3   OH220765   3.979   0.655   3.878 -0.3381  0.1295 -0.3545
 6934TIP3    H120766   4.038   0.710   3.929 -0.8806  0.6443 -0.2686
 6934TIP3    H220767   3.894   0.666   3.921 -0.7199  0.2699 -1.1429
 6935TIP3   OH220768   0.805   2.731   2.171  0.2570 -0.0521 -0.8145
 6935TIP3    H120769   0.825   2.649   2.125 -0.4357 -0.2461 -0.7940
 6935TIP3    H220770   0.881   2.748   2.225  0.0651 -1.1498 -0.1745
 6936TIP3   OH220771   5.003   3.776   0.911  0.2161 -0.0074 -0.4881
 6936TIP3    H120772   5.019   3.687   0.941  1.6353  0.1064 -0.8395
 6936TIP3    H220773   5.019   3.773   0.817 -0.1957  0.5235 -0.5807
 6937TIP3   OH220774   3.644   4.210   1.645  0.2832  0.0264 -0.2548
 6937TIP3    H120775   3.638   4.285   1.704 -0.7475  0.5535 -0.9830
 6937TIP3    H220776   3.733   4.214   1.610 -0.0833  1.6060 -1.1261
 6938TIP3   OH220777   4.951   0.256   2.960  0.7574  0.1539  0.3845
 6938TIP3    H120778   4.880   0.247   2.897  0.5574  0.2646  0.5887
 6938TIP3    H220779   4.972   0.166   2.986 -0.6621  0.1748  1.7992
 6939TIP3   OH220780   4.622   2.117   3.869  0.0704 -0.1276  0.2590
 6939TIP3    H120781   4.572   2.187   3.828  1.1160  1.9334  2.2273
 6939TIP3    H220782   4.582   2.107   3.956  1.2765 -0.4060  0.8028
 6940TIP3   OH220783   5.579   6.478   4.781  0.3321  0.2312  0.5470
 6940TIP3    H120784   5.592   6.410   4.848 -0.8604 -1.6371 -1.0281
 6940TIP3    H220785   5.586   6.560   4.830  2.6726 -0.9296  2.4003
 6941TIP3   OH220786   3.742   2.920   1.448 -0.6907 -0.0666  0.2620
 6941TIP3    H120787   3.718   2.830   1.426 -1.6897  0.4222 -0.7930
 6941TIP3    H220788   3.681   2.974   1.397  0.5670  1.2230  0.0503
 6942TIP3   OH220789   6.653   3.520   2.822 -0.3552  0.1368  0.3248
 6942TIP3    H120790   6.719   3.453   2.841 -1.7116 -1.0590  1.0187
 6942TIP3    H220791   6.662   3.536   2.728  1.2461  0.3995  0.4847
 6943TIP3   OH220792   4.784   4.326   5.630 -0.2019 -0.7990  0.7046
 6943TIP3    H120793   4.703   4.275   5.630 -1.0039  0.3697 -1.0038
 6943TIP3    H220794   4.838   4.286   5.699 -1.2241 -3.1958  0.2192
 6944TIP3   OH220795   4.759   1.641   3.121  0.2305  0.5408 -0.0761
 6944TIP3    H120796   4.692   1.577   3.143 -0.8333  1.7236  0.2338
 6944TIP3    H220797   4.841   1.600   3.148 -0.1728 -1.5394 -1.7694
 6945TIP3   OH220798   1.746   4.987   0.922  0.6462 -0.2497 -0.1931
 6945TIP3    H120799   1.744   4.934   0.842  0.3878 -0.9529  0.2715
 6945TIP3    H220800   1.821   4.953   0.971 -0.6217 -1.5086  0.9712
 6946TIP3   OH220801   6.435   5.114   0.958 -0.4478  0.1225  0.2455
 6946TIP3    H120802   6.474   5.053   0.897 -1.1383 -1.9727  1.7700
 6946TIP3    H220803   6.362   5.154   0.909  0.7865  0.7186 -1.1684
 6947TIP3   OH220804   2.109   3.601   3.479  0.3471  0.4357 -0.1784
 6947TIP3    H120805   2.015   3.618   3.472  0.2732  0.4865  0.7998
 6947TIP3    H220806   2.147   3.644   3.402 -0.3936  0.6793 -0.4157
 6948TIP3   OH220807   3.083   1.948   1.164 -0.0591  0.2058 -0.2983
 6948TIP3    H120808   3.074   2.037   1.198  0.4799  0.0972  0.1439
 6948TIP3    H220809   3.071   1.892   1.241  1.6552 -0.0316 -0.1688
 6949TIP3   OH220810   5.918   4.750   4.679  0.0494 -0.3121  0.0352
 6949TIP3    H120811   5.947   4.840   4.695  1.0542 -0.3873 -1.1338
 6949TIP3    H220812   5.836   4.742   4.726  0.1659  1.0854  0.5242
 6950TIP3   OH220813   5.407   5.039   2.699  0.5382 -0.0499  0.1975
 6950TIP3    H120814   5.390   5.132   2.713  1.8655  0.0821  1.1004
 6950TIP3    H220815   5.338   5.011   2.638 -0.4712  1.2773  0.6822
 6951TIP3   OH220816   1.066   2.152   3.432 -0.1376 -0.6051 -0.1602
 6951TIP3    H120817   1.060   2.118   3.343 -0.3441  0.9833 -0.7719
 6951TIP3    H220818   1.140   2.105   3.471 -0.5798 -1.9290 -0.8720
 6952TIP3   OH220819   5.977   0.810   3.842  0.2755  0.5407 -0.0669
 6952TIP3    H120820   5.994   0.851   3.926  1.5438  0.4529 -0.2697
 6952TIP3    H220821   5.928   0.876   3.792  1.9042  1.6765 -0.2398
 6953TIP3   OH220822   4.634   4.497   1.856 -0.1721 -0.4906  0.1839
 6953TIP3    H120823   4.705   4.533   1.909  0.3550 -1.5139  0.1864
 6953TIP3    H220824   4.564   4.479   1.918 -0.1011 -0.3282  0.3124
 6954TIP3   OH220825   2.688   2.064   1.839  0.0417  0.1612 -0.2024
 6954TIP3    H120826   2.702   1.970   1.830  0.4432 -0.0581  2.0721
 6954TIP3    H220827   2.595   2.077   1.820 -0.2155 -0.8360  0.3219
 6955TIP3   OH220828   6.018   3.933   3.999  0.0372 -0.1814  0.0432
 6955TIP3    H120829   6.042   3.929   3.906 -0.5052  1.2072 -0.1872
 6955TIP3    H220830   6.024   3.843   4.029  2.7125 -0.3470 -0.6947
 6956TIP3   OH220831   3.504   5.843   2.065 -0.0955 -0.4526  0.7404
 6956TIP3    H120832   3.570   5.774   2.071  1.4719  1.0794  2.1175
 6956TIP3    H220833   3.470   5.852   2.153 -0.8228  0.0290  0.4194
 6957TIP3   OH220834   0.369   2.954   1.769  0.1121 -0.1217  0.3321
 6957TIP3    H120835   0.354   2.933   1.861  0.9515 -0.4449  0.4041
 6957TIP3    H220836   0.293   2.918   1.723 -1.0173  1.2499  1.0307
 6958TIP3   OH220837   2.682   6.495   5.551 -0.3738  0.5920  0.2481
 6958TIP3    H120838   2.668   6.568   5.490 -2.2030 -0.2663 -0.4349
 6958TIP3    H220839   2.625   6.514   5.625 -0.0070  0.4074  0.5817
 6959TIP3   OH220840   1.107   2.629   3.281  0.0272 -0.0122 -0.7687
 6959TIP3    H120841   1.065   2.544   3.275 -0.6198  0.3020 -0.7089
 6959TIP3    H220842   1.041   2.691   3.251  0.6194  0.4355 -1.1907
 6960TIP3   OH220843   6.459   0.978   0.090 -0.1408  0.6143  0.0029
 6960TIP3    H120844   6.467   0.890   0.054  1.1177  0.7049  0.0018
 6960TIP3    H220845   6.398   1.023   0.031 -0.4520 -0.1204 -0.2490
 6961TIP3   OH220846   2.920   4.851   1.936 -0.3039 -0.1115  0.2606
 6961TIP3    H120847   2.965   4.808   2.009  1.1908  0.3911 -0.3207
 6961TIP3    H220848   2.964   4.936   1.927 -0.9348  0.1252 -0.7579
 6962TIP3   OH220849   0.045   5.449   2.365  0.3256 -0.6517 -0.1171
 6962TIP3    H120850   0.128   5.407   2.385  1.6156  1.9641  0.3973
 6962TIP3    H220851   0.002   5.459   2.451  0.2924 -0.4038 -0.1619
 6963TIP3   OH220852   2.437   0.078   2.079  0.5357  0.2207  0.3187
 6963TIP3    H120853   2.384   0.137   2.025  0.0553  0.2350  0.8015
 6963TIP3    H220854   2.418  -0.009   2.044  1.0252  0.3174 -0.2070
 6964TIP3   OH220855   0.585   1.344   4.492  0.0445 -0.0368 -0.1842
 6964TIP3    H120856   0.522   1.403   4.451 -0.7775 -0.6381  0.1979
 6964TIP3    H220857   0.645   1.320   4.421 -0.5601 -0.0017 -0.7144
 6965TIP3   OH220858   2.204   3.928   4.038  0.0027 -0.5357  0.1582
 6965TIP3    H120859   2.127   3.978   4.063 -1.1577 -1.6165 -1.0230
 6965TIP3    H220860   2.268   3.943   4.107 -1.5348 -0.1601  1.5395
 6966TIP3   OH220861   5.276   1.326   5.338 -0.0623 -0.0660  0.1661
 6966TIP3    H120862   5.213   1.267   5.379  1.0387 -0.8187  0.8278
 6966TIP3    H220863   5.359   1.307   5.382  0.8621  0.1404 -1.4031
 6967TIP3   OH220864   4.560   4.145   4.056 -0.0379  0.0156 -0.0288
 6967TIP3    H120865   4.533   4.059   4.024  0.6151 -0.3945  0.4675
 6967TIP3    H220866   4.543   4.142   4.150 -1.7150  1.1143 -0.2526
 6968TIP3   OH220867   0.805   5.903   2.858  0.2438  0.0214 -0.4816
 6968TIP3    H120868   0.769   5.975   2.806 -0.2122  0.1810  0.0425
 6968TIP3    H220869   0.730   5.845   2.874  0.3910 -0.0633 -0.0734
 6969TIP3   OH220870   0.387   5.417   4.914 -0.0047 -0.2312 -0.7036
 6969TIP3    H120871   0.377   5.495   4.967  1.3844 -0.6002  0.1497
 6969TIP3    H220872   0.453   5.440   4.848  0.7105 -0.7857 -0.1989
 6970TIP3   OH220873   5.559   2.851   2.207  0.2883 -0.2037 -0.3140
 6970TIP3    H120874   5.543   2.929   2.260  0.1291 -0.2499 -0.2936
 6970TIP3    H220875   5.504   2.783   2.246  3.0046 -1.3251  1.8831
 6971TIP3   OH220876   1.519   0.990   4.141  0.3552 -0.3799 -0.2509
 6971TIP3    H120877   1.560   1.054   4.200  0.8545 -0.5716 -0.3855
 6971TIP3    H220878   1.570   0.996   4.060 -1.6219  1.4259 -1.4626
 6972TIP3   OH220879   5.756   5.618   2.275  0.1118 -0.4824 -0.0348
 6972TIP3    H120880   5.722   5.649   2.191 -0.6279 -1.3661 -0.0784
 6972TIP3    H220881   5.749   5.523   2.270 -1.6098 -0.5125  1.6816
 6973TIP3   OH220882   6.020   6.120   3.401 -0.0778  0.6639 -0.7265
 6973TIP3    H120883   6.057   6.186   3.458  1.8773  0.2769 -1.4649
 6973TIP3    H220884   5.957   6.167   3.347 -1.7890  1.0793  1.4837
 6974TIP3   OH220885   1.828   4.608   1.348 -0.4751  0.1939 -0.6047
 6974TIP3    H120886   1.778   4.594   1.428 -1.3535  0.7126 -1.0444
 6974TIP3    H220887   1.776   4.672   1.299 -0.4265 -0.7854 -1.9922
 6975TIP3   OH220888   6.748   4.120   5.107  0.1045  0.4036 -0.2325
 6975TIP3    H120889   6.817   4.106   5.042  0.3225 -0.1961  0.1127
 6975TIP3    H220890   6.699   4.038   5.108 -1.7140  1.4040 -1.6971
 6976TIP3   OH220891   3.747   1.892   5.151 -0.2440 -0.1975 -0.3809
 6976TIP3    H120892   3.688   1.873   5.078 -1.3951 -1.5932  0.8690
 6976TIP3    H220893   3.758   1.809   5.196 -0.2940  0.8017  1.5833
 6977TIP3   OH220894   6.298   5.466   3.964  0.0406 -0.2100 -0.0855
 6977TIP3    H120895   6.248   5.386   3.979  1.1239 -0.6746  1.3237
 6977TIP3    H220896   6.389   5.441   3.980  0.4168  1.2819  0.2978
 6978TIP3   OH220897   5.702   5.747   0.770 -0.4609  0.3230  0.6236
 6978TIP3    H120898   5.683   5.816   0.707 -0.2015 -0.8473 -0.7965
 6978TIP3    H220899   5.617   5.705   0.786 -0.1986 -0.7521 -0.6586
 6979TIP3   OH220900   0.607   6.101   5.845 -0.3734  0.4641  0.3660
 6979TIP3    H120901   0.550   6.111   5.769  1.6815  0.3678 -1.2951
 6979TIP3    H220902   0.562   6.038   5.901 -2.7036  1.7225  0.0436
 6980TIP3   OH220903   3.838   3.108   2.848  0.1334  0.6010 -0.2378
 6980TIP3    H120904   3.863   3.131   2.759  1.2972  0.1371 -0.0521
 6980TIP3    H220905   3.896   3.035   2.871 -0.2700  0.6031  0.8336
 6981TIP3   OH220906   4.519   1.517   1.522 -0.1381 -0.5847 -0.3612
 6981TIP3    H120907   4.515   1.483   1.612  0.7908 -2.3510 -0.9240
 6981TIP3    H220908   4.435   1.493   1.483 -0.2319 -0.5345 -0.1894
 6982TIP3   OH220909   3.041   4.352   1.339 -0.6392  0.5387  0.4099
 6982TIP3    H120910   2.967   4.305   1.298 -1.9533  1.9621  1.0311
 6982TIP3    H220911   3.061   4.423   1.277  0.1966  0.1809  0.2648
 6983TIP3   OH220912   2.788   3.617   4.455  0.0097  0.3282  0.4764
 6983TIP3    H120913   2.731   3.623   4.532  0.1839 -0.1884  0.6490
 6983TIP3    H220914   2.868   3.576   4.487 -0.9043 -2.4347 -0.4899
 6984TIP3   OH220915   3.729   2.888   3.399  0.0915 -0.4091 -0.2068
 6984TIP3    H120916   3.692   2.945   3.332 -1.1103 -0.9453 -0.0290
 6984TIP3    H220917   3.733   2.802   3.358  2.1187 -0.2042 -0.5547
 6985TIP3   OH220918   2.804   2.626   0.286  0.4337  0.7449 -0.0424
 6985TIP3    H120919   2.801   2.679   0.365 -0.0078 -0.7436  0.9840
 6985TIP3    H220920   2.773   2.539   0.314  0.2332  0.1945 -1.8533
 6986TIP3   OH220921   4.774   3.945   4.171 -0.1953  0.2820  0.2616
 6986TIP3    H120922   4.809   3.871   4.123 -0.1179  0.2470  0.3730
 6986TIP3    H220923   4.785   4.020   4.112 -0.9677  0.0747 -0.1581
 6987TIP3   OH220924   1.136   3.787   4.332  1.0941  0.3506 -0.4890
 6987TIP3    H120925   1.146   3.873   4.372  1.7470  1.0749 -2.1449
 6987TIP3    H220926   1.223   3.764   4.301  0.3340  0.6614 -3.0778
 6988TIP3   OH220927   5.702   5.353   2.252 -0.1127 -0.0531  0.2400
 6988TIP3    H120928   5.648   5.323   2.325  0.7836  2.4226  2.0536
 6988TIP3    H220929   5.789   5.318   2.272  0.0302  0.2258  0.1107
 6989TIP3   OH220930   5.748   4.359   4.192  0.7564  0.0922 -0.4039
 6989TIP3    H120931   5.728   4.413   4.116 -0.3369  1.8065  1.0346
 6989TIP3    H220932   5.716   4.272   4.168 -1.6076  1.0715 -1.1148
 6990TIP3   OH220933   4.590   5.570   2.311 -0.0505  0.7117 -0.6835
 6990TIP3    H120934   4.595   5.503   2.243 -2.8000 -0.6966  0.3702
 6990TIP3    H220935   4.534   5.638   2.274 -1.9837 -0.2952  0.2516
 6991TIP3   OH220936   4.920   4.710   0.918  0.0468  0.1423 -0.4487
 6991TIP3    H120937   5.011   4.682   0.918  0.1898  0.6052 -0.6184
 6991TIP3    H220938   4.870   4.629   0.930  0.5232  0.0560  1.1650
 6992TIP3   OH220939   4.994   0.488   2.780 -0.2665 -0.1466  0.6037
 6992TIP3    H120940   5.010   0.541   2.858  0.8069 -0.9342  0.9519
 6992TIP3    H220941   4.994   0.398   2.812 -1.6066 -0.3944 -0.0447
 6993TIP3   OH220942   2.760   2.387   2.354  0.0378  0.6108  0.2261
 6993TIP3    H120943   2.714   2.455   2.404 -1.6463 -1.8274  2.2855
 6993TIP3    H220944   2.740   2.306   2.401  0.1723 -1.6439 -3.2295
 6994TIP3   OH220945   0.497   3.325   4.777 -0.0242 -0.4234 -0.5051
 6994TIP3    H120946   0.541   3.333   4.862  1.6176 -1.1831 -1.2291
 6994TIP3    H220947   0.522   3.404   4.730 -1.3208  0.2236 -0.1376
 6995TIP3   OH220948  -0.003   5.431   0.966 -0.0091 -0.0979  0.2570
 6995TIP3    H120949   0.083   5.473   0.959  0.3287 -0.5274  1.6220
 6995TIP3    H220950   0.002   5.377   1.045 -1.4738 -0.2841  0.2575
 6996TIP3   OH220951   3.126   2.662   2.147  0.3656 -0.0778  0.1320
 6996TIP3    H120952   3.176   2.722   2.092  2.5103 -1.9966 -0.1616
 6996TIP3    H220953   3.131   2.577   2.102 -1.4167 -0.8043  1.1877
 6997TIP3   OH220954   1.833   1.122   0.918 -0.0046 -0.3483  0.4974
 6997TIP3    H120955   1.772   1.100   0.847  0.2167  0.4087  0.0666
 6997TIP3    H220956   1.912   1.073   0.898  0.4924  0.8037 -0.4705
 6998TIP3   OH220957   5.208   3.749   3.479 -0.2073 -0.6924  0.4393
 6998TIP3    H120958   5.303   3.744   3.467  0.0650 -0.8543  2.2546
 6998TIP3    H220959   5.183   3.661   3.508 -0.4248  0.0378  2.6517
 6999TIP3   OH220960   6.973   4.707   4.439 -0.1756  0.2052 -0.0227
 6999TIP3    H120961   7.065   4.692   4.418 -0.3229 -0.9478  0.1369
 6999TIP3    H220962   6.925   4.642   4.388 -0.7150 -1.0831  2.0244
 7000TIP3   OH220963   6.249   6.317   4.495  0.0883  0.3235  0.0730
 7000TIP3    H120964   6.270   6.224   4.494  0.2778  0.3723 -0.6811
 7000TIP3    H220965   6.237   6.340   4.403  1.1419  1.2918  0.1580
 7001TIP3   OH220966   1.800   4.534   3.240  0.1913  0.2526  0.0974
 7001TIP3    H120967   1.844   4.456   3.207 -1.8989 -0.1891 -1.8521
 7001TIP3    H220968   1.707   4.515   3.232 -0.3799  2.5264  0.6070
 7002TIP3   OH220969   2.603   2.955   0.785  0.1482  0.0470 -0.1346
 7002TIP3    H120970   2.688   2.913   0.771 -0.2769 -0.6158 -0.8503
 7002TIP3    H220971   2.621   3.048   0.781  0.9706 -0.0726  0.5449
 7003TIP3   OH220972   5.184   1.317   0.669 -0.0525 -0.1811 -0.1195
 7003TIP3    H120973   5.204   1.381   0.738  2.9814 -3.3438  2.2836
 7003TIP3    H220974   5.246   1.338   0.599 -0.6098  0.7824 -0.3514
 7004TIP3   OH220975   1.445   1.464   4.879  0.2276 -0.2894 -0.4703
 7004TIP3    H120976   1.463   1.424   4.794  0.3520 -0.3475 -0.4166
 7004TIP3    H220977   1.512   1.428   4.937 -0.8955 -1.5960  0.0700
 7005TIP3   OH220978   1.810   3.396   2.376 -0.3033  0.4506  0.2468
 7005TIP3    H120979   1.893   3.409   2.422 -0.7362  2.7065  0.5088
 7005TIP3    H220980   1.821   3.439   2.292 -0.5928 -0.9358 -0.5410
 7006TIP3   OH220981   5.696   1.712   2.647 -0.1570  0.1253  0.3448
 7006TIP3    H120982   5.745   1.722   2.565  0.6526 -1.7905  0.5418
 7006TIP3    H220983   5.743   1.766   2.710  0.6099 -0.2002  0.0702
 7007TIP3   OH220984   6.497   4.228   3.770  0.2919 -0.0081 -0.1264
 7007TIP3    H120985   6.488   4.204   3.678 -3.1068  1.4701 -0.3115
 7007TIP3    H220986   6.590   4.252   3.780  0.7988 -0.4257 -3.0703
 7008TIP3   OH220987   3.326   0.855   0.852  0.5820 -0.3954  0.7104
 7008TIP3    H120988   3.375   0.806   0.785  0.9306 -0.3851  0.9566
 7008TIP3    H220989   3.258   0.794   0.880 -1.4692  0.5633 -1.7150
 7009TIP3   OH220990   3.657   4.342   4.436  0.4884  0.1153  0.3046
 7009TIP3    H120991   3.716   4.269   4.451 -0.6025 -0.6353  1.0072
 7009TIP3    H220992   3.620   4.361   4.522 -0.4151  0.4735 -0.1589
 7010TIP3   OH220993   6.135   1.836   0.395 -0.2718  0.4130 -0.0829
 7010TIP3    H120994   6.074   1.856   0.324  1.2016 -0.2819 -1.5851
 7010TIP3    H220995   6.147   1.920   0.440  0.5709  1.4366 -2.1168
 7011TIP3   OH220996   0.617   4.873   4.851  0.2817 -0.3982  0.3198
 7011TIP3    H120997   0.646   4.964   4.859 -1.4292  0.1488  0.9412
 7011TIP3    H220998   0.541   4.878   4.792  1.3069 -1.7221 -1.1767
 7012TIP3   OH220999   4.809   6.346   1.785 -0.0953  0.3663 -0.3662
 7012TIP3    H121000   4.719   6.313   1.780  0.2555 -0.6774 -0.1174
 7012TIP3    H221001   4.810   6.401   1.863 -1.0784  2.2655 -1.6146
 7013TIP3   OH221002   6.874   0.565   5.444  0.0752 -0.2409 -0.4041
 7013TIP3    H121003   6.923   0.629   5.496  0.9710 -0.9120 -0.3956
 7013TIP3    H221004   6.861   0.491   5.503  0.4221 -0.6976 -0.8971
 7014TIP3   OH221005   0.417   4.953   4.684  0.2863 -0.0879  0.2359
 7014TIP3    H121006   0.398   5.029   4.740  1.2773  0.9095 -0.7176
 7014TIP3    H221007   0.498   4.977   4.640 -0.8179 -0.5292 -2.1664
 7015TIP3   OH221008   0.451   0.902   4.734  0.5130 -0.6111 -0.2735
 7015TIP3    H121009   0.422   0.855   4.656  0.3352 -1.7489  0.4532
 7015TIP3    H221010   0.396   0.869   4.805 -0.4986  1.6318  0.0882
 7016TIP3   OH221011   6.061   6.399   1.661  0.3466  0.4127  0.3079
 7016TIP3    H121012   6.139   6.434   1.617 -0.5291  2.0191 -0.0446
 7016TIP3    H221013   6.020   6.343   1.595  2.2335 -2.1962  1.1657
 7017TIP3   OH221014   5.701   3.433   0.582 -0.5378 -0.0438  0.1700
 7017TIP3    H121015   5.640   3.483   0.528 -0.7698 -0.2903  0.2002
 7017TIP3    H221016   5.740   3.498   0.641 -0.1160  0.2696 -0.4384
 7018TIP3   OH221017   0.229   6.524   3.176 -0.0962 -0.3761 -0.5198
 7018TIP3    H121018   0.244   6.432   3.155 -0.3445 -0.4249 -0.4860
 7018TIP3    H221019   0.215   6.525   3.271 -1.1804 -0.4516 -0.6686
 7019TIP3   OH221020   5.558   2.592   1.728  0.0966 -0.2799 -0.0666
 7019TIP3    H121021   5.590   2.563   1.643  0.5036 -2.5969  0.7887
 7019TIP3    H221022   5.504   2.669   1.709  0.4283 -0.5403 -2.3575
 7020TIP3   OH221023   2.701   6.748   3.526  0.0286 -0.3732 -0.3253
 7020TIP3    H121024   2.740   6.785   3.605 -0.4824  1.5706 -0.9093
 7020TIP3    H221025   2.768   6.690   3.490  0.9980  0.1816  0.5356
 7021TIP3   OH221026   4.081   2.556   2.390  0.4371  0.0896 -0.1152
 7021TIP3    H121027   3.991   2.527   2.371 -0.1385  1.7064 -0.0472
 7021TIP3    H221028   4.094   2.533   2.482 -0.0696  0.1831 -0.0123
 7022TIP3   OH221029   6.808   3.691   4.509  0.0968  0.2406 -0.0568
 7022TIP3    H121030   6.715   3.715   4.515 -0.6019 -2.3716  2.8314
 7022TIP3    H221031   6.807   3.606   4.464  1.2554  0.7655 -1.0998
 7023TIP3   OH221032   2.501   3.473   1.200  0.3614 -0.3200  0.0371
 7023TIP3    H121033   2.466   3.385   1.183  1.8406 -1.0437  0.5562
 7023TIP3    H221034   2.452   3.504   1.275 -0.4374 -0.5340 -0.3802
 7024TIP3   OH221035   4.262   1.503   1.272 -0.6201  0.3867 -0.0155
 7024TIP3    H121036   4.354   1.484   1.255 -0.2334  1.2044  1.0330
 7024TIP3    H221037   4.244   1.459   1.356 -1.0983  0.4714 -0.0707
 7025TIP3   OH221038   0.474   4.728   2.984  0.2024 -0.1073  0.1206
 7025TIP3    H121039   0.499   4.701   2.895 -2.2025  0.3014 -0.7642
 7025TIP3    H221040   0.472   4.646   3.034  0.4020 -0.5146 -0.5266
 7026TIP3   OH221041   1.278   4.216   0.962 -0.5105 -0.0115  0.2540
 7026TIP3    H121042   1.353   4.237   0.907 -0.1514 -1.4431  0.1557
 7026TIP3    H221043   1.316   4.188   1.045 -0.9399 -0.4955  0.2936
 7027TIP3   OH221044   3.490   6.456   2.099 -0.2692  0.1173 -0.2527
 7027TIP3    H121045   3.528   6.398   2.165  0.4903 -2.0728 -2.4928
 7027TIP3    H221046   3.551   6.530   2.093  0.3209 -0.2954  0.5630
 7028TIP3   OH221047   0.273   2.381   0.941  0.5040  0.4846  0.3702
 7028TIP3    H121048   0.328   2.408   0.867 -0.7973  1.0406 -0.4153
 7028TIP3    H221049   0.221   2.458   0.962 -1.4608 -0.6096 -0.2614
 7029TIP3   OH221050   2.795   2.846   4.791  0.0616  0.3088  0.5032
 7029TIP3    H121051   2.805   2.887   4.877 -0.4566 -2.1518  1.8204
 7029TIP3    H221052   2.721   2.892   4.752 -1.5240 -0.2758  2.5779
 7030TIP3   OH221053   0.028   6.063   3.517  0.1623  0.2943 -0.1117
 7030TIP3    H121054   0.091   6.096   3.453 -0.6597  1.2045 -0.4784
 7030TIP3    H221055   0.019   5.970   3.496  0.1501  0.5061 -1.1249
 7031TIP3   OH221056   3.063   2.529   1.238 -0.1514  0.5437  0.3062
 7031TIP3    H121057   3.067   2.597   1.306  0.4564 -0.1793  1.0157
 7031TIP3    H221058   2.975   2.538   1.201 -0.3869  1.1591  0.9778
 7032TIP3   OH221059   0.871   5.199   1.423  0.1593 -0.0412 -0.3750
 7032TIP3    H121060   0.886   5.292   1.408  1.3529 -0.3939 -1.4798
 7032TIP3    H221061   0.830   5.195   1.510 -1.2626  1.6045 -0.9298
 7033TIP3   OH221062   2.568   6.434   4.417  0.4655 -0.0643 -0.1868
 7033TIP3    H121063   2.611   6.469   4.339  0.4924  0.2584 -0.0303
 7033TIP3    H221064   2.482   6.405   4.385 -0.0296  1.2267 -0.1179
 7034TIP3   OH221065   4.222   5.505   2.024  0.2232  0.1787 -0.0485
 7034TIP3    H121066   4.129   5.530   2.022 -0.0441 -0.2815  2.5089
 7034TIP3    H221067   4.234   5.451   1.947 -1.1030  1.8655 -1.5474
 7035TIP3   OH221068   0.351   3.213   3.391 -0.3172 -0.0644 -1.3733
 7035TIP3    H121069   0.354   3.235   3.298 -1.2207 -0.4537 -1.5096
 7035TIP3    H221070   0.321   3.122   3.393  2.5485 -1.1065 -0.7898
 7036TIP3   OH221071   3.676   2.346   5.618  0.0934 -0.6339  0.1058
 7036TIP3    H121072   3.683   2.324   5.525 -0.1570 -0.6931  0.1008
 7036TIP3    H221073   3.583   2.360   5.632  0.4254  3.0212 -0.4945
 7037TIP3   OH221074   4.033   5.987   0.337  0.2902  0.1841  0.1356
 7037TIP3    H121075   4.112   6.033   0.309  1.5435 -2.3167 -0.7806
 7037TIP3    H221076   4.063   5.898   0.355 -2.2388 -0.6941  0.3787
 7038TIP3   OH221077   6.398   4.884   5.390 -0.1590  0.3401  0.0352
 7038TIP3    H121078   6.415   4.960   5.334 -0.7115  0.0784 -0.5059
 7038TIP3    H221079   6.342   4.918   5.460 -1.2801  0.2284 -0.7834
 7039TIP3   OH221080   5.093   4.455   0.389  0.2142  0.0513 -0.7657
 7039TIP3    H121081   5.111   4.435   0.481 -1.2819  1.1098 -0.1960
 7039TIP3    H221082   5.032   4.387   0.361  1.2308 -0.7005 -1.2301
 7040TIP3   OH221083   1.258   3.634   5.474  0.3875  0.2533 -0.0088
 7040TIP3    H121084   1.168   3.615   5.498  0.4724 -2.1058 -1.2430
 7040TIP3    H221085   1.256   3.646   5.379  1.4184 -0.3753 -0.1359
 7041TIP3   OH221086   2.421   2.444   3.626 -0.1060 -0.0174  0.4984
 7041TIP3    H121087   2.402   2.350   3.623 -0.6764  0.0712  1.0099
 7041TIP3    H221088   2.516   2.450   3.621 -0.1328 -0.5361 -1.1898
 7042TIP3   OH221089   6.498   4.918   0.539  0.0799 -0.3394  0.5662
 7042TIP3    H121090   6.514   4.902   0.446 -2.0696  0.8970 -0.0677
 7042TIP3    H221091   6.431   4.854   0.564 -1.0794  0.8583  0.6197
 7043TIP3   OH221092   1.483   4.043   5.850 -0.2632  0.1267  0.1197
 7043TIP3    H121093   1.462   4.047   5.943  3.7952  0.6784  1.2329
 7043TIP3    H221094   1.471   3.951   5.826 -0.2115 -0.2789  1.5572
 7044TIP3   OH221095   1.861   0.293   4.364  0.2493  0.0812  0.3407
 7044TIP3    H121096   1.821   0.373   4.329 -2.4643 -1.2294  0.2198
 7044TIP3    H221097   1.892   0.246   4.287  0.5081  0.3417  0.2854
 7045TIP3   OH221098   4.365   5.707   3.195  0.5986 -0.2280 -0.0163
 7045TIP3    H121099   4.425   5.755   3.138 -0.1298 -0.9054 -1.3916
 7045TIP3    H221100   4.292   5.683   3.139 -0.9021  0.4165  1.5741
 7046TIP3   OH221101   6.551   2.549   3.743 -0.3287  0.7453 -0.1636
 7046TIP3    H121102   6.589   2.492   3.677 -1.6049  2.1516 -2.2216
 7046TIP3    H221103   6.552   2.636   3.704 -0.2184  1.8362  2.0968
 7047TIP3   OH221104   4.801   1.405   3.926 -0.1894  0.6283  0.1921
 7047TIP3    H121105   4.854   1.449   3.859 -1.7685  2.0513 -0.1849
 7047TIP3    H221106   4.732   1.468   3.948 -0.9144 -0.6092  1.6884
 7048TIP3   OH221107   5.359   0.134   0.623 -0.2035 -0.0257 -0.1388
 7048TIP3    H121108   5.433   0.193   0.613  0.0835 -0.3376  0.1572
 7048TIP3    H221109   5.347   0.095   0.536  0.8064 -0.9609  0.1287
 7049TIP3   OH221110   4.160   0.049   4.646 -0.1958 -0.1888 -0.0535
 7049TIP3    H121111   4.112  -0.033   4.654 -3.4297  1.5107 -0.1442
 7049TIP3    H221112   4.098   0.109   4.605  2.4901  1.9790 -1.2703
 7050TIP3   OH221113   1.099   3.293   0.315  0.1115  0.1080 -0.2226
 7050TIP3    H121114   1.104   3.350   0.392 -1.0298 -1.9445  1.4500
 7050TIP3    H221115   1.176   3.237   0.322  0.1716  0.1124 -0.7784
 7051TIP3   OH221116   2.861   5.593   1.318 -0.3277  0.3453  0.6567
 7051TIP3    H121117   2.873   5.687   1.304  0.1361  0.1917 -0.0914
 7051TIP3    H221118   2.767   5.580   1.314 -0.3128  0.5172 -1.2469
 7052TIP3   OH221119   6.380   0.325   2.884 -0.1053  0.0070 -0.0930
 7052TIP3    H121120   6.459   0.351   2.836 -0.2882 -0.8702 -0.8976
 7052TIP3    H221121   6.345   0.252   2.834 -1.4880  0.4489  0.2000
 7053TIP3   OH221122   6.932   3.632   1.375  0.0996  0.6075  0.3152
 7053TIP3    H121123   6.976   3.581   1.307  0.0673 -1.1765  1.5715
 7053TIP3    H221124   6.841   3.600   1.373 -0.5208  2.3010 -0.4168
 7054TIP3   OH221125   2.539   4.100   2.860  0.2782 -0.4432  0.3600
 7054TIP3    H121126   2.565   4.085   2.769  0.2712 -0.8114  0.4182
 7054TIP3    H221127   2.480   4.176   2.856  0.4142 -0.3511  0.0814
 7055TIP3   OH221128   6.186   2.639   4.765 -0.0078 -0.1793 -0.0874
 7055TIP3    H121129   6.093   2.652   4.745  0.1974  0.0389 -0.9447
 7055TIP3    H221130   6.230   2.649   4.680  0.6285 -1.9944 -0.0090
 7056TIP3   OH221131   3.758   0.469   0.772  0.1932  0.0695  0.2038
 7056TIP3    H121132   3.680   0.505   0.813 -0.5767 -1.3749  0.0731
 7056TIP3    H221133   3.800   0.418   0.842 -0.1927 -0.9764 -0.3056
 7057TIP3   OH221134   0.794   1.580   5.510 -0.1901 -0.5861  0.1882
 7057TIP3    H121135   0.763   1.539   5.430  0.1053 -1.1021  0.3328
 7057TIP3    H221136   0.848   1.513   5.552  0.4454  0.0055  0.3412
 7058TIP3   OH221137   3.692   4.217   5.187  0.1769  0.2153  0.0668
 7058TIP3    H121138   3.613   4.164   5.194  0.4818 -0.3326 -0.5305
 7058TIP3    H221139   3.696   4.265   5.270  0.2663 -1.2312  0.9442
 7059TIP3   OH221140   1.387   2.377   1.368  0.1890  0.2115  0.3449
 7059TIP3    H121141   1.415   2.427   1.444  0.6965 -0.1954  0.4312
 7059TIP3    H221142   1.334   2.306   1.404 -1.3641  1.2338  0.1500
 7060TIP3   OH221143   2.428   4.734   0.484 -0.1382 -0.0664  0.2295
 7060TIP3    H121144   2.471   4.809   0.443  0.3305 -0.1458  0.5646
 7060TIP3    H221145   2.340   4.765   0.505  0.7579  1.1742  2.4690
 7061TIP3   OH221146   4.219   4.840   1.107  0.6843 -0.2363  0.2932
 7061TIP3    H121147   4.145   4.807   1.159  0.9933 -0.4207  0.6270
 7061TIP3    H221148   4.288   4.774   1.121  0.3768 -0.9513 -1.3535
 7062TIP3   OH221149   6.238   3.608   2.304  0.6050 -0.3655  0.0676
 7062TIP3    H121150   6.151   3.629   2.338  0.6203  0.6547 -0.4602
 7062TIP3    H221151   6.284   3.570   2.379 -0.3436 -1.0999  0.3025
 7063TIP3   OH221152   7.123   1.959   5.353  0.1215  0.2632 -0.3690
 7063TIP3    H121153   7.146   2.050   5.335 -0.9744  0.6012 -0.1881
 7063TIP3    H221154   7.084   1.961   5.440 -0.4680 -0.2671 -0.6079
 7064TIP3   OH221155   2.405   3.730   5.723  0.0945 -0.2750  0.4065
 7064TIP3    H121156   2.383   3.719   5.815  2.1376 -0.0053  0.9892
 7064TIP3    H221157   2.325   3.765   5.683 -1.4213 -2.1172  1.6701
 7065TIP3   OH221158   5.723   4.097   2.763 -0.0779  0.1514  0.0206
 7065TIP3    H121159   5.675   4.149   2.698  0.4691  0.3030 -0.2702
 7065TIP3    H221160   5.795   4.154   2.791  0.7994 -0.5975 -0.6365
 7066TIP3   OH221161   6.566   2.035   0.524 -0.3987 -0.5864 -0.0396
 7066TIP3    H121162   6.506   2.064   0.454  0.2438 -0.3097 -0.4839
 7066TIP3    H221163   6.519   1.965   0.568 -1.7491  0.6890  0.6626
 7067TIP3   OH221164   5.285   0.640   3.006  0.2255 -0.6302  0.6397
 7067TIP3    H121165   5.304   0.546   3.010 -0.9671 -0.9826 -1.0389
 7067TIP3    H221166   5.367   0.680   2.978  1.0250 -1.0212  2.3060
 7068TIP3   OH221167   4.191   3.908  -0.014  0.6387 -0.4676  0.5182
 7068TIP3    H121168   4.195   3.983   0.045  0.2487 -1.3117  1.6687
 7068TIP3    H221169   4.148   3.840   0.038  2.5368 -2.0442  0.1235
 7069TIP3   OH221170   1.185   5.676   1.688  0.2443  0.1158 -0.2769
 7069TIP3    H121171   1.204   5.764   1.657  0.8555 -0.2672 -1.0199
 7069TIP3    H221172   1.158   5.628   1.610 -1.2224 -0.0668  0.3185
 7070TIP3   OH221173   1.924   4.394   2.813 -0.0425  0.3862  0.5173
 7070TIP3    H121174   2.018   4.403   2.796 -0.2244  0.8565 -0.3123
 7070TIP3    H221175   1.896   4.323   2.756 -0.1886  0.2251  0.7875
 7071TIP3   OH221176   1.716   0.171   3.353  0.2003 -0.6689 -0.8192
 7071TIP3    H121177   1.661   0.093   3.356 -0.2855 -0.3104  0.3111
 7071TIP3    H221178   1.767   0.167   3.434 -1.7146  1.4813  0.6200
 7072TIP3   OH221179   2.439   0.469   0.530 -0.3747  0.3768  0.1455
 7072TIP3    H121180   2.519   0.522   0.532 -0.4698  0.5392 -0.3022
 7072TIP3    H221181   2.469   0.380   0.515 -0.3545  0.6209 -1.4000
 7073TIP3   OH221182   6.382   1.051   1.842 -0.2065 -0.1138  0.5460
 7073TIP3    H121183   6.443   1.074   1.772  0.1126  0.4073  0.9871
 7073TIP3    H221184   6.329   1.129   1.855 -0.0785 -0.1064  1.0718
 7074TIP3   OH221185   1.022   2.259   2.385 -0.5747  0.5106 -0.7599
 7074TIP3    H121186   0.991   2.324   2.322 -1.2945  0.4999 -0.4261
 7074TIP3    H221187   0.942   2.228   2.429 -0.2067 -0.3561 -0.6841
 7075TIP3   OH221188   4.640   4.972   0.803 -0.3227 -0.1044  0.2279
 7075TIP3    H121189   4.581   4.898   0.816 -0.5191 -0.3591 -1.8142
 7075TIP3    H221190   4.726   4.933   0.786  0.1524  0.2315  1.7103
 7076TIP3   OH221191   3.932   1.626   0.430 -0.1460 -0.3186  0.0888
 7076TIP3    H121192   3.887   1.680   0.366 -0.1041  0.3048  0.5668
 7076TIP3    H221193   3.900   1.537   0.415 -0.6220 -0.0717 -0.3579
 7077TIP3   OH221194   1.587   3.911   4.956  0.4159  0.3952  0.4306
 7077TIP3    H121195   1.644   3.878   4.886 -0.5801  0.1045 -0.2715
 7077TIP3    H221196   1.523   3.841   4.970  0.0393  0.8395  0.9865
 7078TIP3   OH221197   0.502   2.441   3.753 -0.4481  0.0867 -0.7577
 7078TIP3    H121198   0.485   2.531   3.782 -0.4686 -0.5707  1.4459
 7078TIP3    H221199   0.594   2.426   3.775 -1.1593 -1.3057  1.6402
 7079TIP3   OH221200   2.514   5.773   4.395 -0.7929 -0.9291  0.2200
 7079TIP3    H121201   2.512   5.681   4.369  0.2735 -0.6979 -0.7424
 7079TIP3    H221202   2.518   5.822   4.313 -2.0488  0.0215  0.6925
 7080TIP3   OH221203   3.571   2.562   2.467 -0.1189  0.0467 -0.3532
 7080TIP3    H121204   3.577   2.618   2.545 -1.3462 -0.8011  0.3940
 7080TIP3    H221205   3.580   2.623   2.394 -0.6245  1.1227  0.4388
 7081TIP3   OH221206   3.807   0.091   4.814 -0.2698 -0.8409  0.1225
 7081TIP3    H121207   3.802   0.022   4.747 -3.1070 -1.4263  0.7784
 7081TIP3    H221208   3.835   0.169   4.765  1.3313 -2.0339 -0.9707
 7082TIP3   OH221209   2.650   0.531   2.162  0.2230  0.0093 -0.0363
 7082TIP3    H121210   2.703   0.552   2.238  0.7749 -0.0869 -0.3918
 7082TIP3    H221211   2.616   0.443   2.179 -2.1945  1.1210  1.5171
 7083TIP3   OH221212   0.099   0.673   5.119 -0.2630 -0.4640  0.0269
 7083TIP3    H121213   0.039   0.645   5.188  0.0616 -0.7190  0.2054
 7083TIP3    H221214   0.067   0.629   5.041 -0.3833 -0.5023  0.0967
 7084TIP3   OH221215   4.700   1.384   0.131  0.7179  0.2160 -0.8362
 7084TIP3    H121216   4.788   1.418   0.145  0.6591  0.6045 -1.4049
 7084TIP3    H221217   4.712   1.306   0.077  0.8672 -0.8051  0.5955
 7085TIP3   OH221218   5.203   6.029   5.793  0.1202  0.7038  0.2854
 7085TIP3    H121219   5.233   5.947   5.753 -0.9325 -0.1982  1.2755
 7085TIP3    H221220   5.276   6.089   5.781 -0.0183  0.4309 -2.7108
 7086TIP3   OH221221   3.516   4.948   0.400 -0.5755  0.1394  0.1533
 7086TIP3    H121222   3.434   4.901   0.386 -0.2118 -1.2250  2.1950
 7086TIP3    H221223   3.582   4.892   0.360 -0.2549 -0.6824  1.7505
 7087TIP3   OH221224   5.459   1.013   3.799  0.1023 -0.8869 -0.4608
 7087TIP3    H121225   5.403   0.963   3.739 -0.2233 -1.9143  0.6528
 7087TIP3    H221226   5.547   0.978   3.785  0.1009 -0.8262 -0.6308
 7088TIP3   OH221227   3.142   1.609   1.704 -0.2098 -0.4446 -0.2696
 7088TIP3    H121228   3.179   1.531   1.746  1.0722  0.7003  0.8327
 7088TIP3    H221229   3.193   1.619   1.624  0.7214  0.1171  0.3680
 7089TIP3   OH221230   2.972   5.246   5.566 -0.0599  0.3956  0.1999
 7089TIP3    H121231   2.923   5.230   5.646  0.8910  1.7830  1.1087
 7089TIP3    H221232   2.920   5.311   5.519  0.1444  0.7404  0.4449
 7090TIP3   OH221233   1.158   1.127   3.026  0.0583  0.1448 -0.1001
 7090TIP3    H121234   1.078   1.106   3.074 -0.4010  0.6118 -0.6304
 7090TIP3    H221235   1.130   1.194   2.963  1.2098  1.4909  0.7719
 7091TIP3   OH221236   6.094   5.706   3.620 -0.2688  0.0822  0.1450
 7091TIP3    H121237   5.998   5.711   3.622 -0.3006  1.7830 -1.9431
 7091TIP3    H221238   6.115   5.670   3.534  0.9141  2.8063 -0.8506
 7092TIP3   OH221239   5.236   4.512   2.278  0.0834  0.0380  0.0913
 7092TIP3    H121240   5.205   4.556   2.199 -1.3549  1.5532  1.4423
 7092TIP3    H221241   5.202   4.423   2.271 -2.1694  0.8472  0.1338
 7093TIP3   OH221242   2.398   4.739   1.222  0.1665  0.1980  0.2413
 7093TIP3    H121243   2.423   4.751   1.313 -2.2385 -0.5194  1.0764
 7093TIP3    H221244   2.364   4.824   1.194 -1.6629 -0.2529  0.9508
 7094TIP3   OH221245   5.725   1.292   4.340 -0.0057 -0.6407  0.0786
 7094TIP3    H121246   5.650   1.246   4.302  1.3466 -3.2401  0.3109
 7094TIP3    H221247   5.771   1.329   4.265 -0.1482 -1.2834 -0.3408
 7095TIP3   OH221248   2.750   2.481   5.205  0.2867 -0.2528 -0.1165
 7095TIP3    H121249   2.828   2.509   5.254  0.3920 -1.2661  0.3190
 7095TIP3    H221250   2.744   2.387   5.222 -1.9412  0.0608  1.1193
 7096TIP3   OH221251   2.090   4.405   4.863 -0.1268 -0.1442 -0.1245
 7096TIP3    H121252   2.127   4.478   4.911  0.1463 -0.7028  0.5298
 7096TIP3    H221253   2.154   4.387   4.794  1.0406 -1.3074  1.1885
 7097TIP3   OH221254   3.471   2.048   3.311 -0.7365 -0.0414 -0.2375
 7097TIP3    H121255   3.548   2.093   3.347  1.3414 -3.7106  0.3996
 7097TIP3    H221256   3.488   2.045   3.217 -3.0923  4.0328 -1.0365
 7098TIP3   OH221257   3.042   4.621   2.998  0.1674  0.4313  0.4308
 7098TIP3    H121258   3.049   4.607   2.903 -1.1875 -0.4507  0.4274
 7098TIP3    H221259   3.005   4.709   3.007 -1.0736 -0.0335  0.0699
 7099TIP3   OH221260   2.049   2.912   1.390 -0.1822  0.2192 -0.3819
 7099TIP3    H121261   2.098   2.878   1.316 -0.9328 -0.8250 -0.4227
 7099TIP3    H221262   2.000   2.837   1.423 -1.0718  1.0194  0.1902
 7100TIP3   OH221263   1.084   4.972   5.546 -0.1813 -0.2845  0.0539
 7100TIP3    H121264   0.988   4.979   5.544 -0.1346  0.4314  0.2183
 7100TIP3    H221265   1.100   4.882   5.572 -0.8132 -0.5698 -0.4960
 7101TIP3   OH221266   2.030   0.619   4.133 -0.0103  0.2799 -0.3575
 7101TIP3    H121267   2.035   0.537   4.183  1.6875  0.0519 -0.8316
 7101TIP3    H221268   2.023   0.687   4.199 -0.0782 -0.1643  0.0996
 7102TIP3   OH221269   5.012   5.192   2.625  0.0235 -0.4822  0.3533
 7102TIP3    H121270   4.959   5.167   2.549 -1.0056  3.1733 -0.3491
 7102TIP3    H221271   4.952   5.242   2.680  1.5205 -0.5227  2.0901
 7103TIP3   OH221272   3.316   6.287   2.681 -0.4752 -0.4935  0.4523
 7103TIP3    H121273   3.270   6.209   2.653 -1.2059 -0.0728  0.4647
 7103TIP3    H221274   3.322   6.281   2.776 -1.3507 -0.0990  0.5421
 7104TIP3   OH221275   0.179   2.142   5.536  0.0858  0.1851 -0.3529
 7104TIP3    H121276   0.131   2.087   5.598 -0.8240 -0.9319 -1.9532
 7104TIP3    H221277   0.192   2.225   5.582  0.3863 -0.9276  1.6769
 7105TIP3   OH221278   6.634   5.638   2.541 -0.4944  0.5865 -0.1191
 7105TIP3    H121279   6.574   5.635   2.616 -2.0833  1.3002 -1.3124
 7105TIP3    H221280   6.651   5.546   2.521 -0.1482  0.3807  1.0064
 7106TIP3   OH221281   3.965   4.379   0.462  0.3507 -0.4353 -0.4656
 7106TIP3    H121282   3.950   4.360   0.370  0.3349 -0.9443 -0.3575
 7106TIP3    H221283   3.994   4.471   0.463  1.6202 -0.8044 -1.0998
 7107TIP3   OH221284   6.619   3.952   5.719  0.2456 -0.4235 -0.0362
 7107TIP3    H121285   6.527   3.978   5.711 -0.0133 -1.2589  0.1704
 7107TIP3    H221286   6.666   4.035   5.727 -0.4345  0.0419 -0.6586
 7108TIP3   OH221287   2.519   5.071   3.726 -0.0580 -0.0128 -0.1694
 7108TIP3    H121288   2.444   5.079   3.667 -0.9502  0.7511  1.0185
 7108TIP3    H221289   2.531   5.159   3.763  1.7302 -0.0105 -0.6713
 7109TIP3   OH221290   2.505   3.294   4.078  0.0783  0.0822 -0.0928
 7109TIP3    H121291   2.538   3.323   3.992  0.9768 -0.9195 -0.1017
 7109TIP3    H221292   2.557   3.343   4.141  2.1621 -1.9801 -0.0957
 7110TIP3   OH221293   5.507   5.379   5.537  0.1953  0.7179 -0.7993
 7110TIP3    H121294   5.490   5.418   5.451 -0.4910 -1.4958 -1.7279
 7110TIP3    H221295   5.438   5.314   5.548  3.1282 -2.7597 -0.9669
 7111TIP3   OH221296   0.867   3.890   4.093 -0.2518 -0.4656  0.3352
 7111TIP3    H121297   0.786   3.879   4.043  0.8261  1.0188 -1.8764
 7111TIP3    H221298   0.914   3.808   4.079 -0.8798 -0.9101  0.7506
 7112TIP3   OH221299   3.951   5.640   5.575  0.8394  0.0031 -0.3587
 7112TIP3    H121300   3.980   5.729   5.591  0.6801 -0.1032  0.5680
 7112TIP3    H221301   3.946   5.633   5.480 -0.2042  1.3228 -0.4375
 7113TIP3   OH221302   5.046   0.501   0.354  0.5262 -0.0895 -0.6321
 7113TIP3    H121303   4.981   0.461   0.412 -0.1688 -1.6678 -2.3961
 7113TIP3    H221304   5.051   0.592   0.384 -0.1500 -0.6847  1.5412
 7114TIP3   OH221305   0.515   2.830   0.445 -0.0669 -0.2439  0.4770
 7114TIP3    H121306   0.521   2.790   0.358  2.8476 -1.8490  1.2966
 7114TIP3    H221307   0.545   2.920   0.432  0.7075 -0.5768 -0.1215
 7115TIP3   OH221308   5.944   1.975   4.353  0.1166  0.0774 -0.3783
 7115TIP3    H121309   5.936   1.987   4.448  0.2370  3.5242 -0.6616
 7115TIP3    H221310   6.018   2.031   4.328 -1.5520  1.4226 -2.7561
 7116TIP3   OH221311   4.009   2.249   5.519  0.1715  0.4232 -0.2985
 7116TIP3    H121312   4.079   2.309   5.494 -0.7720  2.2606  1.2648
 7116TIP3    H221313   3.938   2.267   5.458  0.2005  0.2317 -0.3916
 7117TIP3   OH221314   2.029   4.923   2.370 -0.3784  0.2136 -0.4656
 7117TIP3    H121315   1.936   4.927   2.395  0.4604  1.7087  3.1082
 7117TIP3    H221316   2.041   4.996   2.310 -1.7054 -0.8380 -2.1048
 7118TIP3   OH221317   6.029   0.721   5.183  0.0444 -0.3193  0.0082
 7118TIP3    H121318   6.121   0.698   5.197  0.0205 -0.3594  0.0942
 7118TIP3    H221319   6.030   0.817   5.176 -0.1505 -0.1599  1.7991
 7119TIP3   OH221320   6.728   1.769   0.526 -0.3075  0.5088 -0.4285
 7119TIP3    H121321   6.708   1.809   0.611  1.6715 -1.5202  1.0866
 7119TIP3    H221322   6.822   1.782   0.515  0.0148 -1.8429 -0.8544
 7120TIP3   OH221323   6.660   1.230   4.924 -0.3727 -0.4856 -0.5098
 7120TIP3    H121324   6.577   1.272   4.901 -0.9569 -1.0221  0.5093
 7120TIP3    H221325   6.656   1.144   4.882  0.1434 -0.1175 -1.3291
 7121TIP3   OH221326   6.069   5.262   3.039  0.0294 -0.2906 -0.0179
 7121TIP3    H121327   6.157   5.289   3.011 -0.2208  1.7975  1.0331
 7121TIP3    H221328   6.083   5.217   3.122  0.1101  0.2157  0.2490
 7122TIP3   OH221329   5.043   1.298   1.663  0.1279  0.3523  0.3328
 7122TIP3    H121330   5.124   1.314   1.615  1.2348  1.1856  2.3740
 7122TIP3    H221331   5.048   1.206   1.690 -0.2000  0.0691 -0.5001
 7123TIP3   OH221332   1.316   6.079   2.937  0.1230 -0.7340 -0.2218
 7123TIP3    H121333   1.363   6.134   2.874 -0.5341 -1.3227 -1.2453
 7123TIP3    H221334   1.226   6.076   2.904 -0.4749 -0.2409  1.3039
 7124TIP3   OH221335   2.247   0.553   2.338 -0.3887  0.1604 -0.3878
 7124TIP3    H121336   2.245   0.470   2.386 -0.8888 -0.2160 -1.0417
 7124TIP3    H221337   2.197   0.613   2.392  0.0537  0.0658  0.1360
 7125TIP3   OH221338   2.934   6.180   4.286  0.6034  0.1937  0.4086
 7125TIP3    H121339   2.919   6.232   4.364 -0.5876 -0.8002  0.8799
 7125TIP3    H221340   3.002   6.117   4.311  0.6489  0.2622  0.4552
 7126TIP3   OH221341   0.477   6.225   1.858 -0.1096 -0.1772  0.6924
 7126TIP3    H121342   0.567   6.197   1.840  0.5031  1.1166  1.5189
 7126TIP3    H221343   0.485   6.280   1.936 -1.2677  1.7814 -0.4691
 7127TIP3   OH221344   2.263   0.285   3.331 -0.4541  0.0246  0.2228
 7127TIP3    H121345   2.238   0.308   3.242  0.4257 -1.0933 -0.3465
 7127TIP3    H221346   2.198   0.222   3.360 -0.8626  0.5497  0.4634
 7128TIP3   OH221347   4.368   0.138   3.281 -0.6158  0.2554 -0.5648
 7128TIP3    H121348   4.302   0.086   3.328 -1.0173  1.0839 -0.1777
 7128TIP3    H221349   4.448   0.128   3.333 -1.1507  1.4770  0.5655
 7129TIP3   OH221350   1.411   3.736   3.505  0.1551  0.1803 -0.1954
 7129TIP3    H121351   1.385   3.649   3.475 -0.1898  0.8819 -2.1077
 7129TIP3    H221352   1.336   3.769   3.553  0.7972 -1.0700  1.7710
 7130TIP3   OH221353   4.045   2.630   4.035 -0.1706 -0.5326  0.0171
 7130TIP3    H121354   4.030   2.571   3.961 -0.3101  0.5391 -0.8249
 7130TIP3    H221355   4.086   2.707   3.997 -1.7294  0.7241  0.7838
 7131TIP3   OH221356   0.744   3.009   5.516  0.0320 -0.5860  0.3355
 7131TIP3    H121357   0.718   3.027   5.606  0.7771 -0.8759  0.6176
 7131TIP3    H221358   0.737   2.914   5.508 -1.1782 -0.4629 -0.2850
 7132TIP3   OH221359   6.845   5.094   2.068  0.6947 -0.2024  0.2668
 7132TIP3    H121360   6.811   5.051   1.990  2.6323 -0.2305 -0.6326
 7132TIP3    H221361   6.776   5.084   2.134 -0.7782 -0.6145 -1.2814
 7133TIP3   OH221362   1.381   2.944   5.319  0.4308 -0.0387 -0.4036
 7133TIP3    H121363   1.449   3.010   5.334  0.3866 -0.3851  1.4840
 7133TIP3    H221364   1.429   2.861   5.315  0.0832 -0.4051  1.9424
 7134TIP3   OH221365   0.899   1.110   3.109 -0.3980  0.2973  0.3000
 7134TIP3    H121366   0.864   1.191   3.072 -0.8890  0.7256  1.6172
 7134TIP3    H221367   0.895   1.124   3.204 -0.0146 -1.0780  0.5414
 7135TIP3   OH221368   0.635   0.195   5.550 -0.1327  0.2306  0.0636
 7135TIP3    H121369   0.594   0.113   5.521 -0.5072  0.4554 -0.0490
 7135TIP3    H221370   0.619   0.197   5.645 -1.1571  0.7390 -0.1058
 7136TIP3   OH221371   7.231   5.200   1.839 -0.3925 -0.2386 -0.3219
 7136TIP3    H121372   7.148   5.231   1.877 -0.1351 -0.2187  0.2382
 7136TIP3    H221373   7.235   5.242   1.753 -1.7845 -1.5920 -1.0930
 7137TIP3   OH221374   2.659   3.210   0.813  0.0463 -0.3976 -0.2060
 7137TIP3    H121375   2.745   3.250   0.824 -0.6703  1.1751 -0.1209
 7137TIP3    H221376   2.623   3.251   0.734 -0.7681 -0.7772 -0.0443
 7138TIP3   OH221377   1.862   6.287   4.469  0.2550 -0.2654  0.4686
 7138TIP3    H121378   1.814   6.358   4.426  0.7771 -0.5350 -0.5976
 7138TIP3    H221379   1.850   6.303   4.563 -0.5948  0.5631  0.2314
 7139TIP3   OH221380   2.557   0.237   3.552 -0.1728 -0.2204 -0.7285
 7139TIP3    H121381   2.491   0.289   3.506 -0.9091  0.0903  0.6154
 7139TIP3    H221382   2.550   0.149   3.514 -0.6455  0.0579 -1.2988
 7140TIP3   OH221383   3.198   3.248   2.035 -0.3666 -0.0830 -0.4757
 7140TIP3    H121384   3.249   3.170   2.058 -0.2487  0.5023  1.3706
 7140TIP3    H221385   3.144   3.265   2.112  0.5626  2.4228 -0.2808
 7141TIP3   OH221386   0.692   1.397   2.577 -0.0134  0.2413  0.1511
 7141TIP3    H121387   0.644   1.440   2.507  0.5413  1.5377  0.5524
 7141TIP3    H221388   0.783   1.397   2.549 -0.0181 -0.8552  0.0762
 7142TIP3   OH221389   4.136   3.025   5.445 -0.1757  0.3549  0.0485
 7142TIP3    H121390   4.100   2.998   5.361  0.0104  0.7087 -0.1416
 7142TIP3    H221391   4.209   3.082   5.424 -0.5070  0.9468  0.4489
 7143TIP3   OH221392   2.921   0.966   0.935 -0.2880 -0.3159 -0.1362
 7143TIP3    H121393   2.830   0.984   0.961  0.3294  2.0735  0.6478
 7143TIP3    H221394   2.920   0.974   0.840 -0.9476 -0.4539 -0.1469
 7144TIP3   OH221395   0.149   2.743   3.927  0.3785  0.2777 -0.3146
 7144TIP3    H121396   0.167   2.657   3.890  1.4996  0.0755  0.6309
 7144TIP3    H221397   0.058   2.739   3.955  0.3041 -0.4671 -0.6367
 7145TIP3   OH221398   6.921   2.016   3.306  0.1477  0.9910 -0.1860
 7145TIP3    H121399   6.945   2.104   3.276  1.2393  0.1397 -1.9895
 7145TIP3    H221400   6.936   1.960   3.230  3.4107 -1.4222  1.9390
 7146TIP3   OH221401   0.713   1.194   1.276  0.2603  0.5826 -0.2335
 7146TIP3    H121402   0.725   1.289   1.276 -0.4742  0.6831  0.3900
 7146TIP3    H221403   0.761   1.164   1.199 -0.8799  1.6399 -1.3919
 7147TIP3   OH221404   3.231   1.140   4.851 -0.0640 -0.6579  0.4233
 7147TIP3    H121405   3.143   1.124   4.884 -0.4858  0.8633  0.1151
 7147TIP3    H221406   3.218   1.176   4.763  0.8473 -0.1506  0.4787
 7148TIP3   OH221407   5.435   5.390   2.519  0.6632  0.0769  0.5163
 7148TIP3    H121408   5.512   5.351   2.561  1.6244  1.3935  0.0371
 7148TIP3    H221409   5.363   5.369   2.577  1.3919 -1.0689  1.0545
 7149TIP3   OH221410   7.165   4.048   2.442  0.2718  0.3207 -0.0784
 7149TIP3    H121411   7.213   4.070   2.363  0.0641 -0.5518 -0.4660
 7149TIP3    H221412   7.221   4.076   2.514  0.8390  0.3502 -0.5293
 7150TIP3   OH221413   5.587   0.338   0.652  0.3296  0.1183 -0.4253
 7150TIP3    H121414   5.677   0.368   0.641  0.8626 -1.5315 -0.6881
 7150TIP3    H221415   5.566   0.360   0.743  1.1874  0.0218 -0.1935
 7151TIP3   OH221416   0.232   4.409   5.000 -0.1735  0.2664  0.3927
 7151TIP3    H121417   0.204   4.322   4.973  1.9604 -0.9267  1.7069
 7151TIP3    H221418   0.303   4.431   4.939  1.3107 -0.2806  1.8495
 7152TIP3   OH221419   0.603   4.153   4.480  0.0505 -0.4647  0.3492
 7152TIP3    H121420   0.625   4.114   4.565  0.6763  0.0088  0.4091
 7152TIP3    H221421   0.686   4.187   4.447 -0.5607  1.2805  0.5381
 7153TIP3   OH221422   2.358   2.886   2.973  0.0573  0.0086 -0.3278
 7153TIP3    H121423   2.411   2.834   3.034 -1.9363  0.1147  1.6284
 7153TIP3    H221424   2.301   2.938   3.030 -1.8194  0.2165 -2.2839
 7154TIP3   OH221425   3.278   0.845   2.892  0.2655  0.0944 -0.5005
 7154TIP3    H121426   3.278   0.846   2.988 -0.7581 -0.5530 -0.4762
 7154TIP3    H221427   3.338   0.774   2.869  1.4685  1.0451 -0.3809
 7155TIP3   OH221428   6.115   5.778   2.266  0.3466  0.4136 -0.1951
 7155TIP3    H121429   6.045   5.755   2.205 -0.1335 -0.8076  0.7795
 7155TIP3    H221430   6.195   5.758   2.218  0.0273  1.2078 -1.0860
 7156TIP3   OH221431   1.109   6.741   2.106 -0.3017 -0.0220 -0.0616
 7156TIP3    H121432   1.200   6.716   2.125  0.2026 -1.2244 -3.3851
 7156TIP3    H221433   1.115   6.835   2.086 -0.0485  0.1861  0.9179
 7157TIP3   OH221434   4.400   5.691   2.165 -0.2124  0.5499  0.3361
 7157TIP3    H121435   4.380   5.639   2.088  0.2384  3.0044 -1.5998
 7157TIP3    H221436   4.333   5.760   2.166  1.7612  2.6124 -0.0208
 7158TIP3   OH221437   0.665   1.551   0.103 -0.2229 -0.5273 -0.0574
 7158TIP3    H121438   0.618   1.571   0.022  1.2320  0.2336 -0.7510
 7158TIP3    H221439   0.713   1.471   0.084  1.0041  0.2574 -0.3610
 7159TIP3   OH221440   1.208   0.556   4.215 -0.4172  0.5248  0.0796
 7159TIP3    H121441   1.130   0.592   4.173  0.3479  3.1616  0.7394
 7159TIP3    H221442   1.175   0.512   4.293 -1.3754  0.2591 -0.4643
 7160TIP3   OH221443   6.072   0.155   2.973  0.1199 -0.2552  0.6150
 7160TIP3    H121444   6.103   0.175   3.062  0.9530 -2.0353  0.7809
 7160TIP3    H221445   6.111   0.070   2.953 -2.9619 -1.6455 -0.0563
 7161TIP3   OH221446   4.616   4.101   5.689 -0.3706 -0.2896 -0.5119
 7161TIP3    H121447   4.563   4.116   5.611  0.6119  0.2830 -1.0906
 7161TIP3    H221448   4.639   4.008   5.685  3.4895  0.5551 -3.4883
 7162TIP3   OH221449   3.806   5.556   3.997 -0.4338 -0.1255 -0.0614
 7162TIP3    H121450   3.900   5.541   3.986 -0.3677 -0.7297  1.1597
 7162TIP3    H221451   3.795   5.575   4.090 -1.6822 -1.3750  0.0862
 7163TIP3   OH221452   4.949   1.199   3.470 -0.1034 -0.1082 -0.6169
 7163TIP3    H121453   5.008   1.154   3.529 -1.7688 -0.9966  0.4520
 7163TIP3    H221454   4.924   1.132   3.406 -0.9905 -0.1365 -0.2497
 7164TIP3   OH221455   4.894   3.516   2.394  0.0639  0.5867  0.0596
 7164TIP3    H121456   4.984   3.487   2.382  0.7325  1.1267  3.0240
 7164TIP3    H221457   4.867   3.475   2.476 -2.3889  0.5381 -0.6967
 7165TIP3   OH221458   2.060   5.430   4.041 -0.2319  0.1020 -0.3604
 7165TIP3    H121459   2.058   5.335   4.027 -0.2431 -0.3453  2.2677
 7165TIP3    H221460   2.000   5.465   3.975 -0.1449 -1.6957 -1.4522
 7166TIP3   OH221461   5.502   4.818   0.454 -0.2517 -0.4503 -0.3913
 7166TIP3    H121462   5.544   4.843   0.371  0.9880 -1.3823 -0.0680
 7166TIP3    H221463   5.535   4.730   0.472 -0.9514 -0.4824  0.8082
 7167TIP3   OH221464   1.414   6.161   0.290 -0.0530  0.0893  0.2358
 7167TIP3    H121465   1.358   6.084   0.300  0.1285 -0.3803 -1.9342
 7167TIP3    H221466   1.354   6.232   0.267 -0.3017  0.8239  2.8619
 7168TIP3   OH221467   4.844   4.462   1.000  0.3938 -0.1381  0.1124
 7168TIP3    H121468   4.858   4.394   0.934 -1.5344 -1.8868  1.3726
 7168TIP3    H221469   4.923   4.457   1.055  0.3439 -1.3337  0.1142
 7169TIP3   OH221470   5.545   3.019   3.216  0.4676  0.3978 -0.0070
 7169TIP3    H121471   5.450   3.031   3.222  0.2681 -0.5141 -0.9342
 7169TIP3    H221472   5.562   2.937   3.263  0.5871 -0.1565 -0.9792
 7170TIP3   OH221473   2.416   3.307   3.189  0.5349 -0.1154  0.3122
 7170TIP3    H121474   2.479   3.362   3.143 -0.3386  2.0288  1.4839
 7170TIP3    H221475   2.341   3.365   3.203 -0.5028 -1.6763  1.5355
 7171TIP3   OH221476   4.885   5.903   2.541 -0.7386  0.2152 -0.0770
 7171TIP3    H121477   4.803   5.891   2.589 -1.4367 -0.3028 -1.3441
 7171TIP3    H221478   4.859   5.898   2.449  0.8881 -1.1463 -0.5094
 7172TIP3   OH221479   1.585   2.605   1.662 -0.4925  0.2969 -0.2996
 7172TIP3    H121480   1.576   2.697   1.687 -0.2732  0.4756 -0.8704
 7172TIP3    H221481   1.596   2.559   1.745  0.1387  0.8696 -0.0596
 7173TIP3   OH221482   3.640   5.651   5.570  0.0280  0.6203  0.4337
 7173TIP3    H121483   3.630   5.563   5.605  0.8437 -0.1651 -1.2109
 7173TIP3    H221484   3.734   5.667   5.571 -0.0841  1.3414  0.3657
 7174TIP3   OH221485   5.108   5.690   3.805  0.5026  0.0235 -0.1884
 7174TIP3    H121486   5.126   5.613   3.859  1.3547  0.1381 -0.3029
 7174TIP3    H221487   5.133   5.663   3.716  3.9842  1.4622  0.2320
 7175TIP3   OH221488   0.733   6.551   1.454 -0.1946  0.9508 -0.4089
 7175TIP3    H121489   0.673   6.603   1.508  0.5561  1.7341 -0.3223
 7175TIP3    H221490   0.725   6.462   1.489 -0.7003  1.1976  0.1273
 7176TIP3   OH221491   0.007   5.230   1.172  0.0832 -0.5421 -0.4094
 7176TIP3    H121492  -0.053   5.202   1.241 -1.8423  2.3060 -0.7359
 7176TIP3    H221493   0.093   5.199   1.201 -0.8768 -0.8902  2.4291
 7177TIP3   OH221494   5.920   0.729   1.304  0.4955  0.1284  0.2913
 7177TIP3    H121495   5.955   0.754   1.219 -1.0091 -0.5223 -0.5650
 7177TIP3    H221496   5.995   0.690   1.350  1.6381  1.6493 -0.2162
 7178TIP3   OH221497   6.170   0.204   3.585 -0.3606  0.0957  0.2642
 7178TIP3    H121498   6.119   0.272   3.540  0.1515 -1.1161 -2.2519
 7178TIP3    H221499   6.129   0.122   3.559  2.1829 -0.8615 -1.0203
 7179TIP3   OH221500   2.377   2.446   3.036 -0.6228 -0.6776  0.2274
 7179TIP3    H121501   2.394   2.352   3.026 -2.2276 -1.1051  1.1779
 7179TIP3    H221502   2.364   2.458   3.130 -1.1711  0.3542  0.0339
 7180TIP3   OH221503   2.056   1.185   2.228 -0.8342 -0.1570 -0.2883
 7180TIP3    H121504   1.968   1.171   2.263 -0.9247  1.9456  0.4733
 7180TIP3    H221505   2.043   1.195   2.133 -1.4336  0.1627 -0.1804
 7181TIP3   OH221506   0.964   1.386   2.527  0.0495 -0.2082 -0.3165
 7181TIP3    H121507   1.047   1.399   2.573  0.8089 -0.8296 -1.4465
 7181TIP3    H221508   0.939   1.296   2.547 -1.7789  0.7586  2.1738
 7182TIP3   OH221509   6.312   0.784   5.893 -0.5038  0.5619  0.2527
 7182TIP3    H121510   6.235   0.834   5.920 -1.5673 -0.9392  0.1634
 7182TIP3    H221511   6.357   0.841   5.830 -1.4477  1.5455  0.4376
 7183TIP3   OH221512   2.905   4.492   2.162  0.0700 -0.4799  0.0114
 7183TIP3    H121513   2.863   4.406   2.152  1.4763 -1.4286  1.6703
 7183TIP3    H221514   2.861   4.531   2.238 -0.4548  0.2234 -0.6402
 7184TIP3   OH221515   1.898   1.349   1.051  0.2418  0.0081 -0.9964
 7184TIP3    H121516   1.844   1.292   0.995 -1.2865  2.0689 -1.7505
 7184TIP3    H221517   1.982   1.304   1.056 -0.6695 -1.9782 -2.0841
 7185TIP3   OH221518   3.736   5.888   0.434  0.6486  0.0341 -0.2898
 7185TIP3    H121519   3.715   5.797   0.452 -0.1000  0.2916  0.1979
 7185TIP3    H221520   3.830   5.894   0.448  0.3043 -0.0162  2.7130
 7186TIP3   OH221521   6.104   2.953   4.591 -0.1343 -0.1442 -0.6396
 7186TIP3    H121522   6.098   3.022   4.657  1.5957  0.4502 -1.0590
 7186TIP3    H221523   6.080   2.873   4.638 -1.4630  0.6100  0.0348
 7187TIP3   OH221524   5.220   5.499   5.676  0.0575 -0.0610  0.3958
 7187TIP3    H121525   5.175   5.435   5.731 -0.3446  0.6841  0.9501
 7187TIP3    H221526   5.204   5.470   5.586  0.1725 -0.9239  0.6531
 7188TIP3   OH221527   0.256   4.787   4.544 -0.2331  0.3492  0.3632
 7188TIP3    H121528   0.183   4.848   4.548  1.9174  3.1155  0.4911
 7188TIP3    H221529   0.329   4.834   4.583  2.0649 -1.6247 -1.2448
 7189TIP3   OH221530   3.447   1.280   5.247  0.1896 -0.1986 -0.5920
 7189TIP3    H121531   3.489   1.366   5.254  0.8094 -0.5950  1.1581
 7189TIP3    H221532   3.379   1.282   5.315  0.1904 -1.0824 -0.5656
 7190TIP3   OH221533   0.889   5.580   2.631 -0.4476 -0.3397  0.0345
 7190TIP3    H121534   0.899   5.665   2.588  0.7409  0.0623  1.0455
 7190TIP3    H221535   0.924   5.517   2.567 -0.6470  0.0080 -0.4255
 7191TIP3   OH221536   0.798   6.333   2.104 -0.0673 -0.0077  0.2052
 7191TIP3    H121537   0.825   6.355   2.015  1.3933  0.7881  0.8045
 7191TIP3    H221538   0.843   6.397   2.159 -2.2265  0.5898  1.4212
 7192TIP3   OH221539   3.947   2.826   4.953 -0.8503 -0.6257 -0.4897
 7192TIP3    H121540   4.007   2.781   4.894  0.6837 -0.8405  1.1595
 7192TIP3    H221541   3.914   2.757   5.011 -1.5048 -0.2531 -0.4063
 7193TIP3   OH221542   5.251   4.699   1.145  0.5514  0.6978  0.0496
 7193TIP3    H121543   5.282   4.706   1.055 -0.0353 -0.4738 -0.2587
 7193TIP3    H221544   5.189   4.772   1.154 -0.7366 -0.2195 -1.0762
 7194TIP3   OH221545   4.854   5.954   0.611 -0.2217  0.8218 -0.2266
 7194TIP3    H121546   4.817   5.872   0.578  0.1887 -0.6556  2.6446
 7194TIP3    H221547   4.777   6.005   0.638 -0.4280  0.4847 -0.1610
 7195TIP3   OH221548   0.631   5.749   0.266 -0.4677 -0.1347 -0.4744
 7195TIP3    H121549   0.610   5.794   0.184  1.6848 -0.9001 -1.5035
 7195TIP3    H221550   0.716   5.709   0.251 -0.6673 -1.5308  1.6633
 7196TIP3   OH221551   4.653   0.719   1.063  0.7651  0.0127 -0.1106
 7196TIP3    H121552   4.720   0.657   1.033  0.9884 -0.0900  0.5998
 7196TIP3    H221553   4.625   0.763   0.983  1.7364  0.1092 -0.4148
 7197TIP3   OH221554   2.335   5.408   1.717 -0.2282  0.0721 -0.1895
 7197TIP3    H121555   2.324   5.313   1.719  0.2532  0.0232  0.1154
 7197TIP3    H221556   2.261   5.442   1.767 -0.3577 -0.1443 -0.2342
 7198TIP3   OH221557   3.745   1.149   2.736 -0.4187  0.0937 -0.3227
 7198TIP3    H121558   3.775   1.082   2.798 -0.1839  0.8707  0.4273
 7198TIP3    H221559   3.656   1.169   2.765  0.1341  1.3722  0.5929
 7199TIP3   OH221560   0.144   0.346   5.207  0.6482  0.0262 -0.1079
 7199TIP3    H121561   0.111   0.258   5.191 -0.3165  0.1469  1.0524
 7199TIP3    H221562   0.066   0.401   5.208  1.1821  0.7991 -0.2366
 7200TIP3   OH221563   2.267   6.326   0.164 -0.1812 -0.6361  0.6987
 7200TIP3    H121564   2.212   6.249   0.180 -0.0551 -1.0452 -0.6616
 7200TIP3    H221565   2.237   6.359   0.079 -0.9736  1.4877  1.7505
 7201TIP3   OH221566   6.941   0.919   4.211 -0.9478 -1.1414  0.1730
 7201TIP3    H121567   6.955   0.932   4.117 -0.9527  0.2783  0.3390
 7201TIP3    H221568   7.026   0.941   4.251 -1.1315 -1.0873  0.5361
 7202TIP3   OH221569   7.185   3.730   0.953 -0.1625  0.2108 -0.5246
 7202TIP3    H121570   7.196   3.820   0.984 -0.8410  0.1561 -0.1033
 7202TIP3    H221571   7.198   3.736   0.858  1.6597  0.4244 -0.2977
 7203TIP3   OH221572   6.332   4.897   1.156 -0.0837  0.2878  0.0609
 7203TIP3    H121573   6.245   4.888   1.116  0.5654 -0.8234 -1.1910
 7203TIP3    H221574   6.344   4.817   1.207 -0.9755  1.7662  2.8041
 7204TIP3   OH221575   3.162   2.635   3.560  0.2499 -0.6709 -0.1120
 7204TIP3    H121576   3.230   2.577   3.596  0.2721  0.0987  1.1785
 7204TIP3    H221577   3.207   2.685   3.492  0.4124 -1.6466 -0.7437
 7205TIP3   OH221578   4.051   6.127   0.826 -0.0460 -0.4083  0.2486
 7205TIP3    H121579   4.023   6.216   0.847 -1.3666 -0.7156 -0.1494
 7205TIP3    H221580   4.146   6.135   0.811 -0.3023  1.0968 -0.7239
 7206TIP3   OH221581   5.284   0.801   3.698 -0.2834 -0.4868 -0.2525
 7206TIP3    H121582   5.210   0.859   3.716 -1.6922 -2.8428  2.3602
 7206TIP3    H221583   5.253   0.743   3.629  0.0788  0.0733 -0.8942
 7207TIP3   OH221584   3.982   5.513   1.333  0.2366  0.0520  0.5521
 7207TIP3    H121585   3.923   5.444   1.361  1.2220 -0.9689  0.1892
 7207TIP3    H221586   4.020   5.546   1.415  1.5039 -1.4625  0.6354
 7208TIP3   OH221587   3.307   0.992   1.699  0.0901  0.3807  0.2542
 7208TIP3    H121588   3.219   1.017   1.726  0.1797  1.2354 -0.2246
 7208TIP3    H221589   3.321   0.906   1.739 -1.2093 -0.0630 -0.2100
 7209TIP3   OH221590   1.396   1.544   3.255 -0.1873 -0.1268  0.4925
 7209TIP3    H121591   1.348   1.500   3.185 -0.6520  2.0914 -0.6806
 7209TIP3    H221592   1.468   1.484   3.276  0.6655 -0.3992 -2.7306
 7210TIP3   OH221593   0.338   0.034   2.693  0.6834  0.3456 -0.4264
 7210TIP3    H121594   0.364  -0.041   2.745 -0.4906 -0.3144 -0.7536
 7210TIP3    H221595   0.416   0.090   2.690  1.2832 -0.4078  0.5914
 7211TIP3   OH221596   0.948   2.361   3.319  0.0058  0.2553  0.3591
 7211TIP3    H121597   0.854   2.345   3.325 -0.1514  1.5698  2.1406
 7211TIP3    H221598   0.988   2.293   3.372 -0.0341  0.4761  0.6727
 7212TIP3   OH221599   7.090   2.464   2.490 -0.1320  0.4229  0.2776
 7212TIP3    H121600   7.083   2.430   2.401  0.5754  0.3199  0.2613
 7212TIP3    H221601   7.168   2.519   2.490 -0.6489  1.1774  0.5961
 7213TIP3   OH221602   4.020   2.636   1.848 -0.0395 -0.0828 -0.2752
 7213TIP3    H121603   4.044   2.569   1.784  0.0067 -1.6395  1.3172
 7213TIP3    H221604   4.090   2.633   1.913 -0.4592  0.9609  0.2479
 7214TIP3   OH221605   0.062   6.276   0.205 -0.2429  0.2416 -0.1817
 7214TIP3    H121606   0.112   6.351   0.237  0.3182 -0.9566  1.9137
 7214TIP3    H221607   0.127   6.207   0.195 -0.6651  0.1032 -2.5644
 7215TIP3   OH221608   6.684   1.493   2.817 -0.0548 -0.4228 -0.1018
 7215TIP3    H121609   6.732   1.422   2.776 -0.7334 -0.1721 -1.3721
 7215TIP3    H221610   6.749   1.562   2.830  0.1702 -0.5063 -0.7751
 7216TIP3   OH221611   1.950   4.296   3.117  0.4216  0.0806 -0.2102
 7216TIP3    H121612   1.988   4.304   3.029  0.0416  0.5728 -0.3310
 7216TIP3    H221613   2.021   4.321   3.175  0.4605  0.4501 -0.4118
 7217TIP3   OH221614   6.773   0.689   1.278  0.1724  0.7707 -0.3617
 7217TIP3    H121615   6.730   0.647   1.352  0.4661  0.9652 -0.0755
 7217TIP3    H221616   6.750   0.782   1.286  0.1070  0.7750 -0.5826
 7218TIP3   OH221617   1.197   5.009   4.207 -0.7524 -0.5855  0.0969
 7218TIP3    H121618   1.188   4.937   4.145  0.1483  0.8854 -1.8580
 7218TIP3    H221619   1.192   5.088   4.153  3.5924  0.7617  1.2373
 7219TIP3   OH221620   2.370   3.360   4.582  1.0077  0.2188 -0.4674
 7219TIP3    H121621   2.422   3.291   4.540 -0.4269  0.0810 -2.1317
 7219TIP3    H221622   2.331   3.408   4.509  0.2270  1.4182  0.7045
 7220TIP3   OH221623   7.082   4.307   5.111  0.4128  0.2510  0.3148
 7220TIP3    H121624   7.083   4.402   5.126  1.9023  0.2181  0.5210
 7220TIP3    H221625   7.133   4.295   5.031  0.2520 -0.3860  0.3054
 7221TIP3   OH221626   4.587   0.359   4.025 -0.2022 -0.0180  0.5967
 7221TIP3    H121627   4.556   0.375   4.114 -1.9516  2.3262 -0.3275
 7221TIP3    H221628   4.677   0.391   4.024 -1.0021  2.4523  0.9497
 7222TIP3   OH221629   5.653   6.659   3.148 -0.4901 -0.2021 -0.5291
 7222TIP3    H121630   5.741   6.697   3.142 -1.1562  1.6736  0.7518
 7222TIP3    H221631   5.595   6.731   3.123 -1.7346 -0.8873  0.3492
 7223TIP3   OH221632   0.533   1.921   5.770 -0.0976 -0.1748 -0.5828
 7223TIP3    H121633   0.502   1.883   5.687 -2.2368  1.3880 -0.5788
 7223TIP3    H221634   0.508   2.013   5.765 -0.5053 -0.0831  1.8967
 7224TIP3   OH221635   2.539   2.393   0.955 -0.8736 -0.1485 -0.4043
 7224TIP3    H121636   2.477   2.336   0.908 -2.5163  2.3446 -1.5107
 7224TIP3    H221637   2.487   2.432   1.025  0.2292 -0.0929  0.3980
 7225TIP3   OH221638   0.203   1.505   4.332 -0.3194 -0.1629  0.1621
 7225TIP3    H121639   0.144   1.432   4.315  0.7184 -0.6293 -1.8794
 7225TIP3    H221640   0.151   1.567   4.382 -2.4544 -0.6583 -1.3034
 7226TIP3   OH221641   5.099   6.782   0.754  0.5005 -0.0781  0.2478
 7226TIP3    H121642   5.172   6.723   0.741  3.1079  2.1107  3.2209
 7226TIP3    H221643   5.028   6.726   0.786  2.0452 -1.8835  0.6974
 7227TIP3   OH221644   5.717   1.861   4.902 -0.0346 -0.0787  0.2155
 7227TIP3    H121645   5.651   1.798   4.873 -0.2998  0.4046 -0.2483
 7227TIP3    H221646   5.673   1.945   4.900  0.4394  0.1804  0.4306
 7228TIP3   OH221647   3.161   2.456   3.949  0.1944 -0.0953 -0.9331
 7228TIP3    H121648   3.197   2.540   3.922 -0.8484  1.3777  1.7693
 7228TIP3    H221649   3.072   2.456   3.914 -0.4218  0.8427  0.4872
 7229TIP3   OH221650   1.617   5.830   4.001 -0.3483 -0.2983  0.5959
 7229TIP3    H121651   1.712   5.819   3.998 -0.0879  1.6441  0.2232
 7229TIP3    H221652   1.582   5.744   3.978  1.3243 -0.6684 -0.7998
 7230TIP3   OH221653   2.501   3.452   4.786  0.2886 -0.1417  0.4935
 7230TIP3    H121654   2.444   3.408   4.723  0.7783  0.8564 -0.6906
 7230TIP3    H221655   2.550   3.382   4.829  0.8440 -0.7849 -1.1385
 7231TIP3   OH221656   2.310   4.443   5.163  0.5611  0.2185  0.4919
 7231TIP3    H121657   2.299   4.491   5.244  1.4875  0.9640  0.1911
 7231TIP3    H221658   2.304   4.509   5.094  1.7233 -0.1010  0.0636
 7232TIP3   OH221659   0.831   1.538   2.826 -0.3175  0.4734  0.1313
 7232TIP3    H121660   0.906   1.585   2.790  1.3573 -1.8220  0.3821
 7232TIP3    H221661   0.755   1.585   2.792  1.1846  0.9237 -2.9917
 7233TIP3   OH221662   0.067   3.245   3.847 -0.4599 -0.1722 -0.3420
 7233TIP3    H121663   0.106   3.246   3.760  2.3473  1.8537  0.7928
 7233TIP3    H221664   0.092   3.161   3.884 -0.3087 -0.3872 -0.9218
 7234TIP3   OH221665   2.984   1.047   3.539 -0.2094  0.6003 -0.0701
 7234TIP3    H121666   2.923   1.073   3.608 -0.5271 -0.5542  0.1026
 7234TIP3    H221667   3.025   0.967   3.572  0.2700  0.5172 -0.8476
 7235TIP3   OH221668   6.919   3.979   0.395  0.2402  0.2811 -0.5556
 7235TIP3    H121669   6.999   3.928   0.406  0.0713  0.0820 -0.2375
 7235TIP3    H221670   6.903   4.018   0.481 -0.0917  0.1877 -0.5724
 7236TIP3   OH221671   2.969   4.890   5.670  0.3563  0.1012  0.0767
 7236TIP3    H121672   2.995   4.952   5.602 -2.6278  0.9146 -0.4834
 7236TIP3    H221673   2.920   4.822   5.622 -0.8774  0.1243  1.2549
 7237TIP3   OH221674   4.009   2.418   3.860  0.6705 -0.2099 -0.2883
 7237TIP3    H121675   4.005   2.324   3.844 -0.1961 -0.0623 -1.0626
 7237TIP3    H221676   4.034   2.456   3.775  1.4937  0.2304  0.1394
 7238TIP3   OH221677   6.610   3.777   1.374 -0.2218 -0.0601  0.1383
 7238TIP3    H121678   6.569   3.815   1.451  0.2479  1.0352 -0.1310
 7238TIP3    H221679   6.673   3.842   1.345  0.1115 -0.7503 -0.7663
 7239TIP3   OH221680   0.156   0.843   0.223  0.1001  0.1994  0.1708
 7239TIP3    H121681   0.098   0.786   0.274 -0.6785  1.1024  0.3023
 7239TIP3    H221682   0.098   0.889   0.163  0.4617  2.1434  1.2482
 7240TIP3   OH221683   1.473   1.613   2.871 -0.2702  0.4873  0.1049
 7240TIP3    H121684   1.491   1.561   2.792  1.8295  0.3806  0.5903
 7240TIP3    H221685   1.410   1.560   2.920 -0.5727 -0.0901 -0.8637
 7241TIP3   OH221686   6.160   1.594   3.125 -0.1867  0.1204  0.5601
 7241TIP3    H121687   6.113   1.597   3.208 -0.7801  3.1030  0.2045
 7241TIP3    H221688   6.237   1.649   3.138  0.3630 -0.3617 -0.4938
 7242TIP3   OH221689   0.426   0.078   3.715 -0.0300 -0.5100  0.1345
 7242TIP3    H121690   0.472   0.152   3.754  1.7589  0.1506 -2.9044
 7242TIP3    H221691   0.421   0.013   3.784 -0.7898  2.0116  2.6272
 7243TIP3   OH221692   6.419   0.835   4.357 -0.2780 -0.2040 -0.1254
 7243TIP3    H121693   6.377   0.763   4.404 -1.0236  0.2672 -0.0586
 7243TIP3    H221694   6.509   0.805   4.343 -0.0053 -0.3271  1.6830
 7244TIP3   OH221695   0.124   4.868   0.165  0.0661  0.4569  0.6437
 7244TIP3    H121696   0.092   4.957   0.152  0.1347  0.4341  0.2928
 7244TIP3    H221697   0.197   4.877   0.226 -0.9156  0.4515  1.8539
 7245TIP3   OH221698   2.079   3.140   1.526 -0.6466  0.2351  0.2182
 7245TIP3    H121699   2.059   3.063   1.472  1.5974  0.2809 -0.7637
 7245TIP3    H221700   1.993   3.176   1.549 -1.7192 -1.7041 -0.5276
 7246TIP3   OH221701   4.688   1.808   2.737 -0.3187  0.6301  0.0285
 7246TIP3    H121702   4.694   1.847   2.825  0.4832 -0.8213  0.6535
 7246TIP3    H221703   4.658   1.718   2.753 -0.8513  0.5573 -1.2615
 7247TIP3   OH221704   2.028   1.480   1.869 -0.7670  0.0701  0.0071
 7247TIP3    H121705   2.061   1.554   1.818  0.8568 -0.0854  0.7521
 7247TIP3    H221706   1.975   1.429   1.807  0.7057  0.1583 -1.3969
 7248TIP3   OH221707   3.413   6.755   4.625  0.7059 -0.1795  0.3957
 7248TIP3    H121708   3.414   6.673   4.674 -0.0142  0.3555  1.3425
 7248TIP3    H221709   3.320   6.775   4.614  0.8473 -0.2367 -1.1393
 7249TIP3   OH221710   6.249   3.648   2.704 -0.1537  0.0617  0.3998
 7249TIP3    H121711   6.315   3.647   2.635 -0.1011  1.7022  0.4009
 7249TIP3    H221712   6.296   3.679   2.781 -1.1308  2.3866  0.1314
 7250TIP3   OH221713   3.532   3.093   1.053  0.4103 -0.2903  0.7509
 7250TIP3    H121714   3.491   3.174   1.084 -0.9284 -0.2588 -0.9459
 7250TIP3    H221715   3.496   3.080   0.965 -1.3163 -4.0268  1.8294
 7251TIP3   OH221716   6.344   5.669   0.351  0.2163  0.1826  0.2819
 7251TIP3    H121717   6.423   5.673   0.299 -0.8109  1.1599 -1.2735
 7251TIP3    H221718   6.351   5.587   0.400  1.5137 -0.4346 -0.9049
 7252TIP3   OH221719   5.533   1.267   0.509 -0.0885 -0.0931  0.1569
 7252TIP3    H121720   5.516   1.354   0.473  0.5388  0.1266  0.3858
 7252TIP3    H221721   5.512   1.207   0.438  3.0605  0.3951 -1.3488
 7253TIP3   OH221722   2.785   3.145   1.234  0.5685  0.3844  0.3672
 7253TIP3    H121723   2.869   3.190   1.239 -0.0208  1.7991 -1.2832
 7253TIP3    H221724   2.719   3.214   1.245 -0.3657 -0.3703 -0.2736
 7254TIP3   OH221725   3.779   0.267   3.522  0.2166  0.4196 -0.0214
 7254TIP3    H121726   3.867   0.236   3.503  0.2360  0.5703 -0.1765
 7254TIP3    H221727   3.753   0.316   3.444  0.2001  0.8288  0.2422
 7255TIP3   OH221728   1.611   1.360   5.461  0.1397 -0.1908  0.1002
 7255TIP3    H121729   1.589   1.303   5.387 -1.2192  0.1887  0.1758
 7255TIP3    H221730   1.601   1.449   5.426 -1.2486  0.0004  0.9138
 7256TIP3   OH221731   7.104   0.621   2.855  0.2042  0.5324 -0.6175
 7256TIP3    H121732   7.183   0.570   2.836  1.3519  1.7144  0.7510
 7256TIP3    H221733   7.065   0.636   2.769  0.8019 -1.1037 -1.2105
 7257TIP3   OH221734   5.413   4.130   4.679  0.7972 -0.7179 -0.0721
 7257TIP3    H121735   5.419   4.225   4.665 -2.2973 -0.4794 -0.4451
 7257TIP3    H221736   5.504   4.102   4.692  1.7205  2.4638  1.3445
 7258TIP3   OH221737   1.840   2.058   1.373  0.2042 -0.4035 -0.3137
 7258TIP3    H121738   1.844   2.022   1.285  0.6715 -1.3521  0.0870
 7258TIP3    H221739   1.925   2.038   1.411  0.8074  1.8498 -0.3424
 7259TIP3   OH221740   0.823   5.971   5.711  0.8566 -0.2445 -0.2308
 7259TIP3    H121741   0.754   6.006   5.768  0.6252 -0.2540 -0.5030
 7259TIP3    H221742   0.831   6.035   5.640  1.8364  0.2812  0.3223
 7260TIP3   OH221743   4.596   1.912   5.464 -0.5045  0.5230  0.1416
 7260TIP3    H121744   4.552   1.832   5.491 -0.6416 -0.3258 -2.3572
 7260TIP3    H221745   4.675   1.882   5.418  1.0354  1.9352  1.7339
 7261TIP3   OH221746   0.930   3.525   2.450 -0.7675  0.3185  0.2569
 7261TIP3    H121747   1.005   3.576   2.417 -0.0504 -0.5203  0.5716
 7261TIP3    H221748   0.928   3.545   2.543 -0.7983  0.1540  0.2897
 7262TIP3   OH221749   5.212   0.526   0.611  0.0292 -0.2745  0.1021
 7262TIP3    H121750   5.305   0.539   0.627 -0.5611  0.8843  3.2618
 7262TIP3    H221751   5.173   0.613   0.622 -1.4816 -0.7722 -0.9784
 7263TIP3   OH221752   4.955   6.664   1.109  0.2185  0.1675 -0.3698
 7263TIP3    H121753   4.937   6.755   1.086  1.5331  0.0208 -2.1966
 7263TIP3    H221754   4.907   6.612   1.044 -0.6494 -0.4821  0.7456
 7264TIP3   OH221755   4.707   1.314   0.795 -0.7771  0.1717  0.3819
 7264TIP3    H121756   4.737   1.331   0.885 -0.9706  0.3719  0.4097
 7264TIP3    H221757   4.700   1.218   0.790 -0.0699  0.1119  0.3512
 7265TIP3   OH221758   5.272   3.142   4.598  0.0681 -0.2031  0.1352
 7265TIP3    H121759   5.300   3.209   4.662  0.9619 -0.0786 -0.3681
 7265TIP3    H221760   5.255   3.192   4.518 -1.3305 -0.3216  0.3302
 7266TIP3   OH221761   7.179   1.960   2.386  0.2005 -0.5622 -0.1035
 7266TIP3    H121762   7.107   1.983   2.446 -0.2715 -0.1118 -0.8217
 7266TIP3    H221763   7.240   1.910   2.440 -0.7919 -1.2111  0.4634
 7267TIP3   OH221764   4.196   4.993   3.437 -0.3041  0.1130 -0.5663
 7267TIP3    H121765   4.268   4.932   3.420 -1.4391 -1.4873  0.0902
 7267TIP3    H221766   4.135   4.980   3.364 -0.6576  0.3157 -0.3136
 7268TIP3   OH221767   6.922   2.883   3.073 -0.1787 -0.4306  0.6652
 7268TIP3    H121768   6.852   2.911   3.132  0.0139  1.1382  0.1964
 7268TIP3    H221769   6.887   2.900   2.986  0.3868 -0.6101  0.4029
 7269TIP3   OH221770   0.103   1.402   4.650  0.3468  0.0445  0.0296
 7269TIP3    H121771   0.193   1.433   4.640  0.1380  0.6869  0.0980
 7269TIP3    H221772   0.099   1.323   4.595 -0.0427  2.0371 -3.0906
 7270TIP3   OH221773   1.570   2.263   4.481 -0.0374 -0.2427  0.2244
 7270TIP3    H121774   1.592   2.235   4.392 -0.1897 -1.5937  0.5929
 7270TIP3    H221775   1.475   2.257   4.485 -0.1676  1.3371  0.0093
 7271TIP3   OH221776   2.626   5.006   1.589  0.4496 -0.2301  0.7043
 7271TIP3    H121777   2.593   5.096   1.583 -0.7960 -0.4728  2.8569
 7271TIP3    H221778   2.607   4.969   1.502 -1.8018  0.7397  0.6872
 7272TIP3   OH221779   0.723   0.088   3.064 -0.3340 -0.1728  0.0273
 7272TIP3    H121780   0.669   0.149   3.114  0.4408 -0.1334  0.8333
 7272TIP3    H221781   0.813   0.119   3.077 -0.0496 -0.6477 -0.7224
 7273TIP3   OH221782   0.382   2.807   2.774  0.2023 -0.4367  0.2217
 7273TIP3    H121783   0.303   2.860   2.781  0.8316  0.6212 -0.3662
 7273TIP3    H221784   0.454   2.870   2.783  0.9792 -1.1249 -0.8452
 7274TIP3   OH221785   0.350   1.684   2.482 -0.2299 -0.6679 -0.0474
 7274TIP3    H121786   0.370   1.604   2.433  2.0464  0.4478 -1.0984
 7274TIP3    H221787   0.434   1.712   2.518 -0.9553  1.2473  0.2806
 7275TIP3   OH221788   2.730   0.084   2.034 -0.9085  0.0307  0.2604
 7275TIP3    H121789   2.639   0.059   2.050 -0.6314 -0.1726  1.7043
 7275TIP3    H221790   2.760   0.119   2.118  0.3922 -0.0421 -0.1498
 7276TIP3   OH221791   0.142   4.409   1.867 -0.2846 -0.1989 -0.6153
 7276TIP3    H121792   0.058   4.455   1.871 -0.1795  0.1164 -1.7313
 7276TIP3    H221793   0.138   4.358   1.787  0.0063 -1.3758  0.0964
 7277TIP3   OH221794   4.529   0.658   1.311 -0.4123 -0.0934 -0.6295
 7277TIP3    H121795   4.541   0.679   1.218  0.3178  0.7248 -0.3565
 7277TIP3    H221796   4.604   0.604   1.333 -1.4059 -1.6495 -0.8949
 7278TIP3   OH221797   1.240   0.205   0.362  0.3325  0.6345  0.1776
 7278TIP3    H121798   1.189   0.251   0.295  1.4311 -0.1958 -1.2875
 7278TIP3    H221799   1.289   0.139   0.313  1.6018  0.3611  1.7489
 7279TIP3   OH221800   5.654   2.098   3.795  0.2174 -0.2660  0.4633
 7279TIP3    H121801   5.653   2.099   3.699  1.3908  0.1207  0.4382
 7279TIP3    H221802   5.696   2.015   3.817 -0.3252 -0.4921  0.6546
 7280TIP3   OH221803   7.161   5.586   0.509  1.2525 -0.9562  0.5629
 7280TIP3    H121804   7.248   5.553   0.532  3.2547  2.7227 -0.9206
 7280TIP3    H221805   7.140   5.649   0.578 -0.1684 -1.5721  0.7353
 7281TIP3   OH221806   3.472   6.331   5.595 -0.3977 -0.0081  0.2308
 7281TIP3    H121807   3.555   6.375   5.609 -1.0657  0.4461  3.4814
 7281TIP3    H221808   3.496   6.241   5.571  0.9826  0.4653 -0.2334
 7282TIP3   OH221809   6.704   1.358   3.755 -0.8539 -0.4826  0.3273
 7282TIP3    H121810   6.777   1.356   3.818 -1.3447  2.2827  1.1166
 7282TIP3    H221811   6.634   1.404   3.801 -2.0816 -0.5033 -1.4321
 7283TIP3   OH221812   0.329   5.379   4.069 -0.3470 -0.1722  0.6201
 7283TIP3    H121813   0.396   5.416   4.127 -0.1074 -1.4966  1.2090
 7283TIP3    H221814   0.264   5.341   4.128 -0.2921 -1.1926  0.0467
 7284TIP3   OH221815   2.269   2.261   5.519 -0.2043 -0.3271 -0.2325
 7284TIP3    H121816   2.208   2.335   5.528 -0.2406 -0.2721 -0.8497
 7284TIP3    H221817   2.302   2.269   5.429  0.1579 -0.7827 -0.1393
 7285TIP3   OH221818   6.949   0.930   0.290 -0.2254 -0.4211  0.2934
 7285TIP3    H121819   7.002   0.978   0.226  1.6958 -2.0860  0.5320
 7285TIP3    H221820   6.873   0.899   0.241 -0.4018  0.9894 -0.3693
 7286TIP3   OH221821   3.080   4.499   4.201 -0.1871 -0.2766  0.0307
 7286TIP3    H121822   3.105   4.472   4.113 -0.8470  1.4054 -0.7232
 7286TIP3    H221823   3.064   4.593   4.193 -0.4770 -0.1285  1.9088
 7287TIP3   OH221824   3.709   0.893   5.088  0.1417  0.2211  0.0000
 7287TIP3    H121825   3.674   0.808   5.114  1.2219 -0.7654 -1.6506
 7287TIP3    H221826   3.634   0.952   5.092 -0.5452 -0.7004  1.5084
 7288TIP3   OH221827   5.313   4.321   0.887  0.2029  0.0652  0.4904
 7288TIP3    H121828   5.347   4.364   0.966 -1.3168 -0.8275  1.6776
 7288TIP3    H221829   5.313   4.228   0.909 -0.7493 -0.1501 -0.3664
 7289TIP3   OH221830   0.252   3.354   4.250  0.0696 -0.4355 -0.9635
 7289TIP3    H121831   0.319   3.417   4.274  0.0334 -0.7553  0.0682
 7289TIP3    H221832   0.265   3.338   4.157  0.5447  0.5299 -1.0731
 7290TIP3   OH221833   2.297   6.231   5.227  0.2051  0.1506 -0.4927
 7290TIP3    H121834   2.305   6.192   5.313 -0.8557 -2.7881 -1.6062
 7290TIP3    H221835   2.216   6.282   5.230 -0.7854 -1.3906 -0.2214
 7291TIP3   OH221836   1.119   4.086   1.401  0.0149  0.0611 -0.1592
 7291TIP3    H121837   1.069   4.004   1.402  1.2125 -0.6891  0.1761
 7291TIP3    H221838   1.055   4.153   1.377 -1.2631 -0.7771  0.8090
 7292TIP3   OH221839   4.983   3.222   0.255 -0.1114 -0.2547  0.6656
 7292TIP3    H121840   4.974   3.130   0.280 -0.6561 -0.4008 -0.0258
 7292TIP3    H221841   4.989   3.220   0.159 -1.9666  0.5463  0.4981
 7293TIP3   OH221842   2.659   4.395   5.641  0.1435 -0.1518 -0.2229
 7293TIP3    H121843   2.697   4.425   5.558  1.0455 -0.4268  0.0827
 7293TIP3    H221844   2.624   4.308   5.622  1.0516 -0.5468 -0.1302
 7294TIP3   OH221845   6.000   2.523   1.176  0.2525 -0.8546  0.5640
 7294TIP3    H121846   5.930   2.459   1.160  0.2588 -0.6805 -0.2307
 7294TIP3    H221847   6.077   2.485   1.134 -0.3249  0.8003 -2.2931
 7295TIP3   OH221848   5.967   1.077   3.121 -0.4650 -0.3814  0.0811
 7295TIP3    H121849   5.945   1.017   3.050  0.7579 -0.6635 -0.0874
 7295TIP3    H221850   6.017   1.024   3.182  0.5899  0.4354 -0.0418
 7296TIP3   OH221851   0.703   3.785   4.636  0.1722  0.2854 -0.2305
 7296TIP3    H121852   0.647   3.849   4.680 -0.0986 -0.2414  0.2003
 7296TIP3    H221853   0.790   3.823   4.641  0.0715  0.4564  0.3434
 7297TIP3   OH221854   4.325   5.287   2.684  0.4651 -0.1468 -0.3853
 7297TIP3    H121855   4.380   5.331   2.620 -1.1182  1.0539 -0.9749
 7297TIP3    H221856   4.356   5.319   2.769  2.2172 -1.3389 -0.5380
 7298TIP3   OH221857   1.316   4.195   5.252  0.3839 -0.0261  0.0067
 7298TIP3    H121858   1.363   4.141   5.316  1.0284 -0.3726 -0.7428
 7298TIP3    H221859   1.292   4.134   5.182 -0.2742  0.3538 -0.1047
 7299TIP3   OH221860   0.190   5.420   3.022  1.0558 -0.6254 -0.0551
 7299TIP3    H121861   0.232   5.349   2.972  0.6869 -1.0886  0.2782
 7299TIP3    H221862   0.170   5.487   2.956  2.0866 -0.5013 -0.2527
 7300TIP3   OH221863   3.623   5.519   4.541  0.4423 -0.3410 -0.2362
 7300TIP3    H121864   3.547   5.511   4.599 -0.5171  1.4463 -1.1909
 7300TIP3    H221865   3.696   5.535   4.601 -0.2971  0.0998  0.5787
 7301TIP3   OH221866   5.582   0.226   4.098 -0.2274  0.2387 -0.1596
 7301TIP3    H121867   5.620   0.300   4.053 -0.4206  1.3241  1.3775
 7301TIP3    H221868   5.504   0.203   4.046  0.4955  0.3191 -1.2982
 7302TIP3   OH221869   5.755   2.591   0.980 -0.8066  0.0919 -0.5869
 7302TIP3    H121870   5.835   2.632   0.948 -0.0026 -1.2574 -0.4112
 7302TIP3    H221871   5.774   2.497   0.979 -2.1810 -0.2286  0.0331
 7303TIP3   OH221872   6.571   2.198   5.266 -0.5718  0.2913 -0.0645
 7303TIP3    H121873   6.582   2.192   5.171 -0.8527 -2.2706  0.0121
 7303TIP3    H221874   6.660   2.188   5.300 -0.6484 -0.3025 -0.0290
 7304TIP3   OH221875   0.818   5.661   1.539  0.2234 -0.0990 -0.1005
 7304TIP3    H121876   0.729   5.634   1.516  0.1628 -0.4697  0.5664
 7304TIP3    H221877   0.842   5.725   1.471 -0.2152 -0.6584 -0.7884
 7305TIP3   OH221878   2.204   3.627   2.326 -0.0266  0.3881  0.0969
 7305TIP3    H121879   2.194   3.538   2.292  0.9259  0.7820 -1.2733
 7305TIP3    H221880   2.211   3.682   2.248  0.8725  1.4911  0.9276
 7306TIP3   OH221881   6.661   1.047   2.139 -0.2980 -0.3027  0.0582
 7306TIP3    H121882   6.623   1.129   2.107 -0.5665 -0.5511 -0.2660
 7306TIP3    H221883   6.587   0.988   2.146  0.1159 -1.0326 -1.3218
 7307TIP3   OH221884   0.836   5.949   4.228  0.0018  0.2073 -0.0202
 7307TIP3    H121885   0.770   5.882   4.207 -0.3605  0.8875 -1.1844
 7307TIP3    H221886   0.856   5.935   4.320  0.7724 -2.2277 -0.4714
 7308TIP3   OH221887   2.389   5.535   2.327 -0.0264  0.4362 -0.8627
 7308TIP3    H121888   2.480   5.511   2.347 -0.5695 -0.0924  1.2212
 7308TIP3    H221889   2.381   5.521   2.232  2.0900  0.6599 -1.1286
 7309TIP3   OH221890   4.715   4.597   3.553  0.1636 -0.1490  0.6084
 7309TIP3    H121891   4.650   4.595   3.623 -1.1280  0.2830 -0.5530
 7309TIP3    H221892   4.695   4.522   3.498  1.6118 -0.8959  1.0557
 7310TIP3   OH221893   0.698   0.926   2.164 -0.3660 -0.0425  0.6756
 7310TIP3    H121894   0.680   0.954   2.074 -1.9222  0.9564  1.2734
 7310TIP3    H221895   0.674   1.001   2.218 -0.2788 -0.9361  1.9945
 7311TIP3   OH221896   5.294   2.598   4.118 -0.2821 -0.0898 -0.4977
 7311TIP3    H121897   5.369   2.541   4.131 -1.5834 -1.5788  1.0522
 7311TIP3    H221898   5.282   2.643   4.202 -0.4974  0.9455 -1.0581
 7312TIP3   OH221899   2.081   0.286   5.313  0.1125  0.2020 -0.1088
 7312TIP3    H121900   2.024   0.355   5.278  1.3210  0.3543 -1.8778
 7312TIP3    H221901   2.094   0.225   5.241  2.4504  0.3551  0.0869
 7313TIP3   OH221902   2.480   1.602   5.196  0.3405 -0.0912 -0.2199
 7313TIP3    H121903   2.499   1.559   5.113 -0.5688 -2.0268  0.5230
 7313TIP3    H221904   2.389   1.631   5.188  0.5577  0.6224 -0.2391
 7314TIP3   OH221905   6.022   4.628   1.125 -0.2157 -0.2424 -0.9996
 7314TIP3    H121906   5.946   4.583   1.087  0.4620 -1.6505 -0.7321
 7314TIP3    H221907   6.012   4.615   1.219 -0.3074  0.6803 -0.8739
 7315TIP3   OH221908   0.909   0.445   5.016  0.4651  0.1205  0.0831
 7315TIP3    H121909   0.833   0.392   4.990  1.2783 -0.6482 -0.7818
 7315TIP3    H221910   0.947   0.397   5.089  1.9937 -1.2980 -1.5534
 7316TIP3   OH221911   1.663   4.076   1.238 -0.1040 -0.1826 -0.5402
 7316TIP3    H121912   1.739   4.119   1.277 -0.3147 -0.9203  0.7628
 7316TIP3    H221913   1.631   4.137   1.172  0.1227  1.2657  0.6344
 7317TIP3   OH221914   2.020   5.116   1.850 -0.0322 -0.1785  0.0345
 7317TIP3    H121915   1.969   5.082   1.776  1.5830  1.2895 -1.8865
 7317TIP3    H221916   2.050   5.202   1.820  1.9262 -0.1667  1.8057
 7318TIP3   OH221917   4.280   3.333   1.604  0.6077  0.4432 -0.1415
 7318TIP3    H121918   4.208   3.396   1.594  1.0688  0.7351 -1.7468
 7318TIP3    H221919   4.345   3.380   1.656 -0.1224  0.3416  0.9171
 7319TIP3   OH221920   2.080   6.148   0.827  0.0236  0.6854 -0.4033
 7319TIP3    H121921   2.172   6.162   0.804  1.0259  1.2756  3.4034
 7319TIP3    H221922   2.035   6.227   0.796  0.9313  0.7928 -1.5127
 7320TIP3   OH221923   0.283   2.614   1.603 -0.3538 -0.1170 -0.5506
 7320TIP3    H121924   0.202   2.650   1.567 -0.4421  0.1646 -0.0761
 7320TIP3    H221925   0.291   2.527   1.564 -1.5932 -0.7042  0.4309
 7321TIP3   OH221926   1.461   2.043   1.825  0.4863 -0.9354  0.0947
 7321TIP3    H121927   1.425   1.964   1.784  0.3919 -1.1185  0.5249
 7321TIP3    H221928   1.555   2.025   1.830  0.5582 -0.7267 -0.4405
 7322TIP3   OH221929   1.560   0.168   4.130  0.3000  0.0221  0.0367
 7322TIP3    H121930   1.589   0.163   4.221 -0.8760  0.2434  0.4382
 7322TIP3    H221931   1.478   0.119   4.127 -0.0205  0.5694 -0.7533
 7323TIP3   OH221932   3.673   3.437   3.476 -0.1425 -0.0529 -0.2867
 7323TIP3    H121933   3.628   3.382   3.412 -1.3410  0.4766  0.0728
 7323TIP3    H221934   3.692   3.378   3.549 -1.6665  0.0412  0.2136
 7324TIP3   OH221935   1.478   3.681   0.816  0.0212  0.0546 -0.5395
 7324TIP3    H121936   1.506   3.721   0.733  0.6753  0.7755  0.0189
 7324TIP3    H221937   1.413   3.615   0.790  1.0816 -0.5673 -1.7301
 7325TIP3   OH221938   3.797   6.265   3.341  0.1490 -0.2449  0.0774
 7325TIP3    H121939   3.809   6.347   3.389  1.1685  0.8454 -1.9307
 7325TIP3    H221940   3.708   6.237   3.364  0.0786  0.9522  1.4494
 7326TIP3   OH221941   7.046   4.471   0.586 -0.1136  0.3096 -0.2978
 7326TIP3    H121942   7.017   4.560   0.606 -0.6275  0.1123 -0.1556
 7326TIP3    H221943   7.137   4.481   0.558  0.7387  0.5875  2.3265
 7327TIP3   OH221944   2.755   6.589   3.156 -0.2569 -0.1892 -0.0659
 7327TIP3    H121945   2.721   6.525   3.218  0.5946 -0.1259  0.4870
 7327TIP3    H221946   2.839   6.616   3.194 -1.6857  3.1355  1.0622
 7328TIP3   OH221947   1.950   2.359   4.872 -0.5527 -0.2100 -0.4137
 7328TIP3    H121948   1.998   2.433   4.834  0.2540 -0.3693  0.2730
 7328TIP3    H221949   1.859   2.389   4.876  0.0134  1.4644  1.5246
 7329TIP3   OH221950   2.684   6.151   3.451  0.1285 -0.2209 -0.4882
 7329TIP3    H121951   2.670   6.192   3.536 -1.3769  0.1385 -0.8694
 7329TIP3    H221952   2.766   6.104   3.459  0.4817  0.5930  0.8583
 7330TIP3   OH221953   1.746   0.406   1.435 -0.6779 -0.0898 -0.0145
 7330TIP3    H121954   1.707   0.489   1.462 -0.8302  0.0282 -0.5740
 7330TIP3    H221955   1.703   0.385   1.352  0.1369 -0.1717 -0.4303
 7331TIP3   OH221956   0.191   4.085   5.265  0.1722 -0.3496  0.9844
 7331TIP3    H121957   0.099   4.067   5.285 -0.0946 -0.0763  0.0494
 7331TIP3    H221958   0.214   4.160   5.320 -0.2778 -0.1668  0.9263
 7332TIP3   OH221959   3.909   2.707   2.139  0.4359  0.3241 -0.3064
 7332TIP3    H121960   3.888   2.668   2.054 -2.1166 -3.1735  1.6549
 7332TIP3    H221961   3.981   2.654   2.173 -0.0486  0.2151  0.5916
 7333TIP3   OH221962   5.807   6.462   4.042 -0.2484  0.4153  0.0814
 7333TIP3    H121963   5.731   6.458   3.983  0.8958 -0.2252 -1.4241
 7333TIP3    H221964   5.812   6.375   4.081 -0.5203  0.5895  0.5155
 7334TIP3   OH221965   4.906   6.205   1.553  0.2783  0.1507 -0.1009
 7334TIP3    H121966   4.878   6.257   1.478 -3.4693 -1.0294  0.2926
 7334TIP3    H221967   4.875   6.253   1.629 -0.0160 -0.8816  0.4476
 7335TIP3   OH221968   0.292   5.341   2.467  0.1962  0.2703  0.3643
 7335TIP3    H121969   0.301   5.292   2.385 -0.0330 -1.9094  1.5587
 7335TIP3    H221970   0.329   5.427   2.448 -1.1471  0.3179 -2.4119
 7336TIP3   OH221971   1.757   2.646   2.427  0.3316 -0.8867  0.1834
 7336TIP3    H121972   1.732   2.737   2.413 -1.0784 -1.3779 -0.6879
 7336TIP3    H221973   1.810   2.648   2.506  1.3419  0.8440 -0.4768
 7337TIP3   OH221974   7.036   1.684   4.755  0.2382 -0.7820 -0.3452
 7337TIP3    H121975   7.063   1.631   4.830 -3.3076 -0.3472  1.4136
 7337TIP3    H221976   7.085   1.766   4.765  2.3849 -1.9495 -0.5698
 7338TIP3   OH221977   4.997   2.978   4.878  0.1161  0.3337 -0.0064
 7338TIP3    H121978   5.013   3.041   4.949 -1.4024  0.9251 -0.1443
 7338TIP3    H221979   4.910   2.942   4.898 -0.5267  0.8181 -1.7844
 7339TIP3   OH221980   4.645   0.746   2.249  0.0075 -0.2931 -0.2185
 7339TIP3    H121981   4.579   0.796   2.296 -0.5469 -0.9921 -0.2355
 7339TIP3    H221982   4.597   0.672   2.212  0.8129 -0.8480 -0.1790
 7340TIP3   OH221983   6.019   2.517   4.980 -0.0885  0.3802  0.3275
 7340TIP3    H121984   6.111   2.520   4.951  0.0118  2.0019  0.7082
 7340TIP3    H221985   5.971   2.562   4.911 -0.2697  1.5064  1.1603
 7341TIP3   OH221986   4.846   4.676   0.487  0.2521 -0.2670  0.0686
 7341TIP3    H121987   4.935   4.644   0.470  0.6148  0.0719  1.1821
 7341TIP3    H221988   4.810   4.615   0.551 -1.0091 -1.4373 -1.6902
 7342TIP3   OH221989   3.897   0.548   4.409  0.0407  0.9557 -0.3627
 7342TIP3    H121990   3.898   0.600   4.330 -1.0090 -1.3645 -2.0285
 7342TIP3    H221991   3.822   0.490   4.399  1.9685 -1.9513  0.5554
 7343TIP3   OH221992   3.534   2.078   5.533  0.8065 -0.2679  0.2633
 7343TIP3    H121993   3.575   2.159   5.502  1.3932 -0.3991  0.6815
 7343TIP3    H221994   3.513   2.096   5.624  1.8083 -0.9118  0.6283
 7344TIP3   OH221995   6.099   4.855   4.315 -0.0078 -1.0021 -0.1292
 7344TIP3    H121996   6.016   4.825   4.353  0.0856 -1.1646 -0.0528
 7344TIP3    H221997   6.146   4.775   4.294 -0.4368 -0.9383 -1.4380
 7345TIP3   OH221998   2.848   2.823   1.754  0.2163  0.1474  0.1518
 7345TIP3    H121999   2.890   2.886   1.696 -1.2138 -0.6869 -1.9042
 7345TIP3    H222000   2.757   2.853   1.759 -0.2975 -1.2822 -0.2281
 7346TIP3   OH222001   0.117   3.175   0.640  0.0112  0.8661 -0.9589
 7346TIP3    H122002   0.201   3.131   0.653  0.1517  1.0850 -1.1124
 7346TIP3    H222003   0.127   3.258   0.687 -1.2660 -0.4202  1.8178
 7347TIP3   OH222004   2.917   0.217   5.087  0.4923  0.1486  0.3175
 7347TIP3    H122005   2.964   0.190   5.008 -1.4330 -0.1761 -0.7788
 7347TIP3    H222006   2.913   0.313   5.081 -0.6631  0.0649 -0.6424
 7348TIP3   OH222007   1.538   4.460   3.232  0.4450 -0.5649  0.3457
 7348TIP3    H122008   1.480   4.445   3.306  0.3269 -0.2658  0.3170
 7348TIP3    H222009   1.543   4.375   3.188  1.0126 -0.9055  1.0432
 7349TIP3   OH222010   0.564   3.808   5.311 -0.2292  0.2108 -0.5705
 7349TIP3    H122011   0.522   3.748   5.250 -0.9760 -0.2458  0.3523
 7349TIP3    H222012   0.617   3.866   5.257 -0.4761 -0.4986 -1.5887
 7350TIP3   OH222013   5.308   0.538   3.540 -0.0627 -0.1896  0.3932
 7350TIP3    H122014   5.400   0.516   3.554  0.0959 -1.3725 -2.0010
 7350TIP3    H222015   5.307   0.582   3.454 -1.3858  2.6347  1.7190
 7351TIP3   OH222016   4.358   2.691   4.903  0.0147 -0.0258 -0.3988
 7351TIP3    H122017   4.374   2.599   4.923  0.0234 -0.1548 -0.9837
 7351TIP3    H222018   4.264   2.704   4.917  0.4381  0.5998  2.5183
 7352TIP3   OH222019   0.483   6.789   3.449 -0.0917  0.3294  0.0895
 7352TIP3    H122020   0.437   6.830   3.375 -0.6613  1.0508  0.8232
 7352TIP3    H222021   0.511   6.704   3.416  0.6839  1.0879 -1.3372
 7353TIP3   OH222022   5.176   0.843   1.426  0.1817  0.4810 -0.5640
 7353TIP3    H122023   5.187   0.903   1.500  0.0572  0.6408 -0.6753
 7353TIP3    H222024   5.261   0.843   1.382 -0.3830  2.1038 -1.7204
 7354TIP3   OH222025   4.774   1.990   4.259 -0.5873 -0.0152  0.1056
 7354TIP3    H122026   4.818   2.068   4.223  1.0634 -1.1967 -0.5706
 7354TIP3    H222027   4.777   2.003   4.354  1.9349 -0.3264  0.1504
 7355TIP3   OH222028   2.218   0.283   1.249 -0.0087  0.6039  0.4375
 7355TIP3    H122029   2.149   0.316   1.307 -0.8810  1.5645 -1.0855
 7355TIP3    H222030   2.199   0.322   1.164  1.6735 -0.1632 -0.3414
 7356TIP3   OH222031   5.953   2.034   0.554 -0.1304 -0.0556  0.2363
 7356TIP3    H122032   6.037   2.079   0.548 -0.1982 -0.0469 -0.8032
 7356TIP3    H222033   5.893   2.088   0.502 -0.1256 -1.5243 -1.3772
 7357TIP3   OH222034   2.516   1.792   3.645  0.2289  0.3085  0.0528
 7357TIP3    H122035   2.493   1.849   3.719  1.0854 -2.6287  2.7902
 7357TIP3    H222036   2.585   1.736   3.679 -0.9697 -2.8130 -2.2261
 7358TIP3   OH222037   5.687   5.020   0.878 -0.0275 -0.1551 -0.8219
 7358TIP3    H122038   5.780   5.018   0.855  0.4185  2.9830  0.1790
 7358TIP3    H222039   5.687   5.028   0.974 -1.2347  1.2860 -0.9109
 7359TIP3   OH222040   0.154   4.119   2.279 -0.0751  0.1195 -0.4185
 7359TIP3    H122041   0.189   4.170   2.206 -0.2207 -0.1302 -0.6652
 7359TIP3    H222042   0.207   4.040   2.282 -0.9361 -0.5131 -1.1374
 7360TIP3   OH222043   1.186   3.450   4.502  0.6459  0.4989  0.5288
 7360TIP3    H122044   1.129   3.374   4.489  0.7320  0.7736 -1.9410
 7360TIP3    H222045   1.127   3.519   4.534  0.1116  0.0292  0.5759
 7361TIP3   OH222046   1.587   6.809   5.397  0.1799  0.4283  0.1481
 7361TIP3    H122047   1.544   6.797   5.482 -1.2445 -0.4778 -0.6679
 7361TIP3    H222048   1.547   6.744   5.340  1.1070  1.0211 -1.2364
 7362TIP3   OH222049   3.947   6.650   1.792 -0.0770 -0.0647 -0.1059
 7362TIP3    H122050   4.026   6.628   1.842  0.3327  1.6621  0.0744
 7362TIP3    H222051   3.919   6.567   1.754 -0.0982 -1.3717  2.5307
 7363TIP3   OH222052   4.244   2.009   0.566  0.1229  0.1439  0.0473
 7363TIP3    H122053   4.308   1.939   0.579  0.0506  0.2490  0.9811
 7363TIP3    H222054   4.287   2.068   0.504  0.6223 -0.1763  0.0800
 7364TIP3   OH222055   7.207   3.308   2.824 -0.0336 -0.3344  0.0802
 7364TIP3    H122056   7.174   3.387   2.782 -0.2576 -0.5434 -0.1460
 7364TIP3    H222057   7.130   3.251   2.831 -0.1682 -0.0061  1.4992
 7365TIP3   OH222058   6.528   5.949   0.203 -0.2734 -0.0767 -0.1571
 7365TIP3    H122059   6.575   5.868   0.188  2.3044  1.1548  0.7175
 7365TIP3    H222060   6.515   5.953   0.298 -0.3822  0.5302 -0.1904
 7366TIP3   OH222061   6.366   2.249   1.840 -0.4551  0.3434 -0.5904
 7366TIP3    H122062   6.347   2.158   1.863  1.5479  0.5238  2.3615
 7366TIP3    H222063   6.446   2.245   1.788  0.3971  0.4005  0.6546
 7367TIP3   OH222064   5.340   4.860   0.692  0.1442  0.2062  0.0855
 7367TIP3    H122065   5.379   4.844   0.778 -0.4175 -0.6152  0.1915
 7367TIP3    H222066   5.413   4.851   0.630  0.2457 -0.7875  0.3309
 7368TIP3   OH222067   0.687   0.110   0.107  0.0502  0.5783 -0.0908
 7368TIP3    H122068   0.727   0.181   0.156  1.2614 -0.7432  0.9209
 7368TIP3    H222069   0.695   0.137   0.015  1.7493  1.1435  0.1820
 7369TIP3   OH222070   2.804   4.117   0.999  0.0869 -0.6307 -0.1404
 7369TIP3    H122071   2.753   4.038   0.983 -0.6109 -0.3440  0.5870
 7369TIP3    H222072   2.749   4.188   0.967 -0.3114 -0.2581  1.2920
 7370TIP3   OH222073   0.189   0.674   2.537 -0.2222  0.5624  0.4684
 7370TIP3    H122074   0.189   0.707   2.626  1.0214  0.1116  0.6692
 7370TIP3    H222075   0.274   0.629   2.529  1.1199  3.2058 -1.8855
 7371TIP3   OH222076   6.563   4.431   4.260 -0.3928 -0.4106 -0.0729
 7371TIP3    H122077   6.534   4.420   4.351 -1.1398  0.2130 -0.2282
 7371TIP3    H222078   6.488   4.403   4.207  0.1848 -1.1660 -0.5115
 7372TIP3   OH222079   4.970   5.243   3.835  0.6363  0.2898 -0.2491
 7372TIP3    H122080   4.882   5.269   3.809  0.6439  0.1229 -0.4474
 7372TIP3    H222081   4.963   5.225   3.928 -0.0760 -1.9074 -0.6727
 7373TIP3   OH222082   1.295   0.206   4.266  0.1708 -0.1209 -0.0839
 7373TIP3    H122083   1.216   0.235   4.312  0.5168 -0.1491  0.5416
 7373TIP3    H222084   1.263   0.151   4.196 -0.3885  0.1684 -0.0635
 7374TIP3   OH222085   1.822   4.389   0.811 -0.5792  0.0326 -0.8364
 7374TIP3    H122086   1.848   4.463   0.867  0.2911 -0.8796  0.0041
 7374TIP3    H222087   1.888   4.388   0.742 -0.7370  0.1939 -0.9895
 7375TIP3   OH222088   3.862   6.768   2.391 -0.0623  0.4475  0.2951
 7375TIP3    H122089   3.785   6.712   2.384  0.6785 -0.4481 -1.1093
 7375TIP3    H222090   3.921   6.721   2.449  0.1235  0.2889 -0.0205
 7376TIP3   OH222091   1.776   3.313   5.011 -0.4617 -0.2714 -0.2455
 7376TIP3    H122092   1.715   3.301   5.084 -1.4429  0.2767 -0.9484
 7376TIP3    H222093   1.734   3.268   4.937 -1.5294  2.5687 -1.5153
 7377TIP3   OH222094   3.641   1.882   0.931 -0.8140 -0.1202  0.1654
 7377TIP3    H122095   3.640   1.978   0.934  1.4647  0.0258 -1.0637
 7377TIP3    H222096   3.591   1.860   0.853 -1.6026  0.0432  0.6196
 7378TIP3   OH222097   2.172   0.065   3.033 -0.3135 -0.0405  0.0455
 7378TIP3    H122098   2.223  -0.013   3.053 -1.0916 -0.4866  0.3188
 7378TIP3    H222099   2.215   0.103   2.956  1.0931  0.2229  0.9334
 7379TIP3   OH222100   4.901   6.457   3.717 -0.0181  0.5759 -0.1855
 7379TIP3    H122101   4.851   6.460   3.635  0.2915  0.1126 -0.3922
 7379TIP3    H222102   4.992   6.453   3.689  0.1054  0.7282  0.1868
 7380TIP3   OH222103   7.146   2.701   4.588 -0.7279 -0.1159  0.0552
 7380TIP3    H122104   7.147   2.607   4.571 -1.6384  0.1130 -1.5071
 7380TIP3    H222105   7.092   2.711   4.666  0.1006 -0.9402  0.7540
 7381TIP3   OH222106   4.735   1.513   1.318  0.7676  0.4069  0.5949
 7381TIP3    H122107   4.649   1.491   1.353  0.6942  0.9605  0.7803
 7381TIP3    H222108   4.739   1.609   1.322  0.4471  0.5733 -1.6537
 7382TIP3   OH222109   3.066   3.219   1.247 -0.2469 -0.2330 -0.1198
 7382TIP3    H122110   3.092   3.138   1.291 -0.3995 -0.2226 -0.0114
 7382TIP3    H222111   3.108   3.213   1.161  0.0622 -0.2453  0.0312
 7383TIP3   OH222112   5.513   0.826   0.125  0.0002 -0.3058 -0.0786
 7383TIP3    H122113   5.554   0.837   0.040 -0.0141 -0.1485 -0.0659
 7383TIP3    H222114   5.452   0.754   0.114 -2.7092  1.9601 -1.2380
 7384TIP3   OH222115   5.473   2.970   5.033 -0.6909 -1.4208  0.7130
 7384TIP3    H122116   5.495   3.001   5.121  0.0450 -0.0219  0.0627
 7384TIP3    H222117   5.388   2.929   5.043 -0.6606 -1.2145  2.0656
 7385TIP3   OH222118   2.886   0.797   2.294  0.0864  0.1636  0.3315
 7385TIP3    H122119   2.827   0.870   2.313 -0.1412 -0.0237  0.3453
 7385TIP3    H222120   2.844   0.721   2.333 -1.1613 -0.5402 -2.1858
 7386TIP3   OH222121   1.488   5.179   3.068  0.4959  0.0353  0.1475
 7386TIP3    H122122   1.448   5.115   3.126 -1.2101  1.7944  1.0396
 7386TIP3    H222123   1.519   5.128   2.993 -1.0502 -1.7709  0.6612
 7387TIP3   OH222124   2.744   5.419   0.615  0.2355 -0.5660  0.1265
 7387TIP3    H122125   2.675   5.467   0.661  1.4200  0.6832  0.6871
 7387TIP3    H222126   2.714   5.415   0.524 -1.6464 -2.1305  0.7651
 7388TIP3   OH222127   3.873   0.765   4.913  0.6178  0.1810 -0.0805
 7388TIP3    H122128   3.790   0.782   4.958  1.2717  1.8261  0.5800
 7388TIP3    H222129   3.880   0.669   4.911 -1.9083 -0.0487 -1.3532
 7389TIP3   OH222130   2.128   6.363   2.946 -0.1068 -0.4217  0.2326
 7389TIP3    H122131   2.153   6.390   2.858 -0.8111  0.6252  0.3427
 7389TIP3    H222132   2.211   6.342   2.989  0.2645 -0.6276 -0.5716
 7390TIP3   OH222133   4.940   3.131   4.598  0.5048 -0.2670 -0.4099
 7390TIP3    H122134   4.957   3.224   4.615  1.8302 -0.5518 -0.0415
 7390TIP3    H222135   4.945   3.090   4.685  1.4503 -0.8947 -0.7481
 7391TIP3   OH222136   5.639   3.869   1.353 -0.3545 -0.3001 -0.2240
 7391TIP3    H122137   5.588   3.883   1.273  1.2073  2.5682 -0.8676
 7391TIP3    H222138   5.589   3.914   1.421 -1.3487 -2.1849  0.3691
 7392TIP3   OH222139   2.409   2.863   1.077 -0.0648 -0.3712  0.2593
 7392TIP3    H122140   2.453   2.941   1.043 -1.4498  1.0375  1.5322
 7392TIP3    H222141   2.438   2.792   1.019  0.5386  1.2297 -1.5119
 7393TIP3   OH222142   2.798   3.923   0.380  0.6211 -0.2233  0.0765
 7393TIP3    H122143   2.888   3.941   0.351  0.1843  0.1992 -1.0878
 7393TIP3    H222144   2.763   3.864   0.313 -0.6781  1.4019 -0.7533
 7394TIP3   OH222145   3.621   3.829   4.009 -0.3548  0.1757  0.3278
 7394TIP3    H122146   3.716   3.832   4.007 -0.3892  1.1656 -1.2406
 7394TIP3    H222147   3.600   3.737   4.030  0.8883  0.2887  2.3694
 7395TIP3   OH222148   6.109   3.877   2.615  0.0031  0.4871  0.4616
 7395TIP3    H122149   6.154   3.794   2.629 -0.7761 -0.0170  0.0477
 7395TIP3    H222150   6.135   3.931   2.689  0.4978 -0.1332  0.7517
 7396TIP3   OH222151   1.307   2.398   2.772  0.5036  0.2773 -0.1925
 7396TIP3    H122152   1.385   2.428   2.726  0.6032  0.9318  0.3761
 7396TIP3    H222153   1.235   2.446   2.731  0.3964 -0.3222 -0.7134
 7397TIP3   OH222154   3.404   4.480   0.560 -0.2532 -0.1220 -0.2704
 7397TIP3    H122155   3.357   4.402   0.532  0.7562 -1.6318  1.8664
 7397TIP3    H222156   3.346   4.521   0.625  1.4055 -2.4150  2.9587
 7398TIP3   OH222157   0.060   5.815   2.896  0.2493  0.2773  0.3656
 7398TIP3    H122158   0.081   5.807   2.989  0.5987 -0.4453  0.2257
 7398TIP3    H222159   0.064   5.910   2.880  1.9574  0.2996  0.6846
 7399TIP3   OH222160   4.340   3.232   5.698  0.2316 -0.5943  0.2591
 7399TIP3    H122161   4.317   3.252   5.607  2.5352 -0.3866 -0.3489
 7399TIP3    H222162   4.260   3.196   5.736 -0.6394 -1.2438 -2.0120
 7400TIP3   OH222163   4.048   3.910   3.219 -0.1356  0.2284  0.0554
 7400TIP3    H122164   4.143   3.906   3.205  0.0069  0.2990  0.9629
 7400TIP3    H222165   4.011   3.854   3.150  0.5544  0.3058 -0.3842
 7401TIP3   OH222166   3.948   2.948   3.832  0.0622 -1.2176 -0.2548
 7401TIP3    H122167   4.030   2.908   3.802  0.7201  0.2706 -0.5183
 7401TIP3    H222168   3.927   3.012   3.764 -0.5590 -0.5901  0.5191
 7402TIP3   OH222169   3.105   5.336   4.673  0.0671 -0.1553  0.0320
 7402TIP3    H122170   3.056   5.406   4.631 -1.1237 -1.0812 -0.1821
 7402TIP3    H222171   3.076   5.256   4.627  1.3274 -0.7929  0.3158
 7403TIP3   OH222172   2.819   0.659   0.867  0.7283 -0.0456  0.1227
 7403TIP3    H122173   2.789   0.714   0.794 -0.0591  1.8216  1.7683
 7403TIP3    H222174   2.915   0.656   0.858  0.6173 -0.1948 -1.1828
 7404TIP3   OH222175   6.585   6.769   0.083 -0.4121 -0.2016 -0.2289
 7404TIP3    H122176   6.530   6.693   0.101  1.6177 -1.3520  1.6302
 7404TIP3    H222177   6.654   6.735   0.025  0.3130  0.2950  0.3222
 7405TIP3   OH222178   1.001   5.822   3.582 -0.6734  0.5959  0.5400
 7405TIP3    H122179   1.024   5.849   3.671  2.5836 -0.0190  0.0161
 7405TIP3    H222180   1.064   5.752   3.561 -1.7430  0.2893 -2.0365
 7406TIP3   OH222181   5.171   5.424   5.415 -0.5191  0.0518 -0.1215
 7406TIP3    H122182   5.248   5.431   5.360 -1.4179  1.8511 -1.2448
 7406TIP3    H222183   5.116   5.358   5.373 -0.7853  0.7472 -0.8905
 7407TIP3   OH222184   5.818   4.108   4.020  0.2305 -0.1090 -0.3933
 7407TIP3    H122185   5.897   4.055   4.010 -0.5366 -1.3744 -0.0796
 7407TIP3    H222186   5.746   4.044   4.018 -0.7067  0.8687  0.5527
 7408TIP3   OH222187   0.654   1.253   0.885 -0.0987 -0.4260 -0.3615
 7408TIP3    H122188   0.708   1.332   0.871 -0.2364 -0.2302  0.1823
 7408TIP3    H222189   0.648   1.213   0.798  2.4651 -1.4534 -0.1723
 7409TIP3   OH222190   2.106   4.762   0.164  0.7207  0.3193  0.0674
 7409TIP3    H122191   2.128   4.817   0.088  0.7110 -0.4697 -0.5256
 7409TIP3    H222192   2.081   4.824   0.232 -0.2418  1.0250 -0.8832
 7410TIP3   OH222193   5.282   2.643   4.722 -0.0193 -0.1982  0.2624
 7410TIP3    H122194   5.243   2.724   4.687 -0.1497 -0.6689 -0.7066
 7410TIP3    H222195   5.339   2.612   4.652 -0.7677 -1.5021  0.2149
 7411TIP3   OH222196   5.873   4.718   4.411 -0.1393 -0.3342  0.7176
 7411TIP3    H122197   5.886   4.738   4.504 -3.8268 -1.6240  1.6752
 7411TIP3    H222198   5.910   4.631   4.400  1.2898  0.2608  0.6547
 7412TIP3   OH222199   0.049   4.719   3.972  0.0615  0.0049 -0.5003
 7412TIP3    H122200   0.117   4.663   4.009  0.3159 -0.0686 -1.0626
 7412TIP3    H222201   0.010   4.666   3.902  1.0727  0.9231 -1.8198
 7413TIP3   OH222202   4.445   1.748   0.627 -0.5692  0.0109 -0.0237
 7413TIP3    H122203   4.512   1.733   0.695 -2.7839 -1.6834  1.9618
 7413TIP3    H222204   4.452   1.671   0.570  0.1340  0.5858 -0.7387
 7414TIP3   OH222205   5.325   1.382   2.357  0.1747 -0.1722  0.4221
 7414TIP3    H122206   5.260   1.443   2.321 -0.8602 -2.0313 -1.0828
 7414TIP3    H222207   5.406   1.401   2.310 -0.0299  0.3110  0.2684
 7415TIP3   OH222208   6.584   5.195   5.784 -0.4630  0.0874 -0.3472
 7415TIP3    H122209   6.542   5.161   5.863 -0.1768 -0.3569 -0.3822
 7415TIP3    H222210   6.607   5.285   5.807 -0.2571 -0.0812  0.1270
 7416TIP3   OH222211   2.383   5.738   1.752  0.0415 -0.5101  0.0379
 7416TIP3    H122212   2.300   5.696   1.776  0.8143 -2.6535 -0.8456
 7416TIP3    H222213   2.369   5.767   1.662  0.0721 -0.3691  0.0790
 7417TIP3   OH222214   2.429   6.671   1.875  0.8512 -0.0472 -0.0908
 7417TIP3    H122215   2.380   6.689   1.795 -0.5633  1.4654  1.0443
 7417TIP3    H222216   2.368   6.622   1.930  1.5746 -0.4987  0.3241
 7418TIP3   OH222217   6.197   3.252   1.819  0.3067 -0.2008 -0.8266
 7418TIP3    H122218   6.161   3.190   1.755 -1.5446 -0.3247  0.2736
 7418TIP3    H222219   6.218   3.198   1.895  0.6017  0.2256 -0.6016
 7419TIP3   OH222220   4.361   5.932   3.531  0.1464 -0.3161  0.2145
 7419TIP3    H122221   4.352   5.840   3.507  1.6442 -0.2002 -0.9356
 7419TIP3    H222222   4.299   5.944   3.603  0.3359 -2.3703  0.7899
 7420TIP3   OH222223   4.929   0.051   1.201  0.5187 -0.6621 -0.7540
 7420TIP3    H122224   4.978  -0.031   1.203  0.6841 -0.5692  1.1983
 7420TIP3    H222225   4.838   0.024   1.207  0.5512 -0.7075 -0.4739
 7421TIP3   OH222226   3.570   5.697   3.969  0.3754 -0.7774  0.0688
 7421TIP3    H122227   3.638   5.641   3.933 -0.0061 -1.7117  0.7578
 7421TIP3    H222228   3.617   5.769   4.011  1.0842 -2.4678  2.3501
 7422TIP3   OH222229   1.268   3.124   5.541  0.1923  0.1518 -0.0600
 7422TIP3    H122230   1.192   3.079   5.578 -0.3149  0.5915 -0.5455
 7422TIP3    H222231   1.323   3.054   5.508 -0.6564 -0.1280 -0.9380
 7423TIP3   OH222232   5.110   1.044   3.852  0.4217  0.1641  0.0091
 7423TIP3    H122233   5.030   1.094   3.868  0.4529 -0.2875  1.7235
 7423TIP3    H222234   5.149   1.086   3.776 -0.8237  1.1533 -0.1265
 7424TIP3   OH222235   2.669   6.470   2.892 -0.2720 -0.0084 -0.5913
 7424TIP3    H122236   2.726   6.497   2.965 -1.1743 -1.0592  0.5368
 7424TIP3    H222237   2.591   6.524   2.902 -1.2273 -1.5066  0.4530
 7425TIP3   OH222238   1.668   2.714   3.300 -0.3042 -0.1864 -0.2170
 7425TIP3    H122239   1.582   2.732   3.338 -0.9327 -1.4476 -0.9778
 7425TIP3    H222240   1.681   2.784   3.236 -1.1953 -0.4883 -0.7537
 7426TIP3   OH222241   0.370   2.542   0.058  0.5966 -0.7668 -0.2989
 7426TIP3    H122242   0.318   2.488   0.117 -1.5255  1.3498 -0.0780
 7426TIP3    H222243   0.331   2.527  -0.029 -1.5993  1.9607  0.0768
 7427TIP3   OH222244   6.307   1.369  -0.006 -0.1088 -0.3615 -0.0460
 7427TIP3    H122245   6.244   1.420  -0.058 -1.3897 -0.5338  1.2597
 7427TIP3    H222246   6.328   1.426   0.068  0.7224 -0.6030 -0.0921
 7428TIP3   OH222247   0.542   4.172   4.989 -0.5227 -0.1798 -0.0225
 7428TIP3    H122248   0.447   4.186   4.985 -0.5062  0.3682  1.0173
 7428TIP3    H222249   0.576   4.255   5.022  0.1451 -0.9072  1.1961
 7429TIP3   OH222250   4.775   0.193   3.635  0.3854  0.3893 -0.3224
 7429TIP3    H122251   4.869   0.200   3.649  0.6785  0.6591 -2.1114
 7429TIP3    H222252   4.749   0.113   3.681  1.7159 -0.3217 -0.7543
 7430TIP3   OH222253   4.671   0.773   5.387 -0.0159  0.3748 -0.5552
 7430TIP3    H122254   4.681   0.705   5.454 -0.2342  1.6753  0.8302
 7430TIP3    H222255   4.576   0.790   5.385 -0.1454 -0.3733 -1.9567
 7431TIP3   OH222256   0.442   4.351   5.662  0.0646  0.1725 -0.0217
 7431TIP3    H122257   0.428   4.346   5.757 -0.0732  1.0924  0.0140
 7431TIP3    H222258   0.519   4.407   5.652 -1.0657  1.7265 -0.4960
 7432TIP3   OH222259   5.792   0.851   2.947 -0.3582  0.2375  0.4839
 7432TIP3    H122260   5.715   0.873   2.894 -1.2429 -2.2728  0.5942
 7432TIP3    H222261   5.856   0.817   2.884 -0.3788 -0.1859  0.6834
 7433TIP3   OH222262   5.819   2.648   2.795 -0.2591 -0.3201 -0.0952
 7433TIP3    H122263   5.873   2.585   2.842 -0.2357  0.1942  0.5769
 7433TIP3    H222264   5.805   2.720   2.857  0.1236  0.5645 -1.0027
 7434TIP3   OH222265   4.956   3.546   0.211  0.3150 -0.2369  0.2781
 7434TIP3    H122266   5.041   3.539   0.253 -0.5081 -1.3100  1.8789
 7434TIP3    H222267   4.975   3.554   0.118  2.1286 -1.8274  0.4593
 7435TIP3   OH222268   4.190   1.590   3.929  0.5169 -0.6534 -0.0422
 7435TIP3    H122269   4.201   1.672   3.978  0.4839 -0.2768 -0.6616
 7435TIP3    H222270   4.247   1.599   3.853  1.0456 -1.5012  0.2424
 7436TIP3   OH222271   2.604   2.727   3.103  0.3117  0.2887  0.1859
 7436TIP3    H122272   2.627   2.719   3.195  1.8582  0.4482 -0.1538
 7436TIP3    H222273   2.620   2.640   3.067 -0.9292  0.0431  0.1744
 7437TIP3   OH222274   1.581   5.813   3.701  0.0831 -0.0472 -0.6123
 7437TIP3    H122275   1.671   5.820   3.732 -0.6251 -0.2861  1.6552
 7437TIP3    H222276   1.544   5.900   3.712 -0.3558 -0.2789 -0.2208
 7438TIP3   OH222277   6.547   6.368   3.133  0.0002 -0.1361  0.0808
 7438TIP3    H122278   6.525   6.452   3.173  1.3736 -0.0030  0.6298
 7438TIP3    H222279   6.642   6.372   3.121  0.0117 -1.4092 -0.3620
 7439TIP3   OH222280   4.876   2.783   5.176 -0.0436  0.1171 -0.3287
 7439TIP3    H122281   4.837   2.819   5.096  2.4762 -0.1167 -1.7896
 7439TIP3    H222282   4.825   2.704   5.194 -1.6816  1.0456 -0.7460
 7440TIP3   OH222283   1.850   2.776   2.718  0.2647 -0.3819  0.0943
 7440TIP3    H122284   1.903   2.698   2.731  0.6816 -0.1230 -0.0452
 7440TIP3    H222285   1.760   2.747   2.734  0.6407 -0.2516  3.0299
 7441TIP3   OH222286   6.462   1.682   5.709 -0.3943 -0.0160  0.4834
 7441TIP3    H122287   6.494   1.594   5.691 -0.1058  0.1911 -0.0495
 7441TIP3    H222288   6.474   1.693   5.803  1.1975  0.0769  0.2999
 7442TIP3   OH222289   5.811   5.454   1.311  0.2126 -0.1352 -0.4196
 7442TIP3    H122290   5.808   5.514   1.385 -1.8308 -1.0002  0.2604
 7442TIP3    H222291   5.807   5.510   1.234 -0.3288  0.6584  0.1755
 7443TIP3   OH222292   0.529   5.960   0.119 -0.0345 -0.1980  0.6740
 7443TIP3    H122293   0.507   5.967   0.026  1.0209 -2.4388  0.1899
 7443TIP3    H222294   0.470   6.022   0.162  0.6850  2.2770 -1.6267
 7444TIP3   OH222295   5.649   4.676   1.352 -0.1060 -0.1999 -0.0316
 7444TIP3    H122296   5.695   4.675   1.435 -0.3027  1.1808  0.1187
 7444TIP3    H222297   5.607   4.762   1.349  0.8955  0.2807 -2.0981
 7445TIP3   OH222298   2.648   5.633   3.785  0.3459 -0.7151  0.5934
 7445TIP3    H122299   2.658   5.690   3.709 -0.4701  1.0539  1.7380
 7445TIP3    H222300   2.659   5.691   3.860 -0.0301 -2.1755  1.8283
 7446TIP3   OH222301   0.252   0.280   2.525  0.5072 -0.2603 -0.9184
 7446TIP3    H122302   0.312   0.319   2.589 -0.4731 -0.2235  0.0007
 7446TIP3    H222303   0.249   0.187   2.549  1.8866 -0.7200 -2.3449
 7447TIP3   OH222304   1.125   0.111   1.371  0.2188 -0.0869 -0.2983
 7447TIP3    H122305   1.037   0.124   1.336 -0.9344 -0.8041  2.1555
 7447TIP3    H222306   1.112   0.073   1.457  2.9810 -0.9191 -0.1387
 7448TIP3   OH222307   0.457   0.370   4.791  0.0531  0.1485 -0.3471
 7448TIP3    H122308   0.512   0.448   4.786 -0.8266  0.7803 -0.3285
 7448TIP3    H222309   0.415   0.375   4.877  0.5879 -0.7630 -0.0180
 7449TIP3   OH222310   0.589   0.206   4.636 -1.0211 -0.7000 -0.0850
 7449TIP3    H122311   0.676   0.233   4.667 -1.1879  0.4795 -0.5957
 7449TIP3    H222312   0.529   0.264   4.682 -1.7227 -2.6222  1.5879
 7450TIP3   OH222313   5.936   5.623   1.701  0.0351 -0.1503  0.3291
 7450TIP3    H122314   5.937   5.534   1.737  1.0198 -0.7950 -1.2331
 7450TIP3    H222315   6.021   5.660   1.724 -0.5286  0.5766  1.3444
 7451TIP3   OH222316   2.706   4.973   5.282  0.3830 -0.2238  0.1132
 7451TIP3    H122317   2.746   5.054   5.251  0.4155 -0.5146 -0.6381
 7451TIP3    H222318   2.770   4.905   5.260 -0.0736 -0.5677 -0.1862
 7452TIP3   OH222319   2.542   6.297   1.452  0.0400  0.6063  0.2491
 7452TIP3    H122320   2.618   6.257   1.409 -0.2447  0.6345 -0.2854
 7452TIP3    H222321   2.517   6.370   1.395  0.0292  1.0239  0.7777
 7453TIP3   OH222322   4.366   3.152   4.339 -0.2212  0.1864 -0.7518
 7453TIP3    H122323   4.366   3.071   4.389  1.7811  1.1098  0.8854
 7453TIP3    H222324   4.389   3.126   4.250  1.8840 -0.9419  0.0647
 7454TIP3   OH222325   4.589   1.188   3.331  0.3960  0.0375 -0.0186
 7454TIP3    H122326   4.620   1.098   3.342  0.4342  0.0156 -0.2873
 7454TIP3    H222327   4.638   1.239   3.396 -0.0227 -0.2236  0.5056
 7455TIP3   OH222328   2.936   2.641   4.180  0.0927 -0.3735  0.2416
 7455TIP3    H122329   2.958   2.732   4.159  1.3077 -0.5966  0.4309
 7455TIP3    H222330   2.853   2.625   4.135  0.6842  0.3409 -1.1629
 7456TIP3   OH222331   7.036   4.471   2.619 -0.3444  0.1221  0.2073
 7456TIP3    H122332   7.058   4.406   2.552  0.1884  1.5581 -1.0778
 7456TIP3    H222333   6.941   4.481   2.612 -0.2850  0.3121 -0.4068
 7457TIP3   OH222334   1.830   4.558   3.723 -0.0574 -0.1268 -0.4581
 7457TIP3    H122335   1.775   4.518   3.791 -0.5605  0.3574 -0.5814
 7457TIP3    H222336   1.840   4.649   3.751  1.1702 -0.3345 -0.1264
 7458TIP3   OH222337   1.152   5.616   2.376  0.0296 -0.0425 -0.2198
 7458TIP3    H122338   1.180   5.667   2.299 -0.8338 -1.2532 -1.3814
 7458TIP3    H222339   1.084   5.671   2.416 -0.0347  0.2834 -0.7553
 7459TIP3   OH222340   3.819   6.081   1.353  0.0705 -0.3089  0.3886
 7459TIP3    H122341   3.795   6.151   1.414 -2.6060 -0.1138 -0.7480
 7459TIP3    H222342   3.844   6.127   1.273  0.5639 -0.6192  0.3648
 7460TIP3   OH222343   1.816   6.414   1.055  0.8409 -0.4359 -0.4375
 7460TIP3    H122344   1.897   6.410   1.106  0.5063  0.2676  0.1636
 7460TIP3    H222345   1.841   6.452   0.971  0.8678  1.3667  0.3431
 7461TIP3   OH222346   3.202   2.901   0.887  0.2001 -0.1393  0.5468
 7461TIP3    H122347   3.120   2.852   0.893  0.5074 -0.6774  0.4606
 7461TIP3    H222348   3.253   2.872   0.963 -0.1051  0.9882  1.1989
 7462TIP3   OH222349   1.128   0.798   0.666  0.0788  0.0471 -0.3366
 7462TIP3    H122350   1.217   0.833   0.664  0.4574 -0.8798  0.0920
 7462TIP3    H222351   1.115   0.770   0.757 -0.5479 -0.0879 -0.4627
 7463TIP3   OH222352   2.128   3.133   4.197  0.2182  0.1260 -0.6393
 7463TIP3    H122353   2.104   3.123   4.289  1.5916 -0.6286 -0.3296
 7463TIP3    H222354   2.163   3.222   4.192 -1.5485  0.8399 -0.8657
 7464TIP3   OH222355   6.899   1.915   3.554 -0.4487  0.6960 -0.4856
 7464TIP3    H122356   6.873   1.934   3.464  1.8228 -2.2915 -1.9393
 7464TIP3    H222357   6.900   1.820   3.560  2.8069  0.6940  1.5839
 7465TIP3   OH222358   4.626   1.510   4.102 -0.2416  0.0042 -0.0631
 7465TIP3    H122359   4.550   1.524   4.158 -1.6240  0.3009 -1.9175
 7465TIP3    H222360   4.628   1.415   4.088 -1.5272  0.1667 -1.6031
 7466TIP3   OH222361   3.158   3.590   2.578  0.2203  0.1260  0.6848
 7466TIP3    H122362   3.150   3.658   2.511  2.6782 -1.1865 -1.0909
 7466TIP3    H222363   3.239   3.611   2.624  1.8271 -2.2903 -0.8576
 7467TIP3   OH222364   3.157   3.488   0.463 -0.0840  0.0769  0.3880
 7467TIP3    H122365   3.229   3.461   0.519 -0.9457 -2.4002  0.4114
 7467TIP3    H222366   3.141   3.579   0.488  2.8038  0.6399  0.5377
 7468TIP3   OH222367   6.193   5.211   3.715 -0.2540  0.3328 -0.1990
 7468TIP3    H122368   6.154   5.124   3.705 -2.8834  1.1703  1.8983
 7468TIP3    H222369   6.206   5.221   3.809  0.9910  1.8526 -0.4902
 7469TIP3   OH222370   1.539   3.952   3.590  0.3766  0.6534  0.3736
 7469TIP3    H122371   1.557   4.023   3.529 -0.2141  0.4679 -0.0196
 7469TIP3    H222372   1.481   3.892   3.542  0.2186  0.3107  0.9772
 7470TIP3   OH222373   3.738   3.260   2.410  0.2768  0.8061 -0.0057
 7470TIP3    H122374   3.771   3.294   2.327  0.7522  0.0198 -0.1513
 7470TIP3    H222375   3.725   3.337   2.465 -1.3446  1.4805 -1.2528
 7471TIP3   OH222376   3.343   4.038   5.881  0.3011  0.5797 -0.6552
 7471TIP3    H122377   3.324   4.037   5.787 -0.1952 -1.7920 -0.6149
 7471TIP3    H222378   3.425   3.990   5.889 -1.1566 -2.0161  0.2481
 7472TIP3   OH222379   4.910   5.850   4.447  0.1241  0.5968 -0.7282
 7472TIP3    H122380   4.975   5.785   4.423 -1.7458 -0.9211 -2.0004
 7472TIP3    H222381   4.907   5.910   4.372  1.2977  1.7705  0.1160
 7473TIP3   OH222382   0.286   2.719   3.247  0.0313  0.5069 -0.1378
 7473TIP3    H122383   0.344   2.664   3.299 -0.4277 -1.0933 -1.2355
 7473TIP3    H222384   0.328   2.722   3.161  0.5308  2.6888  0.1292
 7474TIP3   OH222385   1.751   6.051   5.763  0.1107  0.5998 -0.3453
 7474TIP3    H122386   1.751   6.126   5.821 -1.0176  0.9287 -0.7368
 7474TIP3    H222387   1.721   6.085   5.679  0.6292 -0.0838 -0.8292
 7475TIP3   OH222388   3.213   6.756   3.714 -0.1405  0.1244  0.2524
 7475TIP3    H122389   3.152   6.750   3.788  0.7248 -1.1243  0.8965
 7475TIP3    H222390   3.300   6.755   3.755  0.3900 -1.8069 -0.8031
 7476TIP3   OH222391   5.309   2.551   3.476 -0.6759  0.1261  0.0509
 7476TIP3    H122392   5.289   2.458   3.479 -1.1400  0.2472  1.8541
 7476TIP3    H222393   5.319   2.571   3.383 -1.5083 -1.5167 -0.4183
 7477TIP3   OH222394   1.501   1.303   5.718 -0.2179 -0.4550 -0.1311
 7477TIP3    H122395   1.521   1.328   5.628  0.2002  1.9467  0.5514
 7477TIP3    H222396   1.527   1.211   5.724 -0.7046 -0.8180 -2.5570
 7478TIP3   OH222397   5.713   6.400   4.344 -0.0538  0.6131 -0.6392
 7478TIP3    H122398   5.671   6.480   4.313  1.0616  1.4006 -0.1918
 7478TIP3    H222399   5.661   6.374   4.420 -1.4671 -0.0917 -1.8001
 7479TIP3   OH222400   1.353   3.173   0.362  0.1683 -0.0214  0.4297
 7479TIP3    H122401   1.394   3.220   0.434 -0.2264 -1.9188  1.9997
 7479TIP3    H222402   1.411   3.098   0.346 -0.4779 -0.3984 -0.2384
 7480TIP3   OH222403   0.728   5.951   3.141 -0.2438  0.2359 -0.4594
 7480TIP3    H122404   0.775   5.935   3.223 -2.2119  0.7975  0.8418
 7480TIP3    H222405   0.782   5.909   3.074  0.4621 -1.9920  1.3733
 7481TIP3   OH222406   5.245   1.873   0.777 -0.4350  0.5985 -0.0978
 7481TIP3    H122407   5.180   1.931   0.739 -0.0538  1.4931  0.5892
 7481TIP3    H222408   5.278   1.920   0.854  0.6405 -0.0604 -0.1334
 7482TIP3   OH222409   2.973   5.016   4.872  0.0774  0.3610  0.1017
 7482TIP3    H122410   2.968   5.023   4.777  0.5826 -0.7957 -0.0181
 7482TIP3    H222411   2.885   5.041   4.903  0.5197  2.9641 -0.4901
 7483TIP3   OH222412   2.596   0.247   0.433  0.3064 -0.3585 -0.2017
 7483TIP3    H122413   2.611   0.163   0.389 -0.1941 -0.6541  0.1818
 7483TIP3    H222414   2.612   0.312   0.365 -1.9136 -0.8380 -1.2822
 7484TIP3   OH222415   7.001   1.827   1.484  0.2231  0.6318  1.0211
 7484TIP3    H122416   6.919   1.792   1.518 -0.0578  1.9527  1.7680
 7484TIP3    H222417   6.991   1.922   1.490  1.2184  0.8514 -0.3127
 7485TIP3   OH222418   0.485   2.333   2.340  0.2513  0.7870 -0.7551
 7485TIP3    H122419   0.579   2.354   2.338  0.5932 -0.3689  0.7025
 7485TIP3    H222420   0.482   2.246   2.380 -1.3449 -0.0165 -2.4905
 7486TIP3   OH222421   2.551   4.918   0.324 -0.3600 -0.2457  0.0019
 7486TIP3    H122422   2.638   4.895   0.291  0.1933  1.6138  0.0100
 7486TIP3    H222423   2.542   5.012   0.303 -1.5814  0.0551  1.6851
 7487TIP3   OH222424   0.933   5.714   4.612 -0.1779  0.2368  0.1115
 7487TIP3    H122425   0.899   5.625   4.606 -2.3668  0.9109  1.4221
 7487TIP3    H222426   0.987   5.714   4.691 -2.0425  0.5724  1.4459
 7488TIP3   OH222427   2.643   3.448   5.269  0.1003  0.2206  0.2876
 7488TIP3    H122428   2.589   3.468   5.192 -0.5621  0.3575  0.7743
 7488TIP3    H222429   2.617   3.514   5.334  0.2620 -0.2180  0.8077
 7489TIP3   OH222430   2.719   2.729   2.130 -0.2214  0.0328  0.2552
 7489TIP3    H122431   2.649   2.789   2.105  0.0385  0.2892  0.1330
 7489TIP3    H222432   2.693   2.644   2.093 -0.4892  0.1149  0.2548
 7490TIP3   OH222433   6.933   2.006   4.622 -0.1270 -0.2607 -0.1449
 7490TIP3    H122434   6.843   2.024   4.593 -0.6098 -0.7426  0.9719
 7490TIP3    H222435   6.946   1.913   4.602  0.3324 -0.0540 -0.8172
 7491TIP3   OH222436   3.784   6.683   1.217  0.4074  0.1067  0.1143
 7491TIP3    H122437   3.867   6.716   1.250  0.5284  0.2211 -0.2992
 7491TIP3    H222438   3.803   6.593   1.189 -0.0966 -0.6266  1.9503
 7492TIP3   OH222439   4.100   3.582   1.222 -0.1599 -0.3290  0.0001
 7492TIP3    H122440   4.174   3.522   1.236 -0.3387 -0.2458  1.4236
 7492TIP3    H222441   4.046   3.538   1.156  1.2998 -0.2436 -1.3030
 7493TIP3   OH222442   3.186   6.642   1.541 -0.0449  0.0391 -0.3688
 7493TIP3    H122443   3.132   6.642   1.620 -0.6061 -1.6492 -0.7109
 7493TIP3    H222444   3.136   6.694   1.478  0.4493  1.4768  0.3631
 7494TIP3   OH222445   2.941   5.143   0.130  0.5265 -0.1727  0.0610
 7494TIP3    H122446   2.952   5.226   0.084 -1.3561 -0.8846 -1.8983
 7494TIP3    H222447   2.992   5.080   0.079 -0.3974 -0.7059 -0.2522
 7495TIP3   OH222448   0.338   5.650   5.049  0.5221  0.8265 -0.6942
 7495TIP3    H122449   0.254   5.663   5.005 -0.9851  0.0664  1.7746
 7495TIP3    H222450   0.353   5.730   5.099  0.0360  0.0593  0.7288
 7496TIP3   OH222451   1.240   0.300   3.782  0.0380  0.3826  0.7260
 7496TIP3    H122452   1.278   0.283   3.695  0.7399  1.1434  0.8662
 7496TIP3    H222453   1.314   0.327   3.835 -0.6272  1.4822  1.1346
 7497TIP3   OH222454   2.119   2.317   1.877  0.0663  0.2498 -0.0137
 7497TIP3    H122455   2.048   2.305   1.940  0.5863  0.2455  0.5731
 7497TIP3    H222456   2.169   2.392   1.911 -0.5893  1.3107 -1.2903
 7498TIP3   OH222457   1.228   3.027   2.440  0.1225 -0.3026  0.4791
 7498TIP3    H122458   1.283   2.952   2.417 -1.4384 -1.8007  1.3551
 7498TIP3    H222459   1.213   3.018   2.534 -0.9657  0.5066  0.4130
 7499TIP3   OH222460   4.073   3.334   3.653  0.0812 -0.2040  0.2580
 7499TIP3    H122461   4.137   3.401   3.680  0.1244 -1.2523  3.1702
 7499TIP3    H222462   4.112   3.252   3.681 -1.2545 -1.1755 -0.6352
 7500TIP3   OH222463   1.988   4.411   1.086  0.0595  0.0997  0.6193
 7500TIP3    H122464   2.070   4.457   1.106 -0.1731  1.2853 -0.9222
 7500TIP3    H222465   1.924   4.482   1.074 -1.2234 -0.8007  1.7915
 7501TIP3   OH222466   3.037   1.651   2.489 -0.4554 -0.0230 -0.0602
 7501TIP3    H122467   3.019   1.694   2.573  0.3799 -0.7410  0.5069
 7501TIP3    H222468   2.968   1.586   2.480 -1.0245  0.6089 -0.3382
 7502TIP3   OH222469   0.728   6.112   1.829 -0.0917 -0.0965  0.1138
 7502TIP3    H122470   0.691   6.030   1.796 -1.3127  0.1880  0.7201
 7502TIP3    H222471   0.737   6.097   1.923  0.0277  0.3405  0.1719
 7503TIP3   OH222472   6.148   3.125   4.162  0.2350 -0.5961 -0.2075
 7503TIP3    H122473   6.177   3.117   4.071 -0.8154  1.9569 -0.8639
 7503TIP3    H222474   6.209   3.187   4.201  2.3158 -3.6349  1.7150
 7504TIP3   OH222475   2.493   4.475   3.784 -0.5357  0.0883  0.3869
 7504TIP3    H122476   2.583   4.481   3.751 -0.4221 -0.3485  0.6129
 7504TIP3    H222477   2.472   4.565   3.810 -0.7890  0.5454 -1.2566
 7505TIP3   OH222478   0.776   6.158   0.222  0.3759 -0.0057  0.1117
 7505TIP3    H122479   0.771   6.254   0.220  1.5188  0.0629 -0.9615
 7505TIP3    H222480   0.685   6.129   0.225  0.0195  1.1160  1.9626
 7506TIP3   OH222481   3.453   2.715   2.257 -0.3350 -0.0737 -1.0360
 7506TIP3    H122482   3.527   2.775   2.259 -0.5909  0.2391  0.7869
 7506TIP3    H222483   3.377   2.771   2.272 -0.4632 -0.8922  2.1442
 7507TIP3   OH222484   4.591   2.322   0.268 -0.1924 -0.2086 -0.0858
 7507TIP3    H122485   4.644   2.292   0.195  1.1729  2.0320 -0.0908
 7507TIP3    H222486   4.506   2.342   0.229  0.4208  0.6543 -1.0240
 7508TIP3   OH222487   3.448   3.105   4.062 -0.0793  0.4885 -0.9157
 7508TIP3    H122488   3.509   3.098   3.989  0.3093 -0.2741 -0.5339
 7508TIP3    H222489   3.464   3.026   4.114 -3.0224 -0.9795 -2.0436
 7509TIP3   OH222490   3.142   5.811   4.001  0.2008 -0.0444 -0.5265
 7509TIP3    H122491   3.165   5.894   3.958  0.5727  1.0024  1.5853
 7509TIP3    H222492   3.174   5.821   4.090 -0.4501 -2.1916 -0.0088
 7510TIP3   OH222493   4.176   2.734   1.184 -0.2526  0.8863 -0.0810
 7510TIP3    H122494   4.111   2.792   1.223 -0.8753  0.5513 -0.6105
 7510TIP3    H222495   4.258   2.782   1.191 -0.6057  1.4482  0.2991
 7511TIP3   OH222496   1.969   4.316   5.512  0.2855 -0.0253 -0.0757
 7511TIP3    H122497   1.983   4.374   5.437  1.3571  1.1738  0.9965
 7511TIP3    H222498   1.994   4.230   5.480 -0.6644  0.1971 -1.5089
 7512TIP3   OH222499   3.915   5.186   0.639 -0.0811 -0.6600 -0.8763
 7512TIP3    H122500   3.860   5.247   0.689 -0.5542 -1.7154 -0.0601
 7512TIP3    H222501   3.995   5.178   0.690  0.0112 -0.6631 -1.0213
 7513TIP3   OH222502   4.201   1.743   0.367 -0.0390 -0.4551  0.1933
 7513TIP3    H122503   4.214   1.651   0.388 -1.1563 -0.3584  1.4142
 7513TIP3    H222504   4.123   1.769   0.416  0.3183  1.1782 -0.0238
 7514TIP3   OH222505   4.431   4.999   4.714 -0.1463 -1.0075  0.2666
 7514TIP3    H122506   4.354   5.025   4.664 -0.2604 -1.0057  0.4422
 7514TIP3    H222507   4.449   4.909   4.687  1.4745 -0.1096 -1.8884
 7515TIP3   OH222508   3.069   3.627   4.973 -0.4105  0.2530 -0.4126
 7515TIP3    H122509   3.049   3.548   4.922  0.7806  0.3806 -1.1147
 7515TIP3    H222510   2.997   3.633   5.037 -0.6314 -1.2792 -0.4740
 7516TIP3   OH222511   5.270   0.729   3.315  0.0266 -0.4821 -0.6630
 7516TIP3    H122512   5.276   0.678   3.234 -0.3118  0.0952 -1.0567
 7516TIP3    H222513   5.239   0.815   3.287 -1.1398 -0.5945  0.2077
 7517TIP3   OH222514   6.887   0.574   3.703  0.1271 -0.0173 -0.2084
 7517TIP3    H122515   6.953   0.625   3.655 -0.7159 -0.4401 -1.8711
 7517TIP3    H222516   6.851   0.514   3.638  0.1415 -1.8355  1.3733
 7518TIP3   OH222517   6.139   4.731   3.967 -0.6462 -0.0018  0.2298
 7518TIP3    H122518   6.122   4.672   3.893  1.0051  0.8916 -0.9448
 7518TIP3    H222519   6.153   4.673   4.042 -1.1361 -0.9927 -0.4226
 7519TIP3   OH222520   2.355   2.770   0.294  0.4459  0.1480  0.0189
 7519TIP3    H122521   2.394   2.801   0.376  0.8328  0.1285 -0.1542
 7519TIP3    H222522   2.428   2.769   0.232  0.4143 -0.9828 -0.0185
 7520TIP3   OH222523   5.348   0.139   0.914 -0.2286 -0.0667 -0.7036
 7520TIP3    H122524   5.343   0.124   0.819 -0.4375  2.6414 -1.2077
 7520TIP3    H222525   5.347   0.235   0.923 -5.3968 -0.0201  2.2508
 7521TIP3   OH222526   2.768   1.771   0.390  0.0395  0.0812 -0.2179
 7521TIP3    H122527   2.690   1.716   0.395  0.0997 -0.0974 -1.0187
 7521TIP3    H222528   2.821   1.730   0.321  2.7183 -2.1816  2.8981
 7522TIP3   OH222529   3.947   3.349   0.043  0.6834  0.0247 -0.6510
 7522TIP3    H122530   3.952   3.272  -0.013 -0.5655  1.4919 -2.9086
 7522TIP3    H222531   4.021   3.404   0.016  1.7577 -0.4300  1.1566
 7523TIP3   OH222532   5.607   2.232   4.130  0.2765 -0.0234 -0.2061
 7523TIP3    H122533   5.638   2.147   4.162  0.8753  0.0520 -0.5722
 7523TIP3    H222534   5.518   2.215   4.099 -0.3673 -0.0768  1.5635
 7524TIP3   OH222535   5.457   2.947   1.937  0.0584 -0.8855  0.1365
 7524TIP3    H122536   5.402   3.022   1.962 -2.4297 -2.0620 -1.4356
 7524TIP3    H222537   5.479   2.905   2.020  0.8512  1.1037  0.9955
 7525TIP3   OH222538   2.083   6.632   1.375  0.3568  0.1400  0.0003
 7525TIP3    H122539   2.000   6.664   1.339 -0.3387 -2.0047 -0.4504
 7525TIP3    H222540   2.061   6.600   1.463  0.2978 -1.8661 -0.6859
 7526TIP3   OH222541   7.075   4.825   1.514 -0.1319  0.2265 -0.0076
 7526TIP3    H122542   7.003   4.865   1.563 -0.1946 -0.2398  0.2894
 7526TIP3    H222543   7.154   4.857   1.558 -0.1073  1.7248 -1.0975
 7527TIP3   OH222544   2.152   3.906   5.019 -0.1174  0.0620  0.1350
 7527TIP3    H122545   2.179   3.849   5.091 -0.5914  1.6040  1.6291
 7527TIP3    H222546   2.132   3.847   4.947 -0.6839 -1.6580  1.6233
 7528TIP3   OH222547   4.216   3.560   2.805 -0.0894 -0.1800  0.5811
 7528TIP3    H122548   4.179   3.484   2.849 -0.3734  0.0225  0.7016
 7528TIP3    H222549   4.276   3.524   2.740 -2.5927 -0.6615 -1.6048
 7529TIP3   OH222550   2.167   1.701   1.714 -0.0115  0.4455 -0.2367
 7529TIP3    H122551   2.124   1.786   1.701  1.6045  1.4525  0.6240
 7529TIP3    H222552   2.259   1.723   1.731  1.0834 -1.6172 -2.7136
 7530TIP3   OH222553   1.175   5.489   4.705  0.0966  0.6955  0.1084
 7530TIP3    H122554   1.087   5.468   4.673  0.0043 -0.5835  1.1276
 7530TIP3    H222555   1.165   5.495   4.800  0.5582  3.4327  0.0662
 7531TIP3   OH222556   2.174   0.254   3.671  0.2264  0.2393  0.5543
 7531TIP3    H122557   2.087   0.294   3.665  0.2363  0.0849 -1.1758
 7531TIP3    H222558   2.230   0.323   3.707 -0.0408  1.3714 -1.0744
 7532TIP3   OH222559   6.391   0.583   3.477  0.3837 -0.1891 -0.2606
 7532TIP3    H122560   6.484   0.596   3.460  0.7451 -0.7713  1.1076
 7532TIP3    H222561   6.384   0.490   3.498 -0.4652 -0.0886 -0.0863
 7533TIP3   OH222562   0.313   4.085   1.188 -0.0835 -0.0882 -0.4912
 7533TIP3    H122563   0.315   3.992   1.210  0.6650  0.1422  0.5216
 7533TIP3    H222564   0.224   4.113   1.210  0.6656  0.1940  2.8269
 7534TIP3   OH222565   3.841   2.634   4.348  0.3631  0.0595 -0.6384
 7534TIP3    H122566   3.747   2.617   4.342  0.1535  1.0324 -0.2195
 7534TIP3    H222567   3.873   2.619   4.259  0.0006 -1.2756 -0.5766
 7535TIP3   OH222568   2.127   6.209   4.158 -0.4594 -0.4829 -0.6025
 7535TIP3    H122569   2.206   6.156   4.146 -0.3977 -0.6344  0.3341
 7535TIP3    H222570   2.109   6.246   4.072 -0.0870 -1.4507 -1.1121
 7536TIP3   OH222571   5.810   1.768   5.702 -0.4648 -0.1601 -0.0225
 7536TIP3    H122572   5.835   1.774   5.795 -2.3586 -0.3430  0.5311
 7536TIP3    H222573   5.881   1.813   5.656  0.2915  0.3427  1.5506
 7537TIP3   OH222574   1.813   6.184   1.747  0.4026  0.5512 -0.0948
 7537TIP3    H122575   1.732   6.230   1.770 -0.1752 -1.0988  1.4123
 7537TIP3    H222576   1.784   6.102   1.707  1.2859 -0.2410  0.8256
 7538TIP3   OH222577   5.222   3.521   1.889 -0.5534  0.1249 -0.2226
 7538TIP3    H122578   5.282   3.496   1.819  0.5896  2.3979 -0.1669
 7538TIP3    H222579   5.274   3.513   1.969  0.2877  3.4269 -0.2923
 7539TIP3   OH222580   0.375   0.063   5.124 -0.0601 -0.8917 -0.0579
 7539TIP3    H122581   0.390   0.157   5.128 -0.5446 -0.8409  1.5312
 7539TIP3    H222582   0.307   0.052   5.058 -0.9530  0.0423  0.6605
 7540TIP3   OH222583   4.101   1.831   5.346  0.0610  0.4128  0.4090
 7540TIP3    H122584   4.022   1.803   5.298 -0.0374  1.5250 -0.1001
 7540TIP3    H222585   4.070   1.846   5.435  0.0683 -0.8270  0.6418
 7541TIP3   OH222586   0.269   1.988   4.351 -0.1587  1.1323  0.6632
 7541TIP3    H122587   0.242   2.060   4.294 -0.1673  1.2803  0.8569
 7541TIP3    H222588   0.343   1.948   4.305  1.0275  2.3901  1.4442
 7542TIP3   OH222589   4.172   3.121   3.367  0.0014  0.2333  0.0634
 7542TIP3    H122590   4.249   3.063   3.374  0.8077  1.2595 -0.0767
 7542TIP3    H222591   4.172   3.170   3.448 -0.1749  0.6395 -0.1801
 7543TIP3   OH222592   4.767   0.600   2.661  0.0182  0.2558 -0.2183
 7543TIP3    H122593   4.834   0.536   2.686  0.1435 -0.0995 -1.4130
 7543TIP3    H222594   4.813   0.662   2.605 -0.5692  0.2239 -0.7412
 7544TIP3   OH222595   1.596   5.179   3.366 -0.3912 -0.8476  0.1513
 7544TIP3    H122596   1.584   5.088   3.391  0.6522 -1.7427 -2.3277
 7544TIP3    H222597   1.514   5.203   3.323 -1.4285  0.0927  2.4366
 7545TIP3   OH222598   6.676   6.692   4.696  0.1211 -0.4082 -0.1148
 7545TIP3    H122599   6.768   6.689   4.721  0.2098  0.9530 -0.1984
 7545TIP3    H222600   6.636   6.617   4.739  0.7945  0.3404  1.9238
 7546TIP3   OH222601   0.417   0.243   0.093  0.1654 -0.3131  0.4287
 7546TIP3    H122602   0.392   0.251   0.001 -0.2452  1.5476  0.6466
 7546TIP3    H222603   0.499   0.194   0.092 -0.7864 -1.9867 -0.7391
 7547TIP3   OH222604   6.262   1.310   3.627 -0.6109  0.0614 -0.3096
 7547TIP3    H122605   6.200   1.315   3.555 -1.0013  0.9405  0.0691
 7547TIP3    H222606   6.223   1.363   3.697  0.4218  0.4034  0.0346
 7548TIP3   OH222607   5.219   3.480   3.257  0.2351  0.3142  0.1103
 7548TIP3    H122608   5.196   3.409   3.197 -2.4136  0.7849  0.4372
 7548TIP3    H222609   5.172   3.459   3.338 -0.1543  2.1030  0.3947
 7549TIP3   OH222610   0.817   1.713   2.083  0.2125 -0.0285  0.2791
 7549TIP3    H122611   0.859   1.633   2.116  1.0086  0.3281  0.1489
 7549TIP3    H222612   0.726   1.688   2.071  0.4097 -0.8700  0.4168
 7550TIP3   OH222613   2.242   5.505   5.781  0.1887  0.2229 -0.3362
 7550TIP3    H122614   2.169   5.518   5.720  0.9043  0.4295 -1.1644
 7550TIP3    H222615   2.248   5.587   5.830 -1.2008 -0.3904  0.9343
 7551TIP3   OH222616   5.563   6.466   3.924 -0.2952 -0.0260 -0.3313
 7551TIP3    H122617   5.549   6.554   3.889  0.4018  0.8178  1.3841
 7551TIP3    H222618   5.495   6.456   3.991  0.7640 -0.0205  0.7766
 7552TIP3   OH222619   5.140   1.411   1.239 -0.5806 -0.0143  0.6073
 7552TIP3    H122620   5.067   1.462   1.274 -2.1491 -1.8991  0.2735
 7552TIP3    H222621   5.120   1.400   1.146  1.4976  1.5682 -0.1177
 7553TIP3   OH222622   4.598   0.832   3.494 -0.0862  0.0215  0.3016
 7553TIP3    H122623   4.531   0.851   3.559 -0.4796 -1.0536  0.2264
 7553TIP3    H222624   4.583   0.741   3.470  0.9241 -0.0062 -0.2780
 7554TIP3   OH222625   0.114   1.210   5.167 -0.5075  0.1236  0.2874
 7554TIP3    H122626   0.164   1.220   5.086 -0.4003  0.0674  0.3462
 7554TIP3    H222627   0.046   1.146   5.146 -2.6753  2.5980 -0.7969
 7555TIP3   OH222628   3.562   4.428   4.692  0.0819 -0.1858  0.0308
 7555TIP3    H122629   3.520   4.514   4.693 -0.2948 -0.3550 -0.4922
 7555TIP3    H222630   3.544   4.392   4.779 -0.6692 -0.1557 -0.1039
 7556TIP3   OH222631   7.137   4.105   5.312  0.2777  0.2863  0.3573
 7556TIP3    H122632   7.059   4.109   5.367 -0.7885 -0.1430 -1.0645
 7556TIP3    H222633   7.132   4.184   5.258 -0.7882 -1.1528 -1.7707
 7557TIP3   OH222634   4.519   1.616   4.841  0.0894 -0.1347  0.2787
 7557TIP3    H122635   4.457   1.681   4.807  1.3084  0.5857 -0.6809
 7557TIP3    H222636   4.540   1.562   4.765  0.5719 -0.4204  0.6125
 7558TIP3   OH222637   1.630   0.721   1.253 -0.0972 -0.1485  0.2161
 7558TIP3    H122638   1.670   0.807   1.259  0.8681 -0.6028  0.5204
 7558TIP3    H222639   1.692   0.668   1.204 -1.2460 -0.3669 -1.0669
 7559TIP3   OH222640   1.822   2.117   3.107 -0.4680 -0.1349  0.1306
 7559TIP3    H122641   1.761   2.093   3.177 -0.9010  2.3018  0.6733
 7559TIP3    H222642   1.880   2.182   3.147  0.3162  0.1117 -1.3472
 7560TIP3   OH222643   6.556   4.203   3.415  0.3928  0.0413  0.4057
 7560TIP3    H122644   6.470   4.234   3.388  0.6698  0.3027 -0.2023
 7560TIP3    H222645   6.618   4.264   3.374  0.8978 -0.6012  0.1920
 7561TIP3   OH222646   6.357   5.580   4.536 -0.3634  0.1782  0.1467
 7561TIP3    H122647   6.377   5.580   4.443  0.7588  0.3759  0.3780
 7561TIP3    H222648   6.282   5.520   4.544  0.1898 -0.6598 -0.7332
 7562TIP3   OH222649   4.032   5.144   5.413  0.0055 -0.0755 -0.1114
 7562TIP3    H122650   4.067   5.156   5.501  0.4930  0.8824 -0.4253
 7562TIP3    H222651   4.095   5.087   5.369 -0.0833 -0.3038  0.0509
 7563TIP3   OH222652   5.654   2.381   3.847  0.4628 -0.1982 -0.0769
 7563TIP3    H122653   5.734   2.408   3.892 -0.0592 -0.1663  0.8590
 7563TIP3    H222654   5.651   2.286   3.860 -0.8386  0.0634  1.9542
 7564TIP3   OH222655   2.099   6.422   0.435 -0.1790 -0.2567 -0.1657
 7564TIP3    H122656   2.078   6.466   0.352 -0.3261 -1.2086 -0.6562
 7564TIP3    H222657   2.089   6.329   0.415  0.4121 -0.5297  0.7575
 7565TIP3   OH222658   6.006   5.374   1.817  0.4166  0.4697 -0.3262
 7565TIP3    H122659   5.986   5.285   1.790  1.2254  0.1624  0.0532
 7565TIP3    H222660   5.968   5.382   1.905  1.0346  0.2302 -0.0331
 7566TIP3   OH222661   1.238   1.630   2.250  0.2500  0.2354 -0.5484
 7566TIP3    H122662   1.242   1.594   2.161  0.2971 -0.5120 -0.2500
 7566TIP3    H222663   1.312   1.590   2.296 -2.1144 -2.6749  1.0173
 7567TIP3   OH222664   2.232   6.644   4.231 -1.0456 -0.2214 -0.2305
 7567TIP3    H122665   2.222   6.595   4.312  1.5786 -0.4372  0.0343
 7567TIP3    H222666   2.258   6.732   4.259 -0.2870 -0.2502 -0.8004
 7568TIP3   OH222667   7.087   4.976   2.072 -0.2607 -0.3950  0.0767
 7568TIP3    H122668   7.006   5.023   2.052 -0.4548 -0.2116  1.2574
 7568TIP3    H222669   7.121   5.018   2.151 -0.8692 -2.6845  1.6674
 7569TIP3   OH222670   6.951   3.499   3.280 -0.6580  0.3542  0.0495
 7569TIP3    H122671   6.877   3.443   3.301  0.4222 -0.5315  1.7009
 7569TIP3    H222672   6.936   3.578   3.332 -0.2906  0.0342  0.6523
 7570TIP3   OH222673   0.262   0.578   1.900 -0.0675 -0.0737 -0.2318
 7570TIP3    H122674   0.274   0.655   1.956  2.0622 -1.6114  1.6494
 7570TIP3    H222675   0.186   0.533   1.937  0.1600 -0.0950  0.2189
 7571TIP3   OH222676   6.254   4.799   0.543 -0.0953 -0.5387  0.3971
 7571TIP3    H122677   6.261   4.715   0.497 -1.3592 -0.0389 -0.7703
 7571TIP3    H222678   6.231   4.862   0.475 -0.6023  0.4971  1.4906
 7572TIP3   OH222679   6.690   6.333   1.610 -0.0296 -0.3437 -0.4298
 7572TIP3    H122680   6.697   6.344   1.515 -1.7435 -0.0841 -0.5685
 7572TIP3    H222681   6.767   6.377   1.645 -0.6049  1.7651 -1.5990
 7573TIP3   OH222682   3.442   4.104   5.234 -0.0070  0.2071 -0.0759
 7573TIP3    H122683   3.391   4.043   5.182  0.5782 -1.1623  0.9089
 7573TIP3    H222684   3.389   4.184   5.236 -0.1774  0.2442 -2.5006
 7574TIP3   OH222685   2.536   0.310   3.839 -0.4230 -0.2155 -0.4198
 7574TIP3    H122686   2.470   0.243   3.858 -1.2844  1.0582  1.4585
 7574TIP3    H222687   2.551   0.303   3.745 -1.5374 -2.0695 -0.5243
 7575TIP3   OH222688   3.075   0.129   4.894 -0.9917 -0.3901 -0.1398
 7575TIP3    H122689   3.170   0.144   4.895 -1.2897  1.7621  0.5177
 7575TIP3    H222690   3.054   0.115   4.802 -0.0312 -0.9707 -0.2873
 7576TIP3   OH222691   2.877   2.003   2.833 -0.1551 -0.6597 -0.0048
 7576TIP3    H122692   2.789   1.969   2.817 -0.1229 -0.3885 -0.8064
 7576TIP3    H222693   2.886   2.076   2.772  0.8649 -1.1006 -0.4046
 7577TIP3   OH222694   2.248   1.727   2.242  0.2876 -0.8506  0.6194
 7577TIP3    H122695   2.167   1.701   2.199 -0.5688  2.4345 -0.0265
 7577TIP3    H222696   2.278   1.803   2.193  2.2769 -0.3087  2.5077
 7578TIP3   OH222697   6.334   0.887   2.131 -0.2773 -0.7090  0.5495
 7578TIP3    H122698   6.258   0.879   2.074  0.2242 -2.3350  0.0672
 7578TIP3    H222699   6.302   0.857   2.217 -0.4468 -0.3784  0.6046
 7579TIP3   OH222700   2.145   3.083   3.934  0.0697 -0.4422 -0.1944
 7579TIP3    H122701   2.127   3.100   4.026  0.5860  0.1032 -0.1845
 7579TIP3    H222702   2.061   3.097   3.890 -0.1719 -0.6740  0.1878
 7580TIP3   OH222703   6.914   3.334   1.583  0.2545 -0.1264  0.2574
 7580TIP3    H122704   6.989   3.287   1.547  1.3542  1.9431 -0.2795
 7580TIP3    H222705   6.857   3.348   1.507  1.2107  1.6966 -0.1806
 7581TIP3   OH222706   3.338   2.813   1.374  0.6545 -0.0157  0.5651
 7581TIP3    H122707   3.351   2.863   1.454  0.4465 -1.1007  1.3010
 7581TIP3    H222708   3.348   2.721   1.401  1.9103 -0.3591 -0.8992
 7582TIP3   OH222709   5.235   1.334   1.960 -0.0157 -0.5960 -0.2242
 7582TIP3    H122710   5.180   1.371   2.029  1.2525  1.4733 -0.2141
 7582TIP3    H222711   5.174   1.308   1.891 -1.1991 -1.3867  1.0645
 7583TIP3   OH222712   3.211   4.397   1.687 -0.0196 -0.3441  0.8668
 7583TIP3    H122713   3.262   4.318   1.707  0.7532  0.1552  0.9157
 7583TIP3    H222714   3.277   4.464   1.669 -0.6473  0.4626  1.4772
 7584TIP3   OH222715   6.376   1.812   0.091 -0.6517 -0.5767 -0.3704
 7584TIP3    H122716   6.322   1.739   0.120 -0.6128 -0.4457  0.0312
 7584TIP3    H222717   6.458   1.802   0.139 -0.1479 -1.0264 -1.3012
 7585TIP3   OH222718   0.739   0.803   4.562  0.3417  0.1358  0.1545
 7585TIP3    H122719   0.749   0.855   4.641 -0.6023 -0.1876  0.4997
 7585TIP3    H222720   0.697   0.722   4.591  0.2345 -0.1010 -0.6270
 7586TIP3   OH222721   0.490   4.586   2.747  0.3621 -0.1483 -0.1016
 7586TIP3    H122722   0.418   4.542   2.792 -0.1064  2.4957  2.0185
 7586TIP3    H222723   0.457   4.606   2.660 -0.7486 -0.6920  0.1849
 7587TIP3   OH222724   4.610   1.403   2.244  0.0825  0.0477  0.6559
 7587TIP3    H122725   4.660   1.426   2.322 -1.2723  1.1586  1.2409
 7587TIP3    H222726   4.624   1.309   2.233 -0.9375 -0.4747  3.1889
 7588TIP3   OH222727   6.059   4.951   3.659  0.2124  0.3009 -0.2637
 7588TIP3    H122728   5.994   4.882   3.646 -0.7355  0.9846  0.6262
 7588TIP3    H222729   6.143   4.909   3.641 -0.0082 -1.9945  3.1246
 7589TIP3   OH222730   3.030   4.010   0.262 -0.1899 -0.7767  0.1649
 7589TIP3    H122731   2.997   4.086   0.215  1.9368 -1.1757 -2.2587
 7589TIP3    H222732   3.070   4.045   0.341  0.6025  0.6692 -0.8263
 7590TIP3   OH222733   6.748   3.855   0.906  0.0411  0.1032 -0.0184
 7590TIP3    H122734   6.790   3.892   0.984  1.2375  0.1587 -0.6605
 7590TIP3    H222735   6.660   3.833   0.935  0.1536  0.9923  1.1001
 7591TIP3   OH222736   2.132   4.686   2.278 -0.0625  0.2498  0.5790
 7591TIP3    H122737   2.075   4.763   2.289  0.3708  0.6326  0.1968
 7591TIP3    H222738   2.211   4.708   2.326 -0.1698 -0.2142  0.9715
 7592TIP3   OH222739   0.814   0.685   1.744  0.2212  0.0120 -0.5803
 7592TIP3    H122740   0.873   0.702   1.818  0.1955  0.7684 -0.7329
 7592TIP3    H222741   0.872   0.652   1.676  0.2406 -0.7254 -0.2216
 7593TIP3   OH222742   4.616   1.866   3.106 -0.0694 -0.4106  0.4878
 7593TIP3    H122743   4.676   1.792   3.096  0.5751  0.3114 -1.4328
 7593TIP3    H222744   4.529   1.828   3.090  0.4262 -0.4495 -2.9764
 7594TIP3   OH222745   3.164   1.878   5.755 -0.2578 -0.5734 -0.4851
 7594TIP3    H122746   3.133   1.928   5.680  1.3480  0.9177 -0.2071
 7594TIP3    H222747   3.248   1.843   5.728  0.4180  0.1125  0.6269
 7595TIP3   OH222748   4.712   6.523   1.977 -0.1531 -0.2080 -0.3626
 7595TIP3    H122749   4.763   6.578   2.036 -1.2749 -0.1029  0.5472
 7595TIP3    H222750   4.621   6.534   2.007 -0.6510 -0.8070 -1.5855
 7596TIP3   OH222751   1.872   0.905   4.053  0.1189  0.0677  0.5279
 7596TIP3    H122752   1.901   0.884   4.141  0.1545  0.0587  0.5142
 7596TIP3    H222753   1.802   0.843   4.035  1.0343 -0.8699  0.0295
 7597TIP3   OH222754   3.742   0.325   1.014  0.7412  0.0773 -0.5496
 7597TIP3    H122755   3.677   0.363   1.073  1.3966  0.3318  0.0118
 7597TIP3    H222756   3.713   0.234   1.003 -0.0953  0.3754 -0.8592
 7598TIP3   OH222757   3.273   0.211   5.885 -0.1485 -0.3381  0.3631
 7598TIP3    H122758   3.309   0.296   5.861 -0.7565  0.3553  1.7892
 7598TIP3    H222759   3.186   0.209   5.845 -0.0958 -0.3203  0.2498
 7599TIP3   OH222760   4.749   1.137   1.476  0.4424 -0.1287  0.4008
 7599TIP3    H122761   4.802   1.061   1.499  1.3253  0.2225 -0.4111
 7599TIP3    H222762   4.777   1.206   1.536  0.9332  0.0563 -0.0269
 7600TIP3   OH222763   2.887   4.183   3.038  0.2301  0.0855 -0.4578
 7600TIP3    H122764   2.830   4.186   3.115  1.7373  1.3459  0.6653
 7600TIP3    H222765   2.861   4.260   2.987 -2.0427 -1.7159 -2.2725
 7601TIP3   OH222766   3.605   1.436   1.079  0.8588  0.4965  0.4414
 7601TIP3    H122767   3.608   1.441   0.983 -1.5246  0.2468  0.2815
 7601TIP3    H222768   3.631   1.346   1.099  1.3287  0.5359  0.0223
 7602TIP3   OH222769   5.723   2.591   3.176 -0.1910 -0.2716  0.4999
 7602TIP3    H122770   5.699   2.673   3.134 -1.4032 -0.6421  0.4369
 7602TIP3    H222771   5.804   2.565   3.133 -0.9300 -0.2038 -1.0010
 7603TIP3   OH222772   3.485   3.809   0.740  0.2590  0.3969 -0.7231
 7603TIP3    H122773   3.527   3.752   0.675 -1.1418 -1.2013 -0.2890
 7603TIP3    H222774   3.485   3.896   0.699  1.2330 -0.1548 -1.9743
 7604TIP3   OH222775   5.188   4.571   5.025  0.3886 -0.2956 -0.1978
 7604TIP3    H122776   5.227   4.581   5.112 -0.4364 -0.0707  0.1582
 7604TIP3    H222777   5.129   4.496   5.034  0.5392 -0.4724 -0.6541
 7605TIP3   OH222778   0.241   3.285   3.164  0.0126  0.1754 -0.7375
 7605TIP3    H122779   0.258   3.200   3.125  1.8621 -0.0485  0.4208
 7605TIP3    H222780   0.148   3.302   3.148  0.1373 -0.9995 -2.9698
 7606TIP3   OH222781   3.665   4.251   4.032  0.2503 -0.3688 -0.2298
 7606TIP3    H122782   3.658   4.191   4.106  0.8350 -0.0300  0.1055
 7606TIP3    H222783   3.596   4.315   4.046  0.5011 -0.1809  0.1334
 7607TIP3   OH222784   1.007   4.369   1.654 -0.1735 -0.2843  0.0730
 7607TIP3    H122785   0.947   4.436   1.686 -0.6859 -1.7247  2.3990
 7607TIP3    H222786   1.068   4.355   1.727  2.3302  0.3016 -1.7747
 7608TIP3   OH222787   1.563   4.889   3.377  0.2073  0.3052 -0.7437
 7608TIP3    H122788   1.617   4.838   3.438  0.3148 -0.1905 -1.2490
 7608TIP3    H222789   1.573   4.845   3.293 -2.0400 -0.6169 -0.6123
 7609TIP3   OH222790   1.277   1.479  -0.016 -0.4173  0.0854 -0.6263
 7609TIP3    H122791   1.232   1.402   0.016  0.7921  0.0094  1.0270
 7609TIP3    H222792   1.332   1.507   0.057  0.1115  1.7795 -1.6109
 7610TIP3   OH222793   5.210   0.628   5.875  0.0156  0.3594  0.5940
 7610TIP3    H122794   5.145   0.670   5.819 -1.3613 -3.3383 -0.9122
 7610TIP3    H222795   5.294   0.642   5.830 -0.7315 -0.4238 -1.1299
 7611TIP3   OH222796   5.526   2.797   3.619 -0.9661 -0.2231  0.4727
 7611TIP3    H122797   5.516   2.716   3.670 -2.6133 -0.6352 -0.4425
 7611TIP3    H222798   5.461   2.856   3.655 -0.9902  0.0710 -0.0428
 7612TIP3   OH222799   3.764   4.300   2.593  0.4528  0.5324  0.0695
 7612TIP3    H122800   3.822   4.308   2.518 -0.9359  0.2260 -1.0805
 7612TIP3    H222801   3.743   4.390   2.617 -0.8023  0.6313 -1.3050
 7613TIP3   OH222802   3.237   6.050   0.011  0.0503  0.4595  0.0248
 7613TIP3    H122803   3.186   6.117  -0.034  0.6194  0.0944 -1.2158
 7613TIP3    H222804   3.176   5.977   0.022  0.0976  0.2752 -0.8498
 7614TIP3   OH222805   5.091   1.717   2.486  0.2572 -0.1813  0.2624
 7614TIP3    H122806   5.129   1.651   2.427 -0.5782 -0.8663  0.4703
 7614TIP3    H222807   5.038   1.773   2.429  0.9485  0.3017  0.0883
 7615TIP3   OH222808   1.652   0.657   1.523  0.0075  0.0674  0.1715
 7615TIP3    H122809   1.577   0.717   1.523  0.1379  0.2375 -0.8811
 7615TIP3    H222810   1.705   0.683   1.448  0.9144 -0.3246  0.6520
 7616TIP3   OH222811   6.703   3.368   3.237  0.8763  0.4497  0.4210
 7616TIP3    H122812   6.757   3.343   3.162  0.9239 -0.6466  0.8066
 7616TIP3    H222813   6.672   3.285   3.273 -1.6484  1.0347 -0.1935
 7617TIP3   OH222814   2.318   2.524   3.293  0.0271  0.1257  0.0991
 7617TIP3    H122815   2.247   2.555   3.350  2.2822 -0.3532  3.5053
 7617TIP3    H222816   2.376   2.600   3.284  1.4379 -0.7098  1.5299
 7618TIP3   OH222817   2.639   5.994   3.869 -0.0802  0.1162  0.2690
 7618TIP3    H122818   2.568   6.058   3.862  0.4090  0.7996  1.3433
 7618TIP3    H222819   2.698   6.031   3.934  0.4167 -1.2480  0.6192
 7619TIP3   OH222820   6.735   3.641   2.574 -0.3253 -0.2953  0.0750
 7619TIP3    H122821   6.716   3.597   2.492 -1.9747  1.1386 -0.3968
 7619TIP3    H222822   6.747   3.733   2.550 -0.5735  0.1100  1.3783
 7620TIP3   OH222823   0.634   3.911   3.907 -0.5155  0.3998  0.3806
 7620TIP3    H122824   0.589   3.959   3.837 -1.0843 -0.3636  0.2058
 7620TIP3    H222825   0.694   3.852   3.860 -0.6154  0.1651  0.5461
 7621TIP3   OH222826   3.779   2.285   4.421  0.0493  0.0188 -0.0459
 7621TIP3    H122827   3.855   2.327   4.460 -0.8655  0.8935  0.8642
 7621TIP3    H222828   3.785   2.306   4.328  0.4961  0.7458  0.1444
 7622TIP3   OH222829   4.592   3.030   2.996 -0.6106  0.3298 -0.0183
 7622TIP3    H122830   4.528   3.044   3.066  1.5927  0.3878  2.0803
 7622TIP3    H222831   4.656   3.099   3.007  1.0350 -1.0223 -0.6289
 7623TIP3   OH222832   1.138   2.370   1.964  0.7723 -0.2807  0.3749
 7623TIP3    H122833   1.168   2.297   1.911  0.5070  0.3671 -0.6902
 7623TIP3    H222834   1.079   2.419   1.907  0.9542  0.7764  1.0552
 7624TIP3   OH222835   4.204   6.252   1.006  0.5865 -0.1367 -0.5225
 7624TIP3    H122836   4.259   6.256   0.928 -1.8843 -1.4336 -2.4462
 7624TIP3    H222837   4.249   6.191   1.064  3.1164  1.8121 -0.2458
 7625TIP3   OH222838   4.587   6.676   0.377  0.2342 -0.0360 -0.0824
 7625TIP3    H122839   4.528   6.751   0.386  1.7647  1.1740  0.4532
 7625TIP3    H222840   4.534   6.601   0.402 -0.6348  1.1909  2.1003
 7626TIP3   OH222841   7.015   3.476   0.706 -0.6194 -0.5143  0.2065
 7626TIP3    H122842   7.096   3.451   0.750 -0.2738  1.2209  0.6361
 7626TIP3    H222843   7.011   3.420   0.629  2.5589  1.3408 -1.4909
 7627TIP3   OH222844   2.537   6.346   5.170 -0.0500 -0.7132  0.2482
 7627TIP3    H122845   2.555   6.374   5.080 -2.3593 -0.5941 -0.2495
 7627TIP3    H222846   2.451   6.303   5.164 -1.3567  1.3111  2.7577
 7628TIP3   OH222847   3.521   4.881   4.859  0.2911 -0.2769  0.3749
 7628TIP3    H122848   3.586   4.935   4.904  0.6152  0.2312 -0.6861
 7628TIP3    H222849   3.465   4.848   4.929 -0.3773  2.0165  1.0049
 7629TIP3   OH222850   5.715   1.275   1.501  0.1740  0.1018 -0.5032
 7629TIP3    H122851   5.718   1.254   1.407  2.1679  0.0703 -0.4828
 7629TIP3    H222852   5.805   1.298   1.522 -0.3773  0.7206  1.2887
 7630TIP3   OH222853   1.992   1.047   0.593 -0.0959  0.2562 -0.7645
 7630TIP3    H122854   1.905   1.019   0.566 -0.7180 -0.5325  1.7795
 7630TIP3    H222855   1.982   1.140   0.612 -0.3536  0.1853 -0.5511
 7631TIP3   OH222856   4.072   5.761   0.499 -0.6662  0.2502  0.5876
 7631TIP3    H122857   4.032   5.693   0.554  1.2361 -0.0419  1.7052
 7631TIP3    H222858   4.153   5.785   0.546  0.1096  1.2993 -1.1970
 7632TIP3   OH222859   6.882   2.704   3.869  0.0492 -0.4610  0.0062
 7632TIP3    H122860   6.879   2.799   3.858  0.1989 -0.5906 -1.2002
 7632TIP3    H222861   6.959   2.676   3.820 -0.9405 -1.3899 -1.0638
 7633TIP3   OH222862   6.802   0.387   0.092 -0.3386 -0.0290 -0.1733
 7633TIP3    H122863   6.827   0.391   0.184 -0.6075  0.4383 -0.1144
 7633TIP3    H222864   6.755   0.305   0.083 -2.1177  0.8381  0.5816
 7634TIP3   OH222865   4.357   4.345   0.025 -0.4101 -0.0195 -0.0591
 7634TIP3    H122866   4.359   4.405   0.100  2.1561  0.5936 -0.5113
 7634TIP3    H222867   4.335   4.401  -0.049  1.0593  0.2497 -0.3333
 7635TIP3   OH222868   1.750   2.455   3.398  0.5574 -0.2284 -0.2418
 7635TIP3    H122869   1.740   2.546   3.370  2.2224  1.0152  2.6838
 7635TIP3    H222870   1.678   2.441   3.459 -0.4320 -1.3799 -1.6075
 7636TIP3   OH222871   3.258   4.191   1.342  0.0042 -0.4794  0.4190
 7636TIP3    H122872   3.199   4.266   1.346  1.0278  0.3117  4.1462
 7636TIP3    H222873   3.206   4.117   1.373  0.0419 -0.4992  0.4358
 7637TIP3   OH222874   0.797   1.975   4.755 -0.2068 -0.1851 -0.0212
 7637TIP3    H122875   0.867   2.040   4.749  0.2865 -0.6289  0.8186
 7637TIP3    H222876   0.771   1.959   4.664  0.0907  0.7256 -0.2712
 7638TIP3   OH222877   2.689   1.226   2.266 -0.7272  0.1766 -0.0722
 7638TIP3    H122878   2.780   1.200   2.281 -0.4872 -0.5052 -2.3454
 7638TIP3    H222879   2.647   1.147   2.234 -1.9869  0.6552  0.3555
 7639TIP3   OH222880   0.709   2.876   1.320  0.0144 -0.1034  0.4712
 7639TIP3    H122881   0.689   2.817   1.392  2.3606 -0.2290  1.1157
 7639TIP3    H222882   0.786   2.925   1.350  1.9668 -1.1231 -2.3945
 7640TIP3   OH222883   0.514   6.295   4.601 -0.8022 -0.4882 -0.4492
 7640TIP3    H122884   0.520   6.334   4.688  0.7198 -0.2009 -0.6657
 7640TIP3    H222885   0.455   6.353   4.552  0.1539  0.6442 -0.2851
 7641TIP3   OH222886   2.645   5.104   5.551  0.3602 -0.3441  0.3337
 7641TIP3    H122887   2.722   5.063   5.590  0.9463 -0.0481 -0.4887
 7641TIP3    H222888   2.648   5.078   5.459 -0.3934 -0.1359  0.2437
 7642TIP3   OH222889   6.042   3.946   0.049 -0.0084 -0.0411 -0.5912
 7642TIP3    H122890   6.087   3.940   0.133  0.5770 -0.2483 -0.9126
 7642TIP3    H222891   6.109   3.924  -0.015 -0.2789  0.7553 -1.1617
 7643TIP3   OH222892   5.526   4.496   4.018 -0.2318  0.1274  0.3037
 7643TIP3    H122893   5.560   4.581   3.993 -2.1260  0.7273 -0.3730
 7643TIP3    H222894   5.527   4.444   3.938  2.0187 -0.9581  0.9362
 7644TIP3   OH222895   5.559   2.940   0.574 -0.2130 -0.0057  0.1474
 7644TIP3    H122896   5.547   2.930   0.480  0.3110 -1.1508  0.1814
 7644TIP3    H222897   5.569   3.034   0.587 -0.7049  0.2086 -0.8794
 7645TIP3   OH222898   0.172   4.991   1.673 -0.2911  0.4357  0.2082
 7645TIP3    H122899   0.260   4.997   1.708  0.1542  1.8552 -1.0671
 7645TIP3    H222900   0.118   5.044   1.732 -0.8482 -2.3899  2.4341
 7646TIP3   OH222901   3.961   4.953   3.604 -0.4506 -0.0318  0.0957
 7646TIP3    H122902   4.021   4.982   3.535 -1.5104  1.6985 -0.1553
 7646TIP3    H222903   4.006   4.974   3.685  0.4200 -1.2564 -0.0425
 7647TIP3   OH222904   2.359   2.242   3.888 -0.1158 -0.1079 -0.2728
 7647TIP3    H122905   2.384   2.241   3.980 -1.9391 -0.5327  0.2469
 7647TIP3    H222906   2.302   2.318   3.879 -0.2143 -0.2568 -0.9738
 7648TIP3   OH222907   2.151   0.435   2.737  0.3247  0.0836  0.2682
 7648TIP3    H122908   2.097   0.509   2.710 -2.2619 -1.0906  1.7998
 7648TIP3    H222909   2.088   0.364   2.751  2.4335 -1.7160  1.1467
 7649TIP3   OH222910   5.146   2.019   2.751 -0.2238  0.2404 -0.0927
 7649TIP3    H122911   5.194   2.073   2.688 -1.8988  3.9306  1.5382
 7649TIP3    H222912   5.194   2.030   2.834  0.3466 -2.2869  0.0099
 7650TIP3   OH222913   3.835   5.683   3.278  0.1045 -0.3341 -0.4379
 7650TIP3    H122914   3.844   5.618   3.347 -0.3103 -1.1523 -1.1310
 7650TIP3    H222915   3.743   5.708   3.281  0.0929 -0.3441 -0.6611
 7651TIP3   OH222916   4.892   5.492   4.583  0.2694 -0.0048  0.7453
 7651TIP3    H122917   4.841   5.565   4.618  0.5364  1.2046 -1.2355
 7651TIP3    H222918   4.983   5.515   4.603  0.4291  0.7341 -0.7411
 7652TIP3   OH222919   3.501   5.990   0.484  0.4637  0.1627  0.2677
 7652TIP3    H122920   3.445   5.924   0.442 -0.7019  1.2945  0.0073
 7652TIP3    H222921   3.590   5.966   0.456 -0.0614 -0.5396 -0.8765
 7653TIP3   OH222922   6.707   6.315  -0.012 -0.0908 -0.0166  0.2525
 7653TIP3    H122923   6.654   6.395  -0.010  0.1626  0.2332 -1.4209
 7653TIP3    H222924   6.787   6.338   0.035  1.5347  1.9827 -3.1147
 7654TIP3   OH222925   2.092   5.649   0.057 -0.1593 -0.2917 -0.7539
 7654TIP3    H122926   2.122   5.673  -0.031  1.1544  0.4107 -0.1386
 7654TIP3    H222927   1.999   5.669   0.057  0.4963  3.5405 -0.7710
 7655TIP3   OH222928   3.696   3.533   5.091 -0.8913  0.1967  0.1671
 7655TIP3    H122929   3.606   3.523   5.060 -0.9407  0.3687  0.2543
 7655TIP3    H222930   3.750   3.492   5.023 -1.0553 -0.1820  0.2662
 7656TIP3   OH222931   2.729   0.575   5.807  0.3247 -0.0850 -0.2309
 7656TIP3    H122932   2.647   0.586   5.758  0.0773  1.6791  0.5039
 7656TIP3    H222933   2.701   0.556   5.897  0.7488 -0.7972 -0.2426
 7657TIP3   OH222934   0.701   2.838   2.874 -0.1039  0.1040 -0.0165
 7657TIP3    H122935   0.791   2.869   2.875  0.3144 -1.0105 -0.5644
 7657TIP3    H222936   0.652   2.906   2.828  0.2146  1.2869  1.3456
 7658TIP3   OH222937   6.175   3.095   2.340 -0.1995 -0.4723  0.6248
 7658TIP3    H122938   6.183   3.066   2.431 -0.2449 -0.1138  0.7455
 7658TIP3    H222939   6.189   3.016   2.288 -0.7353 -0.7894  0.9566
 7659TIP3   OH222940   3.018   3.722   5.427 -0.0560  0.0238 -0.4758
 7659TIP3    H122941   2.924   3.735   5.418 -0.4153 -0.7475  1.5732
 7659TIP3    H222942   3.037   3.746   5.518  1.8005  0.4741 -0.9359
 7660TIP3   OH222943   2.580   5.840   0.921  0.0824  0.1899  0.1058
 7660TIP3    H122944   2.654   5.812   0.867 -1.2383 -1.6634 -0.8329
 7660TIP3    H222945   2.521   5.883   0.859 -0.2156  0.5004  0.6009
 7661TIP3   OH222946   2.167   2.730   2.161  0.0828 -0.3311  0.0075
 7661TIP3    H122947   2.098   2.787   2.127 -0.5392 -0.7956  0.4741
 7661TIP3    H222948   2.202   2.778   2.237  0.1357 -0.1935 -0.1024
 7662TIP3   OH222949   0.186   1.131   5.576  0.3796  0.1497 -0.1680
 7662TIP3    H122950   0.092   1.118   5.588  0.2205  0.1469 -1.3117
 7662TIP3    H222951   0.227   1.078   5.644 -0.4324 -0.2249  0.0362
 7663TIP3   OH222952   2.637   6.078   4.957 -0.0839 -0.1124  0.2890
 7663TIP3    H122953   2.556   6.125   4.938  0.2059  0.3778  0.2291
 7663TIP3    H222954   2.704   6.124   4.905  0.3696 -0.0114  0.9451
 7664TIP3   OH222955   2.228   3.497   5.677  1.0537  0.4222  0.1498
 7664TIP3    H122956   2.324   3.501   5.669  1.1619 -2.3072 -0.6247
 7664TIP3    H222957   2.212   3.472   5.767  1.2161 -1.4899 -0.3182
 7665TIP3   OH222958   5.266   1.347   1.494 -0.8246  0.3365  0.1425
 7665TIP3    H122959   5.238   1.363   1.404 -0.6663 -2.1706 -0.4102
 7665TIP3    H222960   5.324   1.420   1.514 -0.3993  0.6500 -1.9924
 7666TIP3   OH222961   0.810   0.324   2.207 -0.0387 -0.1037 -0.0993
 7666TIP3    H122962   0.855   0.245   2.239  0.7523  0.5609  0.4477
 7666TIP3    H222963   0.880   0.387   2.192 -0.7800  0.9616  0.7940
 7667TIP3   OH222964   1.282   2.658   1.759 -0.2859 -0.2355 -0.1806
 7667TIP3    H122965   1.233   2.740   1.763 -0.1689 -0.1965  0.5566
 7667TIP3    H222966   1.348   2.673   1.692  0.2818  0.5794  0.5448
 7668TIP3   OH222967   5.453   3.037   2.432 -0.2256  0.2342 -0.2766
 7668TIP3    H122968   5.382   3.069   2.377  0.7201  2.0462 -0.5362
 7668TIP3    H222969   5.418   2.960   2.476 -0.9503 -1.4935 -3.5953
 7669TIP3   OH222970   6.416   4.083   1.847 -0.0233  0.1410 -0.3199
 7669TIP3    H122971   6.367   4.141   1.905  1.2981  1.0163 -0.0407
 7669TIP3    H222972   6.376   3.997   1.860  1.2242 -0.0882  3.2315
 7670TIP3   OH222973   1.206   6.371   3.946  0.2026 -0.5917 -0.0444
 7670TIP3    H122974   1.183   6.422   4.024  0.9637 -0.2204 -0.0559
 7670TIP3    H222975   1.289   6.408   3.917 -0.0443 -0.7550 -1.0080
 7671TIP3   OH222976   4.503   5.364   4.538 -0.1457  0.2814  0.3036
 7671TIP3    H122977   4.521   5.314   4.617 -0.8036 -1.9474 -0.8804
 7671TIP3    H222978   4.552   5.319   4.469 -3.0180 -0.5623 -1.3378
 7672TIP3   OH222979   1.731   3.852   1.371 -0.4006  0.2402  0.1826
 7672TIP3    H122980   1.686   3.912   1.312  1.9044  2.1420  0.2372
 7672TIP3    H222981   1.677   3.852   1.450 -1.0955  1.3247 -0.2658
 7673TIP3   OH222982   4.368   2.045   1.520  0.3389 -0.9953 -0.2310
 7673TIP3    H122983   4.373   1.951   1.509 -0.3693 -0.8496 -2.0636
 7673TIP3    H222984   4.365   2.080   1.431 -0.5058  0.6805  0.4033
 7674TIP3   OH222985   1.689   2.006   0.720 -0.3795 -0.3139  0.0960
 7674TIP3    H122986   1.645   2.010   0.635  1.1844 -0.4414 -0.7595
 7674TIP3    H222987   1.737   1.924   0.718  1.8282  0.9060 -0.0334
 7675TIP3   OH222988   6.914   6.339   1.052  0.2281  0.9247 -0.1271
 7675TIP3    H122989   6.874   6.268   1.003  0.1979 -0.1210  1.3380
 7675TIP3    H222990   6.840   6.397   1.074 -0.2289 -0.0164  0.9523
 7676TIP3   OH222991   3.831   3.583   5.892 -0.1163  0.0958  0.1243
 7676TIP3    H122992   3.768   3.615   5.827 -1.1672 -2.0875 -0.0341
 7676TIP3    H222993   3.901   3.648   5.892 -1.1489  1.2890 -1.5792
 7677TIP3   OH222994   0.973   6.561   2.616  0.2071 -0.4801  0.2827
 7677TIP3    H122995   1.011   6.581   2.530 -1.1380  1.4537  0.0791
 7677TIP3    H222996   1.037   6.594   2.679 -0.0892  0.7055 -0.0276
 7678TIP3   OH222997   4.427   0.016   5.274 -0.4048 -0.0513 -0.1212
 7678TIP3    H122998   4.466  -0.005   5.189 -0.8211  1.8646 -0.8259
 7678TIP3    H222999   4.501   0.040   5.329 -0.0665 -1.8697  0.2954
 7679TIP3   OH223000   0.457   5.054   4.286 -0.0255  0.1290 -0.2325
 7679TIP3    H123001   0.383   4.994   4.296 -0.2805  0.6028  0.8263
 7679TIP3    H223002   0.513   5.011   4.221 -0.3164 -1.1283  0.3134
 7680TIP3   OH223003   3.020   0.697   0.582 -0.3453 -0.0889  0.3261
 7680TIP3    H123004   3.036   0.789   0.604  0.9890 -0.6762  1.9681
 7680TIP3    H223005   3.024   0.695   0.486 -0.0322  1.5011  0.2694
 7681TIP3   OH223006   2.951   5.619   3.786  0.0398  0.3987  0.1251
 7681TIP3    H123007   2.864   5.617   3.826 -0.6220 -1.6304 -1.3009
 7681TIP3    H223008   3.009   5.642   3.859 -1.0714 -3.3134  2.4628
 7682TIP3   OH223009   4.270   3.847   4.613  0.2725  0.0255 -0.0494
 7682TIP3    H123010   4.299   3.900   4.538  0.8865 -0.4796 -0.1753
 7682TIP3    H223011   4.250   3.911   4.681 -1.5757  0.5929 -1.0434
 7683TIP3   OH223012   2.946   6.142   0.474 -0.1883 -0.3042 -0.9121
 7683TIP3    H123013   2.979   6.070   0.528 -0.9019 -0.0954 -0.1557
 7683TIP3    H223014   3.024   6.187   0.443  0.2497 -0.7367 -0.4615
 7684TIP3   OH223015   5.913   1.114   2.681  1.2341  0.1825  0.3797
 7684TIP3    H123016   5.950   1.044   2.735  0.3029  0.1912  1.0442
 7684TIP3    H223017   5.885   1.181   2.743 -1.2587 -0.4712  0.0896
 7685TIP3   OH223018   0.557   6.623   3.697 -0.2958  0.4248 -0.7485
 7685TIP3    H123019   0.526   6.555   3.757  0.7097 -0.0710 -0.7671
 7685TIP3    H223020   0.507   6.701   3.722  0.4230  0.3629  1.0551
 7686TIP3   OH223021   4.471   4.766   2.107  0.5261  0.1453 -0.2131
 7686TIP3    H123022   4.540   4.789   2.170  1.0499  2.2358 -1.4527
 7686TIP3    H223023   4.511   4.779   2.021 -1.3667  1.3710 -0.9746
 7687TIP3   OH223024   6.083   6.612   1.368 -0.2763 -0.1396 -0.2017
 7687TIP3    H123025   6.078   6.632   1.275  0.4446  0.3599 -0.1398
 7687TIP3    H223026   6.003   6.648   1.405 -0.1396  0.4646 -0.4890
 7688TIP3   OH223027   2.858   6.342   2.757  0.6698 -0.1936 -0.2606
 7688TIP3    H123028   2.786   6.386   2.803  1.5828  0.1035  0.9254
 7688TIP3    H223029   2.814   6.276   2.702 -0.5998  0.9933 -0.7291
 7689TIP3   OH223030   6.164   3.968   4.960  0.5725  0.3764 -0.6525
 7689TIP3    H123031   6.234   3.986   5.022  2.1101  0.9945 -2.4741
 7689TIP3    H223032   6.095   4.031   4.983  0.2024 -0.7860  1.6800
 7690TIP3   OH223033   6.714   6.483   2.550 -0.1983 -0.1059  0.2057
 7690TIP3    H123034   6.703   6.492   2.456  0.6613 -0.4592  0.0584
 7690TIP3    H223035   6.809   6.489   2.564 -0.1632 -1.6934  0.8471
 7691TIP3   OH223036   2.644   0.813   3.531 -0.0547  0.0877 -0.5468
 7691TIP3    H123037   2.652   0.907   3.514  1.5404  0.4076  1.5859
 7691TIP3    H223038   2.557   0.804   3.571  0.2082  0.8540  0.2285
 7692TIP3   OH223039   3.912   5.308   2.904 -0.4338  0.6264  0.1231
 7692TIP3    H123040   3.838   5.251   2.882  1.1550 -0.7645 -1.8913
 7692TIP3    H223041   3.928   5.359   2.825 -1.8333  4.1320  1.8557
 7693TIP3   OH223042   7.064   5.010   4.443 -0.5031  0.2261 -0.2205
 7693TIP3    H123043   7.011   5.039   4.368  1.0540  0.1168 -1.4201
 7693TIP3    H223044   7.036   4.919   4.458 -3.5638  1.3541  1.8973
 7694TIP3   OH223045   4.638   0.192   2.998 -0.4778 -0.1621 -0.1105
 7694TIP3    H123046   4.676   0.199   3.085 -0.6858  0.6470 -0.0823
 7694TIP3    H223047   4.554   0.147   3.012 -0.1601 -0.7321 -0.0027
 7695TIP3   OH223048   3.440   4.648   1.342  0.2923 -0.0952 -0.1647
 7695TIP3    H123049   3.470   4.573   1.393 -0.1346 -0.2452 -0.1297
 7695TIP3    H223050   3.454   4.623   1.251 -0.8284 -0.6561 -0.2000
 7696TIP3   OH223051   2.053   4.872   2.895  0.3099 -0.0459  0.2426
 7696TIP3    H123052   2.125   4.906   2.843  0.7275 -0.7366  0.3597
 7696TIP3    H223053   2.009   4.809   2.838 -1.0681  1.3721 -0.3300
 7697TIP3   OH223054   2.273   6.119   1.939  0.1919  0.0089  0.4377
 7697TIP3    H123055   2.367   6.111   1.923  0.4297 -0.3308  1.8827
 7697TIP3    H223056   2.254   6.050   2.002 -0.6392  1.3799  1.7438
 7698TIP3   OH223057   5.807   1.542   1.227  0.2784 -0.2713  0.3021
 7698TIP3    H123058   5.738   1.604   1.203 -1.7178 -2.2803  0.5611
 7698TIP3    H223059   5.837   1.571   1.313 -0.8826  0.1271  0.5872
 7699TIP3   OH223060   1.933   0.940   2.408  0.0199 -0.1139  0.1425
 7699TIP3    H123061   2.014   0.889   2.409 -0.4101 -0.8144  0.1485
 7699TIP3    H223062   1.949   1.012   2.468 -0.0441 -1.3584  1.7277
 7700TIP3   OH223063   3.085   3.520   1.876  0.3459 -0.2460  0.0349
 7700TIP3    H123064   3.149   3.518   1.947 -1.2182  1.4278  1.5889
 7700TIP3    H223065   3.116   3.589   1.818 -0.1769  0.8138  0.9730
 7701TIP3   OH223066   5.025   2.949   5.741  0.1540 -0.4433  0.2842
 7701TIP3    H123067   5.100   2.989   5.696 -1.0470 -1.3155 -2.7014
 7701TIP3    H223068   4.949   2.999   5.711 -0.7681 -1.2775  1.1376
 7702TIP3   OH223069   4.153   1.439   4.726 -0.0936  0.0562 -0.3106
 7702TIP3    H123070   4.189   1.381   4.659 -0.8989  0.1108 -0.8118
 7702TIP3    H223071   4.179   1.527   4.698 -0.1063  0.0480 -0.3488
 7703TIP3   OH223072   1.686   2.252   0.811  0.0732 -0.3568  0.6424
 7703TIP3    H123073   1.696   2.162   0.777 -2.4544 -1.1963  1.8996
 7703TIP3    H223074   1.732   2.251   0.895  1.3604  0.0196 -0.0331
 7704TIP3   OH223075   3.152   4.065   3.949 -0.1948 -0.1165  0.4877
 7704TIP3    H123076   3.227   4.114   3.983  0.1377  0.0639 -0.4786
 7704TIP3    H223077   3.078   4.126   3.957  0.1115  0.3534 -0.2031
 7705TIP3   OH223078   2.517   4.817   5.567 -0.4169 -0.2867  0.3622
 7705TIP3    H123079   2.463   4.739   5.578 -1.2493  0.0656 -1.0540
 7705TIP3    H223080   2.482   4.860   5.489  2.1470 -0.2365 -0.8568
 7706TIP3   OH223081   1.084   1.870   3.348 -0.2463 -0.0376 -0.4357
 7706TIP3    H123082   1.118   1.905   3.266  0.9632  1.2903  0.5746
 7706TIP3    H223083   1.153   1.811   3.379 -0.6658 -0.4786 -0.3277
 7707TIP3   OH223084   6.434   0.342   2.087 -0.2780 -0.0727  0.2959
 7707TIP3    H123085   6.450   0.427   2.129 -0.9034 -0.3125  1.0248
 7707TIP3    H223086   6.339   0.330   2.091 -0.3628 -0.0974 -1.2083
 7708TIP3   OH223087   5.422   3.534   1.706  0.2223 -0.6623 -0.6398
 7708TIP3    H123088   5.503   3.563   1.747 -0.3506  0.2457 -0.1142
 7708TIP3    H223089   5.383   3.614   1.671 -1.4990 -0.7234  1.0253
 7709TIP3   OH223090   4.957   5.725   2.931 -0.5460  0.2509 -0.1470
 7709TIP3    H123091   4.936   5.808   2.889 -0.7420  0.6429  0.7172
 7709TIP3    H223092   5.033   5.744   2.986  1.1354 -0.7764 -1.9790
 7710TIP3   OH223093   2.699   4.711   5.774  0.5092  0.9208  0.1891
 7710TIP3    H123094   2.645   4.742   5.701 -0.0359  0.1795  0.2701
 7710TIP3    H223095   2.757   4.645   5.735  0.3206  0.6316  0.3969
 7711TIP3   OH223096   1.655   4.381   3.558  0.1637 -0.4951 -0.3242
 7711TIP3    H123097   1.676   4.473   3.576  0.1884 -0.3625 -1.0192
 7711TIP3    H223098   1.738   4.341   3.536  0.3736 -1.0089  1.2615
 7712TIP3   OH223099   6.864   0.183   3.186  0.3883 -0.2908  0.3646
 7712TIP3    H123100   6.801   0.123   3.226  0.2304 -0.1459  0.3354
 7712TIP3    H223101   6.897   0.136   3.109  0.1401 -0.2724  0.2468
 7713TIP3   OH223102   5.009   2.625   0.503 -0.7293 -0.0958  0.4791
 7713TIP3    H123103   4.922   2.628   0.463  0.8615  1.9685 -3.4143
 7713TIP3    H223104   5.022   2.712   0.540  0.5492  0.5632 -1.3792
 7714TIP3   OH223105   5.269   1.453   2.648  0.0305 -0.2642  0.2944
 7714TIP3    H123106   5.301   1.416   2.565  0.4977  1.0750 -0.1412
 7714TIP3    H223107   5.223   1.380   2.690  0.1378 -1.0844 -0.9531
 7715TIP3   OH223108   0.671   1.130   0.621  0.0998 -0.6942  0.0524
 7715TIP3    H123109   0.666   1.160   0.531  5.2779 -0.6164 -0.4972
 7715TIP3    H223110   0.647   1.037   0.617  1.7061 -1.0981 -1.8145
 7716TIP3   OH223111   6.995   4.319   0.177 -0.1473  0.0274 -0.3544
 7716TIP3    H123112   7.041   4.246   0.219  1.1584  1.1276  0.2134
 7716TIP3    H223113   6.996   4.297   0.084 -2.3034 -2.0196 -0.0026
 7717TIP3   OH223114   6.902   4.775   0.244 -0.0884 -0.3235 -0.6310
 7717TIP3    H123115   6.988   4.734   0.229 -0.8094 -1.6994 -1.2613
 7717TIP3    H223116   6.900   4.793   0.337  0.5774 -1.0635 -0.4583
 7718TIP3   OH223117   4.178   1.071   2.557  0.2101  0.8382 -0.6171
 7718TIP3    H123118   4.134   1.049   2.639 -0.8363 -0.2099 -1.4245
 7718TIP3    H223119   4.110   1.061   2.490  1.3616  0.4063 -1.7618
 7719TIP3   OH223120   2.252   4.282   4.362  0.2543 -0.4927  0.2405
 7719TIP3    H123121   2.298   4.274   4.278  0.9041 -0.4954  0.5899
 7719TIP3    H223122   2.267   4.373   4.388  0.0438 -0.4884  0.3460
 7720TIP3   OH223123   5.328   1.989   2.023 -0.7715 -0.1211 -0.0298
 7720TIP3    H123124   5.272   2.026   2.091 -0.9756 -0.5016  0.0166
 7720TIP3    H223125   5.417   2.009   2.050 -0.9002  0.8970 -0.3385
 7721TIP3   OH223126   2.769   5.270   2.502 -0.2969 -0.4291 -0.2964
 7721TIP3    H123127   2.852   5.225   2.486 -0.5254 -0.8241 -0.4006
 7721TIP3    H223128   2.728   5.220   2.573 -0.9420 -0.9132 -0.9945
 7722TIP3   OH223129   3.116   4.183   5.064 -0.2226 -0.0969  0.3407
 7722TIP3    H123130   3.135   4.122   5.136 -0.7266  0.3471  0.8524
 7722TIP3    H223131   3.060   4.133   5.005  0.5895 -0.6295 -0.0035
 7723TIP3   OH223132   1.535   1.061   2.216  0.1108 -0.7011 -0.5600
 7723TIP3    H123133   1.565   0.974   2.186  2.1175  0.3482 -1.8447
 7723TIP3    H223134   1.527   1.112   2.135 -1.2365  0.2924  0.1612
 7724TIP3   OH223135   5.069   6.339   5.154 -0.1053  0.6967  0.2649
 7724TIP3    H123136   5.113   6.261   5.119  1.9407  2.2612 -0.9047
 7724TIP3    H223137   5.017   6.306   5.227  0.6105 -1.7699 -0.2212
 7725TIP3   OH223138   4.398   0.303   3.566 -0.1895 -0.1926 -0.0696
 7725TIP3    H123139   4.485   0.269   3.543 -0.7183 -0.5285 -1.6949
 7725TIP3    H223140   4.413   0.353   3.646  1.4980 -0.2638 -0.2935
 7726TIP3   OH223141   6.689   2.862   0.559  0.5585  0.4256  0.3306
 7726TIP3    H123142   6.662   2.775   0.531  1.1201  0.3267  0.0704
 7726TIP3    H223143   6.730   2.901   0.481  0.6468  0.7771  0.5477
 7727TIP3   OH223144   2.530   2.514   0.632 -0.6568 -0.2192  0.0837
 7727TIP3    H123145   2.454   2.566   0.660 -2.9606 -1.7652 -2.6936
 7727TIP3    H223146   2.492   2.431   0.604  1.8496 -0.4955 -2.9427
 7728TIP3   OH223147   3.625   1.568   2.192 -0.4310 -0.3211  0.3413
 7728TIP3    H123148   3.562   1.596   2.258 -0.1972 -1.7605  1.2139
 7728TIP3    H223149   3.573   1.516   2.131 -0.1992 -1.0710  0.7734
 7729TIP3   OH223150   2.073   0.406   3.982  0.2128  0.3882  0.4981
 7729TIP3    H123151   2.160   0.370   3.999  0.5226  0.7015 -0.3905
 7729TIP3    H223152   2.079   0.497   4.011 -0.2526  0.0411  1.7497
 7730TIP3   OH223153   4.546   6.420   4.865 -0.7541 -0.0463  0.1109
 7730TIP3    H123154   4.553   6.378   4.951 -1.0008 -1.6182 -0.6096
 7730TIP3    H223155   4.473   6.481   4.874 -0.5224  0.0976  1.1288
 7731TIP3   OH223156   0.601   5.275   1.250  0.0985 -0.4842 -0.0965
 7731TIP3    H123157   0.692   5.257   1.226  0.6922 -1.6291  2.5922
 7731TIP3    H223158   0.557   5.293   1.167  2.6988 -0.1649 -1.5047
 7732TIP3   OH223159   5.293   0.826   4.795  0.2892  0.0659 -0.0984
 7732TIP3    H123160   5.317   0.900   4.851  1.3562  0.3743 -0.9392
 7732TIP3    H223161   5.267   0.866   4.712 -0.3007 -0.4471 -0.1729
 7733TIP3   OH223162   2.081   4.019   2.527  0.0158 -0.4870 -0.3248
 7733TIP3    H123163   2.139   3.949   2.559 -1.4157 -0.7377  1.9599
 7733TIP3    H223164   2.017   3.974   2.472 -0.2230 -0.7959  0.2023
 7734TIP3   OH223165   6.007   2.782   1.744 -0.7040 -0.1872 -0.0738
 7734TIP3    H123166   5.937   2.737   1.791  1.1919 -0.3059  2.8916
 7734TIP3    H223167   6.085   2.728   1.759  0.2222  0.2562 -2.7281
 7735TIP3   OH223168   5.812   5.081   4.338  0.4891 -0.1309 -0.4390
 7735TIP3    H123169   5.788   5.009   4.281 -0.2501 -0.1460 -0.1231
 7735TIP3    H223170   5.752   5.074   4.412  1.2748  0.0287  0.2260
 7736TIP3   OH223171   2.408   0.028   0.919 -0.0727  0.5488  0.8428
 7736TIP3    H123172   2.438   0.020   0.829 -2.4329  0.7978 -0.0358
 7736TIP3    H223173   2.481  -0.004   0.972  0.2296 -2.6780 -1.2633
 7737TIP3   OH223174   7.134   3.856   3.510  0.4808  0.3820 -0.0246
 7737TIP3    H123175   7.161   3.765   3.499 -0.0483  0.1281  0.7005
 7737TIP3    H223176   7.038   3.853   3.508  0.4657  1.0405 -0.8418
 7738TIP3   OH223177   3.016   2.402   3.603  0.3227  0.0912 -0.0154
 7738TIP3    H123178   2.960   2.345   3.656 -0.4599  1.2991  0.5049
 7738TIP3    H223179   2.997   2.490   3.634  0.1539  0.8186 -2.0203
 7739TIP3   OH223180   1.736   1.029   0.527 -0.4991  0.6918  0.4238
 7739TIP3    H123181   1.703   1.033   0.438 -0.7002 -2.4722  0.2322
 7739TIP3    H223182   1.698   1.106   0.570 -1.9359  1.2805 -1.7161
 7740TIP3   OH223183   6.058   1.418   4.525 -0.7150  0.5136  0.2355
 7740TIP3    H123184   6.041   1.380   4.438  2.4850 -0.0888 -0.2604
 7740TIP3    H223185   6.037   1.511   4.515 -0.5909  0.4158 -1.1288
 7741TIP3   OH223186   4.553   4.693   5.257 -0.1605 -0.0505  0.1430
 7741TIP3    H123187   4.470   4.645   5.256 -0.6527  0.7056 -2.3673
 7741TIP3    H223188   4.617   4.630   5.224 -0.5206  0.4587 -1.6548
 7742TIP3   OH223189   3.172   1.921   5.208 -0.4277 -0.5782  0.0239
 7742TIP3    H123190   3.129   1.962   5.133 -0.4473 -1.4538 -0.4641
 7742TIP3    H223191   3.133   1.833   5.212 -0.5938 -0.4594  1.2058
 7743TIP3   OH223192   4.138   5.186   2.510  0.5377 -0.5028  0.3502
 7743TIP3    H123193   4.176   5.234   2.583 -2.0714  1.7712  0.3352
 7743TIP3    H223194   4.149   5.243   2.434 -1.3853 -0.4718  0.0412
 7744TIP3   OH223195   2.478   1.294   0.653  0.4413  0.3288 -0.5022
 7744TIP3    H123196   2.499   1.309   0.561  1.0880 -0.8171 -0.5611
 7744TIP3    H223197   2.509   1.373   0.698  1.4617  0.2855 -1.0958
 7745TIP3   OH223198   2.075   2.392   0.983  0.3211  0.0101  0.9426
 7745TIP3    H123199   2.001   2.453   0.994  0.2965  0.5064 -1.3595
 7745TIP3    H223200   2.150   2.449   0.963  0.4103 -0.6136 -0.7029
 7746TIP3   OH223201   7.033   3.102   2.845 -0.2565  0.3664  0.3596
 7746TIP3    H123202   7.044   3.011   2.818  0.9628  0.0069  1.9324
 7746TIP3    H223203   6.967   3.137   2.785  0.4092 -1.0858 -1.3096
 7747TIP3   OH223204   1.669   0.326   0.925  0.1884  0.0857 -0.4144
 7747TIP3    H123205   1.610   0.325   0.850 -0.3477 -0.8276  0.0085
 7747TIP3    H223206   1.663   0.238   0.963  0.2250  0.6055  0.8626
 7748TIP3   OH223207   7.007   2.627   1.507  0.4347 -0.0947 -0.2342
 7748TIP3    H123208   7.013   2.545   1.457 -0.0167  0.1339 -0.6841
 7748TIP3    H223209   7.097   2.648   1.530  0.5384 -0.8147  0.0457
 7749TIP3   OH223210   3.374   0.801   5.579  0.3500  0.0925 -0.3474
 7749TIP3    H123211   3.445   0.848   5.535 -0.7424  0.4345 -1.8036
 7749TIP3    H223212   3.387   0.820   5.672  2.5220 -0.3656 -0.4864
 7750TIP3   OH223213   0.217   6.185   3.360 -0.3691  0.4221  0.5263
 7750TIP3    H123214   0.147   6.199   3.297 -0.5933  0.1301  0.7024
 7750TIP3    H223215   0.293   6.228   3.322 -0.0934 -1.0612 -0.7034
 7751TIP3   OH223216   2.811   4.981   3.609 -0.3188 -0.2972 -0.2216
 7751TIP3    H123217   2.885   4.963   3.668  0.0039  0.5629 -0.3572
 7751TIP3    H223218   2.743   5.015   3.667  0.2966  1.3802 -0.4351
 7752TIP3   OH223219   1.052   1.442   4.557 -0.3152 -0.0847 -0.3996
 7752TIP3    H123220   1.101   1.387   4.617  0.7198  1.1515 -0.0475
 7752TIP3    H223221   0.996   1.495   4.613  0.3919  0.8190 -0.5119
 7753TIP3   OH223222   0.556   4.424   3.099 -0.1748 -0.4398  0.8723
 7753TIP3    H123223   0.548   4.393   3.008  1.0282  0.7780  0.3164
 7753TIP3    H223224   0.534   4.347   3.152 -1.7299 -0.9498 -0.4257
 7754TIP3   OH223225   2.057   0.577   4.589 -0.4187  0.1084 -0.0708
 7754TIP3    H123226   2.030   0.655   4.637  0.1679  1.0493 -1.2122
 7754TIP3    H223227   2.000   0.508   4.621 -0.0394  0.6883  1.9637
 7755TIP3   OH223228   6.789   2.180   4.373  0.7712  0.4098 -0.2700
 7755TIP3    H123229   6.755   2.105   4.422 -0.6747  0.8982 -0.4867
 7755TIP3    H223230   6.718   2.245   4.375  1.6683  1.4478 -0.8051
 7756TIP3   OH223231   5.767   2.189   4.390  0.2536  0.2555  0.0215
 7756TIP3    H123232   5.835   2.233   4.441  1.0650 -1.0754  0.1190
 7756TIP3    H223233   5.807   2.108   4.360 -1.5204 -0.9372  0.7146
 7757TIP3   OH223234   4.173   0.641   2.556  0.1871 -0.0380  0.6189
 7757TIP3    H123235   4.258   0.601   2.575 -0.5814 -1.8869  0.3383
 7757TIP3    H223236   4.110   0.589   2.605 -0.8600  0.9686  0.3841
 7758TIP3   OH223237   2.737   0.865   0.693 -0.0406  0.0738  0.2491
 7758TIP3    H123238   2.814   0.912   0.660 -0.1030 -1.4862 -2.3945
 7758TIP3    H223239   2.664   0.926   0.679  0.1894  0.0963 -0.8829
 7759TIP3   OH223240   3.389   3.730   3.648  0.8130  0.0214 -0.6553
 7759TIP3    H123241   3.406   3.718   3.554  1.2754 -0.3295 -0.5284
 7759TIP3    H223242   3.474   3.719   3.689  0.5101 -0.4212 -0.1338
 7760TIP3   OH223243   0.575   5.499   1.776  0.5114  0.1021 -0.2016
 7760TIP3    H123244   0.517   5.571   1.799  0.6846 -0.2505  1.5092
 7760TIP3    H223245   0.650   5.509   1.835 -0.4427 -2.6551  1.6992
 7761TIP3   OH223246   6.292   0.515   5.858  0.3893 -0.1712  0.1493
 7761TIP3    H123247   6.291   0.604   5.891  2.6781 -0.1866  0.4520
 7761TIP3    H223248   6.200   0.493   5.844 -0.3009  1.7572  1.2907
 7762TIP3   OH223249   4.718   0.101   1.478 -0.0814 -0.2921  0.2296
 7762TIP3    H123250   4.787   0.039   1.454  1.8475  2.0500 -0.7277
 7762TIP3    H223251   4.705   0.087   1.571  2.1741 -0.4186  0.5838
 7763TIP3   OH223252   6.397   6.020   2.205  0.5213  0.0223  0.4555
 7763TIP3    H123253   6.312   6.041   2.245  0.6282 -0.6213  1.0413
 7763TIP3    H223254   6.416   5.932   2.236  0.9329 -0.2335 -0.4915
 7764TIP3   OH223255   3.294   5.534   1.666  0.3511 -0.5606  0.6383
 7764TIP3    H123256   3.295   5.627   1.689  1.9490 -0.9629  2.4639
 7764TIP3    H223257   3.235   5.529   1.591  0.4190  1.9570  0.3074
 7765TIP3   OH223258   2.942   0.918   1.255 -0.1936  0.0876 -0.3373
 7765TIP3    H123259   2.910   0.989   1.310  2.3454  0.7504  0.4125
 7765TIP3    H223260   2.935   0.952   1.166 -1.2580  0.2999 -0.1837
 7766TIP3   OH223261   6.639   3.180   2.525  0.7070 -0.3904  0.0350
 7766TIP3    H123262   6.588   3.120   2.470 -0.5299  0.6933 -0.0479
 7766TIP3    H223263   6.730   3.155   2.510  0.3491 -0.7176 -1.8139
 7767TIP3   OH223264   0.230   6.406   2.584  0.0519  0.9629 -0.0143
 7767TIP3    H123265   0.296   6.411   2.515  0.0341  0.8580 -0.0387
 7767TIP3    H223266   0.164   6.345   2.550  0.3131  0.4826  0.3264
 7768TIP3   OH223267   1.079   4.231   2.142 -0.0108  0.1382 -0.4223
 7768TIP3    H123268   1.097   4.275   2.225 -0.4762 -0.4764  0.0103
 7768TIP3    H223269   1.003   4.277   2.106 -0.2296 -0.0286 -0.1781
 7769TIP3   OH223270   2.324   0.412   1.537 -0.0169 -0.4459 -0.1526
 7769TIP3    H123271   2.284   0.326   1.552  0.0037 -0.8280 -1.9995
 7769TIP3    H223272   2.252   0.466   1.504 -0.3177  0.6598  2.1173
 7770TIP3   OH223273   3.154   3.942   2.196 -0.2092  0.0223  0.6644
 7770TIP3    H123274   3.212   3.870   2.221 -0.6527 -0.8586 -0.7631
 7770TIP3    H223275   3.213   4.013   2.172  0.2575 -0.4651  0.3517
 7771TIP3   OH223276   0.029   0.848   1.967  0.0505  0.5864 -0.2486
 7771TIP3    H123277   0.028   0.936   2.004  1.2067 -0.2324  1.8876
 7771TIP3    H223278   0.025   0.790   2.042 -0.0676 -1.2045 -1.5740
 7772TIP3   OH223279   4.790   1.483   0.598  0.2863  0.1894 -0.0841
 7772TIP3    H123280   4.743   1.431   0.663  0.9849 -0.6275 -0.2243
 7772TIP3    H223281   4.848   1.421   0.555 -0.0393  0.7580 -1.3766
 7773TIP3   OH223282   6.580   2.269   3.455 -0.5484 -0.3304  0.6630
 7773TIP3    H123283   6.617   2.255   3.542  0.5239  1.8544  0.6285
 7773TIP3    H223284   6.532   2.352   3.462 -0.1865  0.0484 -0.8689
 7774TIP3   OH223285   6.326   4.408   3.062  0.3374 -0.0099 -0.2396
 7774TIP3    H123286   6.343   4.429   2.970 -1.3304  2.2059 -0.1307
 7774TIP3    H223287   6.256   4.343   3.059  0.8124 -0.5198 -0.5219
 7775TIP3   OH223288   6.223   2.941   4.364  0.6825  0.4048  0.8624
 7775TIP3    H123289   6.207   3.020   4.312  1.2350 -0.2304 -0.3168
 7775TIP3    H223290   6.195   2.965   4.452 -0.9103  1.3135  0.1630
 7776TIP3   OH223291   2.680   3.667   1.680 -0.2974  0.0338 -0.4130
 7776TIP3    H123292   2.699   3.670   1.586  0.0700 -2.0007 -0.4497
 7776TIP3    H223293   2.765   3.674   1.722 -0.4602  0.9124 -0.2051
 7777TIP3   OH223294   4.872   6.045   3.220  0.0110 -0.2843 -0.2719
 7777TIP3    H123295   4.787   6.083   3.197 -0.6161 -1.9324 -0.8507
 7777TIP3    H223296   4.866   5.954   3.191  1.5733 -0.7390  0.7008
 7778TIP3   OH223297   6.328   0.284   0.217 -0.2238  0.2545  0.1653
 7778TIP3    H123298   6.275   0.363   0.213 -0.6258 -0.0619 -2.3843
 7778TIP3    H223299   6.410   0.308   0.173 -0.1531 -0.6063 -0.1910
 7779TIP3   OH223300   1.173   5.490   1.905 -0.2961 -0.2585  0.1528
 7779TIP3    H123301   1.258   5.450   1.889 -0.2447 -0.3702  0.6844
 7779TIP3    H223302   1.171   5.567   1.847 -0.2952 -0.8744 -0.6830
 7780TIP3   OH223303   0.183   6.703   0.718  0.4927  0.2589  0.3990
 7780TIP3    H123304   0.112   6.676   0.660 -0.0970  0.4708  1.0056
 7780TIP3    H223305   0.253   6.640   0.702 -0.2282 -0.6009  0.5670
 7781TIP3   OH223306   6.484   5.911   3.027  0.6579 -0.1392  0.0789
 7781TIP3    H123307   6.510   5.992   3.071  0.1461 -0.3737  0.8261
 7781TIP3    H223308   6.543   5.905   2.952  1.4953  0.3090  0.6824
 7782TIP3   OH223309   1.308   0.162   3.067  0.0368 -0.0784 -0.0236
 7782TIP3    H123310   1.274   0.204   2.988  0.5414  0.5588  0.0902
 7782TIP3    H223311   1.403   0.160   3.055  0.2015  0.8379  0.9457
 7783TIP3   OH223312   1.075   3.481   2.986 -0.0431  0.0499 -0.5850
 7783TIP3    H123313   1.139   3.535   3.033  1.2059 -3.5646  2.4146
 7783TIP3    H223314   0.992   3.500   3.029  0.3673 -0.2968  0.3916
 7784TIP3   OH223315   2.120   5.909   4.317 -0.1272 -0.7023  0.0789
 7784TIP3    H123316   2.183   5.932   4.249 -0.6755  1.7763  0.3043
 7784TIP3    H223317   2.081   5.827   4.288 -1.5819  1.0688 -3.5537
 7785TIP3   OH223318   7.078   0.182   1.839  0.9508 -0.2519  0.2628
 7785TIP3    H123319   7.166   0.192   1.875  1.8406  1.5138 -2.1693
 7785TIP3    H223320   7.083   0.103   1.785  1.2948  0.2578 -0.4677
 7786TIP3   OH223321   2.204   1.492   4.866  0.0727  0.3245  0.4033
 7786TIP3    H123322   2.286   1.498   4.914  0.6966  0.1800 -0.6139
 7786TIP3    H223323   2.171   1.582   4.862  1.2577  0.7388 -0.9732
 7787TIP3   OH223324   1.993   4.635   0.670 -0.5127 -0.4788 -0.0094
 7787TIP3    H123325   1.953   4.633   0.583  1.0624 -0.0561 -0.7878
 7787TIP3    H223326   2.050   4.557   0.672  0.5631  0.2856  0.0603
 7788TIP3   OH223327   1.652   2.066   4.287 -0.4071 -0.1232 -0.4860
 7788TIP3    H123328   1.636   2.122   4.212 -0.7796 -0.4877 -0.6815
 7788TIP3    H223329   1.722   2.007   4.258 -0.2949 -0.0224 -0.4201
 7789TIP3   OH223330   3.966   2.873   5.259 -0.1646  0.1432  0.0591
 7789TIP3    H123331   3.964   2.900   5.167 -2.2935 -0.6884 -0.2000
 7789TIP3    H223332   3.890   2.816   5.268  0.6127 -0.6423  2.1021
 7790TIP3   OH223333   5.013   2.512   4.740  0.2316  0.2161 -0.4157
 7790TIP3    H123334   4.981   2.601   4.754  1.8897  0.5803  1.5756
 7790TIP3    H223335   5.108   2.518   4.753  0.5049 -1.6797 -1.1236
 7791TIP3   OH223336   5.908   3.618   1.203  0.6206 -0.3990 -0.4055
 7791TIP3    H123337   5.814   3.610   1.220  0.4973  0.2457 -0.7452
 7791TIP3    H223338   5.950   3.584   1.282  0.0864  0.3224  0.2047
 7792TIP3   OH223339   4.225   1.249   4.540  0.1949  0.1737 -0.7309
 7792TIP3    H123340   4.222   1.153   4.537  4.9469 -0.2375 -0.1219
 7792TIP3    H223341   4.195   1.277   4.453 -1.8435 -1.6980 -0.7318
 7793TIP3   OH223342   7.208   2.011   3.126 -0.1244 -0.0086 -0.1140
 7793TIP3    H123343   7.178   2.087   3.176 -1.2585 -0.7862  0.4195
 7793TIP3    H223344   7.128   1.966   3.101  0.5128 -0.6596 -1.0258
 7794TIP3   OH223345   1.107   1.852   5.696  0.7260 -0.3377 -0.3639
 7794TIP3    H123346   1.121   1.914   5.767 -0.0677 -0.5952  0.0328
 7794TIP3    H223347   1.092   1.768   5.741 -0.1359 -0.4335 -0.8098
 7795TIP3   OH223348   6.313   1.537   3.953 -0.0243  0.6157  0.0499
 7795TIP3    H123349   6.298   1.448   3.986  1.3414  0.0017 -0.8608
 7795TIP3    H223350   6.227   1.566   3.923 -1.3362  1.1679  3.8163
 7796TIP3   OH223351   3.494   6.249   3.891 -0.4286  0.3226 -0.7725
 7796TIP3    H123352   3.578   6.269   3.932  0.0224  0.3372 -1.6705
 7796TIP3    H223353   3.470   6.163   3.924  0.7699 -0.4275 -1.7690
 7797TIP3   OH223354   4.939   0.144   4.866 -0.2413  0.0791 -0.6503
 7797TIP3    H123355   4.899   0.059   4.849 -1.3772  0.5729 -0.5402
 7797TIP3    H223356   4.868   0.196   4.905  0.6214  0.8602 -0.0833
 7798TIP3   OH223357   5.952   6.285   4.386  0.1181  0.6068  0.3810
 7798TIP3    H123358   5.871   6.333   4.374  0.5737  1.2404 -0.3021
 7798TIP3    H223359   6.015   6.329   4.328  1.4787  1.3695  2.3464
 7799TIP3   OH223360   3.235   1.077   3.195 -0.0130 -0.3129  0.9550
 7799TIP3    H123361   3.226   0.982   3.195  1.4248 -0.4738  0.0179
 7799TIP3    H223362   3.225   1.102   3.287  0.0446 -1.4140  1.2741
 7800TIP3   OH223363   1.480   2.287   3.015 -0.3846  0.1944 -0.1007
 7800TIP3    H123364   1.557   2.344   3.018 -0.9620  0.9898  3.3102
 7800TIP3    H223365   1.411   2.342   2.980  0.2048 -0.0810 -1.7844
 7801TIP3   OH223366   4.667   5.050   0.174 -0.0356  0.4826  0.3994
 7801TIP3    H123367   4.722   5.002   0.236 -0.9498  0.1979  1.0100
 7801TIP3    H223368   4.588   4.997   0.167 -0.3533  1.0367 -0.2460
 7802TIP3   OH223369   3.215   0.509   0.292  0.2612  0.1716  0.2863
 7802TIP3    H123370   3.128   0.533   0.262  0.4240 -1.2318 -1.4199
 7802TIP3    H223371   3.273   0.532   0.220  1.0357 -0.7961  0.5719
 7803TIP3   OH223372   5.076   1.977   3.342 -0.3541  0.0831 -0.1738
 7803TIP3    H123373   5.054   2.056   3.393  0.3018 -1.2902  2.4480
 7803TIP3    H223374   5.059   1.905   3.403  0.6268 -1.6971 -1.9153
 7804TIP3   OH223375   6.923   2.351   3.555 -0.1764 -0.5630  0.2689
 7804TIP3    H123376   6.865   2.409   3.505 -0.5983 -1.0072  0.2341
 7804TIP3    H223377   7.000   2.340   3.498 -1.2032 -2.1204 -0.9170
 7805TIP3   OH223378   6.514   3.558   4.697 -0.0994 -0.1562 -0.4110
 7805TIP3    H123379   6.460   3.521   4.768 -0.5894  1.3348  0.0457
 7805TIP3    H223380   6.568   3.624   4.741  1.4817 -0.9995 -1.0288
 7806TIP3   OH223381   2.414   5.489   4.287  0.0310  0.1693  0.3873
 7806TIP3    H123382   2.381   5.496   4.198  0.2012  1.8642  0.4202
 7806TIP3    H223383   2.338   5.506   4.342  0.5599  2.6318  0.4786
 7807TIP3   OH223384   5.095   4.893   4.705 -0.2620  0.1784 -0.0030
 7807TIP3    H123385   5.069   4.803   4.727 -1.1102  0.6081  0.8187
 7807TIP3    H223386   5.054   4.947   4.772 -2.3221  1.4829 -2.1342
 7808TIP3   OH223387   2.361   4.913   4.527  0.6847 -0.4717 -0.0012
 7808TIP3    H123388   2.412   4.836   4.551  2.9909  0.5029 -1.4367
 7808TIP3    H223389   2.317   4.887   4.445 -0.6379 -1.0622  0.8548
 7809TIP3   OH223390   2.220   4.131   5.405 -0.1602 -0.4219 -0.4728
 7809TIP3    H123391   2.289   4.065   5.402 -2.2838 -2.7812 -0.0280
 7809TIP3    H223392   2.209   4.158   5.314 -1.1302 -2.8190 -1.1364
 7810TIP3   OH223393   2.056   0.125   3.338 -0.1830  0.6255 -0.6031
 7810TIP3    H123394   2.000   0.105   3.413 -0.8795  0.3315 -1.1899
 7810TIP3    H223395   1.997   0.163   3.274  0.5740  1.7479 -0.6655
 7811TIP3   OH223396   0.750   3.748   0.125  0.0053 -0.5404 -0.1478
 7811TIP3    H123397   0.693   3.825   0.127  1.0958  0.3750 -1.9237
 7811TIP3    H223398   0.813   3.764   0.196  0.2985  0.2906 -0.5736
 7812TIP3   OH223399   1.788   5.718   4.372  0.0434  0.0405 -0.3488
 7812TIP3    H123400   1.768   5.628   4.346  1.3561  0.1257 -1.8413
 7812TIP3    H223401   1.850   5.748   4.306  2.1920  0.9607  1.9405
 7813TIP3   OH223402   5.539   2.962   0.301 -0.1537  0.0354 -0.0837
 7813TIP3    H123403   5.587   3.044   0.314  1.2986 -0.7097 -0.5871
 7813TIP3    H223404   5.535   2.951   0.206  2.3682 -1.9499 -0.0678
 7814TIP3   OH223405   4.774   2.108   5.306  0.1265  0.0350 -0.0022
 7814TIP3    H123406   4.718   2.050   5.357  1.2051 -1.9233 -0.9406
 7814TIP3    H223407   4.745   2.096   5.216  0.3548  0.9986 -0.2126
 7815TIP3   OH223408   4.980   3.440   4.998  0.5222  0.1754  0.8193
 7815TIP3    H123409   5.024   3.446   4.913  0.3832 -1.0236  0.6536
 7815TIP3    H223410   4.886   3.444   4.977  0.4931  1.9940  1.1120
 7816TIP3   OH223411   5.119   4.415   3.375 -0.1488  0.0476  0.1476
 7816TIP3    H123412   5.098   4.496   3.423  2.4893  0.5217  0.6935
 7816TIP3    H223413   5.091   4.433   3.286 -2.5344  0.2679  0.8651
 7817TIP3   OH223414   6.271   4.129   1.305 -0.5842 -0.7809  0.2780
 7817TIP3    H123415   6.330   4.204   1.293 -0.5980 -0.9949 -1.4581
 7817TIP3    H223416   6.258   4.123   1.399  2.1093 -0.6844  0.7259
 7818TIP3   OH223417   5.449   3.762   2.152  0.6735 -0.2627 -0.3932
 7818TIP3    H123418   5.540   3.782   2.131  0.6440 -0.5136 -0.7715
 7818TIP3    H223419   5.435   3.675   2.117  0.4616 -0.4785  0.2108
 7819TIP3   OH223420   5.966   4.884   0.133 -0.0516 -0.9952  0.1499
 7819TIP3    H123421   6.008   4.938   0.066  0.7617 -2.0687 -0.2201
 7819TIP3    H223422   5.883   4.858   0.093 -1.0353  0.9360  0.7964
 7820TIP3   OH223423   1.245   1.238   0.629 -0.3608 -0.0886 -0.0800
 7820TIP3    H123424   1.282   1.156   0.594 -2.1225 -1.4795  1.1524
 7820TIP3    H223425   1.263   1.234   0.723 -0.7295  0.8000  0.0339
 7821TIP3   OH223426   1.701   2.287   5.149 -1.0299  0.4098 -0.5533
 7821TIP3    H123427   1.737   2.347   5.215 -0.7923 -0.6780  0.3444
 7821TIP3    H223428   1.665   2.214   5.200 -3.5890  0.9166 -1.4510
 7822TIP3   OH223429   1.807   1.711   3.736 -0.5661  0.3374 -0.1184
 7822TIP3    H123430   1.883   1.687   3.789  0.1373 -0.6023 -1.5056
 7822TIP3    H223431   1.740   1.647   3.759  0.4846 -1.5102 -1.9738
 7823TIP3   OH223432   4.711   5.223   2.555  0.0781 -0.1098 -0.5119
 7823TIP3    H123433   4.732   5.304   2.508  0.8462 -0.8687 -1.5175
 7823TIP3    H223434   4.631   5.191   2.513 -0.3059  0.1876 -0.0189
 7824TIP3   OH223435   0.737   5.113   1.678  0.7882  0.3804  0.1578
 7824TIP3    H123436   0.693   5.050   1.734  0.8197  1.0252  0.9193
 7824TIP3    H223437   0.667   5.159   1.632  0.7321  0.3491  0.2134
 7825TIP3   OH223438   3.213   5.603   2.914  0.3855  0.6435  0.3082
 7825TIP3    H123439   3.215   5.512   2.942 -1.0068  0.4173 -0.2362
 7825TIP3    H223440   3.247   5.653   2.988  0.4894 -0.2619  0.8732
 7826TIP3   OH223441   3.482   3.202   0.099  0.2953  0.4063 -0.4610
 7826TIP3    H123442   3.492   3.229   0.008  0.2117 -1.8416 -1.2052
 7826TIP3    H223443   3.411   3.257   0.132  0.8606  1.8172 -1.4864
 7827TIP3   OH223444   6.000   1.302   4.243 -0.9488  0.1538  0.2568
 7827TIP3    H123445   6.001   1.252   4.162  2.5958  0.0251  0.2537
 7827TIP3    H223446   6.023   1.391   4.216  1.8547 -0.2090  1.1724
 7828TIP3   OH223447   1.665   6.807   5.048  0.3018 -0.2824 -0.1614
 7828TIP3    H123448   1.631   6.776   5.132  2.5474 -1.0966  0.5137
 7828TIP3    H223449   1.652   6.732   4.989 -0.4440 -0.0310 -0.3340
 7829TIP3   OH223450   1.852   0.798   3.718  0.0500 -0.1724  0.5907
 7829TIP3    H123451   1.852   0.746   3.798 -1.7592  0.7113  1.2325
 7829TIP3    H223452   1.887   0.883   3.744  0.9016 -0.3512  0.0641
 7830TIP3   OH223453   7.186   2.169   0.335 -0.1854  0.0289 -0.3383
 7830TIP3    H123454   7.101   2.211   0.345 -1.1686 -1.9466 -0.0692
 7830TIP3    H223455   7.223   2.210   0.256 -2.6031 -0.9975 -2.1436
 7831TIP3   OH223456   4.306   5.919   0.769  0.3503 -0.1160 -0.0386
 7831TIP3    H123457   4.280   5.840   0.817  0.6218 -0.6430 -0.7451
 7831TIP3    H223458   4.400   5.909   0.756  0.2351 -0.0979 -0.8986
 7832TIP3   OH223459   3.248   5.913   2.009  0.0327 -0.0812  0.3232
 7832TIP3    H123460   3.234   5.852   1.937  1.1728 -0.2593  0.2333
 7832TIP3    H223461   3.338   5.896   2.038  0.7799  2.2999 -0.3931
 7833TIP3   OH223462   2.864   3.976   5.770 -0.2749 -0.1344  0.0238
 7833TIP3    H123463   2.822   4.022   5.842  0.7425  0.8596  0.0059
 7833TIP3    H223464   2.853   4.034   5.695 -0.6433 -0.8078 -0.4561
 7834TIP3   OH223465   1.434   1.891   5.594  0.2119  0.0018 -0.0763
 7834TIP3    H123466   1.412   1.859   5.682  1.8237 -0.2446  0.2684
 7834TIP3    H223467   1.446   1.985   5.606 -0.4791  0.1160 -0.2381
 7835TIP3   OH223468   2.887   2.998   5.014 -0.3349 -0.7685  0.3581
 7835TIP3    H123469   2.976   2.981   5.046 -0.5710 -0.5391  1.1403
 7835TIP3    H223470   2.869   3.088   5.042  0.1504  0.1469 -2.0073
 7836TIP3   OH223471   0.436   5.259   2.175 -0.3123 -0.0318  0.1739
 7836TIP3    H123472   0.361   5.237   2.120 -1.5327  0.2188  1.6558
 7836TIP3    H223473   0.467   5.343   2.142 -1.9243  0.8217  0.7007
 7837TIP3   OH223474   3.604   3.038   2.309  0.7560  0.1277  0.8291
 7837TIP3    H123475   3.647   3.106   2.360  0.3308 -1.0344  2.8331
 7837TIP3    H223476   3.651   2.958   2.331  2.0357 -0.1744 -2.3894
 7838TIP3   OH223477   6.750   5.335   1.883  0.1990 -0.4973 -0.0148
 7838TIP3    H123478   6.701   5.303   1.807 -0.5284 -1.1691  0.7346
 7838TIP3    H223479   6.695   5.316   1.958  1.2578 -0.5426  0.7755
 7839TIP3   OH223480   5.416   2.948   4.378  0.2055  0.1491  0.1786
 7839TIP3    H123481   5.412   3.011   4.450  0.9477 -1.2321  1.4969
 7839TIP3    H223482   5.509   2.941   4.357  0.1024 -0.2874 -0.1507
 7840TIP3   OH223483   6.774   1.498   1.467  0.7847 -0.1472  0.2021
 7840TIP3    H123484   6.759   1.453   1.550 -0.1382 -0.9826 -0.4034
 7840TIP3    H223485   6.731   1.583   1.479 -0.2867 -0.6728  0.2158
 7841TIP3   OH223486   6.846   2.815   1.157 -0.3906  0.3653 -0.2926
 7841TIP3    H123487   6.940   2.830   1.168 -0.3775  0.6618 -0.7811
 7841TIP3    H223488   6.808   2.903   1.152 -0.8706  0.2815  1.2651
 7842TIP3   OH223489   4.307   6.730   3.309 -0.5787  0.2368 -0.4721
 7842TIP3    H123490   4.361   6.651   3.304  1.0390  1.3377 -1.3658
 7842TIP3    H223491   4.252   6.727   3.230  1.4365  1.2835 -2.0172
 7843TIP3   OH223492   1.909   5.402   2.693 -0.1097 -0.3487  0.0606
 7843TIP3    H123493   1.954   5.484   2.673 -0.0926  0.3092  2.5063
 7843TIP3    H223494   1.873   5.415   2.781  0.1655 -3.0885  0.6705
 7844TIP3   OH223495   2.847   0.448   1.394  0.2976  0.5023  0.0387
 7844TIP3    H123496   2.880   0.380   1.335 -0.5973  0.0053  0.0928
 7844TIP3    H223497   2.796   0.505   1.337 -2.2285 -1.0748  0.5871
 7845TIP3   OH223498   6.843   5.647   5.370 -0.7700  0.0011  0.3006
 7845TIP3    H123499   6.848   5.725   5.426 -1.3327  0.1076  0.2128
 7845TIP3    H223500   6.750   5.640   5.348 -0.5541 -0.0427 -0.6207
 7846TIP3   OH223501   1.159   5.769   4.951 -0.2194 -0.5599 -0.2512
 7846TIP3    H123502   1.192   5.680   4.967  0.3156 -0.8323 -2.5958
 7846TIP3    H223503   1.100   5.786   5.025  2.1550 -1.5555  2.0310
 7847TIP3   OH223504   6.254   6.640   1.049 -0.2738  0.2052 -0.3514
 7847TIP3    H123505   6.159   6.647   1.055 -0.2239  0.1115  0.6232
 7847TIP3    H223506   6.270   6.545   1.043 -0.3517  0.2920 -2.8508
 7848TIP3   OH223507   1.840   6.071   0.690 -0.7255  0.6459 -0.0828
 7848TIP3    H123508   1.931   6.087   0.715  0.3311 -1.3227 -2.2909
 7848TIP3    H223509   1.821   5.984   0.726 -0.7531 -0.1458 -1.9006
 7849TIP3   OH223510   2.966   3.616   0.225  0.3707 -0.2941  0.6464
 7849TIP3    H123511   2.967   3.571   0.309  1.4765 -0.0899  0.7576
 7849TIP3    H223512   3.027   3.690   0.237  1.0231 -0.6188 -0.5148
 7850TIP3   OH223513   3.270   2.019   5.455 -0.1977  0.3192 -0.9082
 7850TIP3    H123514   3.363   2.043   5.447 -0.0601  0.4929  0.8380
 7850TIP3    H223515   3.253   1.965   5.378  1.9030 -1.4104 -0.2687
 7851TIP3   OH223516   4.751   5.011   1.577 -0.6941 -0.1133  0.4436
 7851TIP3    H123517   4.732   5.036   1.487  0.7677 -1.1715 -0.1915
 7851TIP3    H223518   4.805   4.932   1.569 -0.0651  0.0999  2.2359
 7852TIP3   OH223519   3.730   6.185   4.373  0.1363  0.0554 -0.1674
 7852TIP3    H123520   3.673   6.254   4.340 -0.4431 -1.3472 -2.3175
 7852TIP3    H223521   3.671   6.123   4.416  0.3376 -0.2683 -0.3501
 7853TIP3   OH223522   6.913   2.396   2.693 -0.2541 -0.0101  0.3557
 7853TIP3    H123523   6.966   2.350   2.758 -1.0066 -0.0420  0.9497
 7853TIP3    H223524   6.971   2.404   2.617  0.2104 -1.0957  0.5773
 7854TIP3   OH223525   1.576   1.783   1.791  0.4200 -0.0233  0.3374
 7854TIP3    H123526   1.489   1.744   1.793  0.7459 -0.8727 -0.8552
 7854TIP3    H223527   1.592   1.801   1.698  1.3152  0.5870  0.5942
 7855TIP3   OH223528   5.184   5.636   2.014 -0.5007 -0.3946 -0.0685
 7855TIP3    H123529   5.254   5.606   2.072 -1.2811 -0.8063  0.6735
 7855TIP3    H223530   5.131   5.695   2.068 -1.2295 -0.7775 -0.3500
 7856TIP3   OH223531   4.556   0.166   2.207  0.3316 -0.5530  0.3805
 7856TIP3    H123532   4.537   0.087   2.258  1.5829 -0.3036  1.2730
 7856TIP3    H223533   4.649   0.160   2.187  0.4386  0.6760  0.4353
 7857TIP3   OH223534   1.582   2.377   2.148  0.3881  0.1919  0.3937
 7857TIP3    H123535   1.583   2.454   2.204  2.0512 -1.3871  2.7514
 7857TIP3    H223536   1.496   2.338   2.164  0.2472  0.5911  0.6452
 7858TIP3   OH223537   0.135   6.063   2.812  0.6093 -0.2611 -0.4380
 7858TIP3    H123538   0.084   6.133   2.852  1.9235  1.6525 -1.9160
 7858TIP3    H223539   0.138   6.085   2.719  1.7334 -1.8629 -0.8458
 7859TIP3   OH223540   6.312   3.312   4.696 -0.0223 -0.2746 -0.1952
 7859TIP3    H123541   6.266   3.361   4.627  2.0091  0.2971 -1.2179
 7859TIP3    H223542   6.380   3.264   4.649  0.6298 -0.8501  1.2995
 7860TIP3   OH223543   3.372   5.446   3.720 -0.0265 -0.6532  0.8147
 7860TIP3    H123544   3.292   5.457   3.668  0.4935 -1.8596 -0.2950
 7860TIP3    H223545   3.431   5.514   3.686  1.2208 -2.9554 -2.1257
 7861TIP3   OH223546   1.623   0.983   0.274  0.3756 -0.1435  0.1426
 7861TIP3    H123547   1.653   0.898   0.243  0.0842 -0.3861  0.5161
 7861TIP3    H223548   1.644   1.043   0.203 -0.8897 -0.7955 -0.8182
 7862TIP3   OH223549   1.380   4.140   1.213 -0.5334  0.7730 -0.4438
 7862TIP3    H123550   1.310   4.096   1.261  0.0575  1.8014  1.4320
 7862TIP3    H223551   1.441   4.070   1.191 -1.6023  0.0360 -1.1803
 7863TIP3   OH223552   4.077   3.569   0.553 -0.2143 -0.0842 -0.0062
 7863TIP3    H123553   4.000   3.536   0.598  0.1260  1.6595  2.0024
 7863TIP3    H223554   4.092   3.656   0.590  1.7585  0.3035 -1.5113
 7864TIP3   OH223555   2.342   5.088   4.988 -0.8646 -0.4469 -0.0615
 7864TIP3    H123556   2.314   5.133   5.068  1.3872 -0.5890  0.8944
 7864TIP3    H223557   2.414   5.141   4.955  1.0559 -2.5975  0.4273
 7865TIP3   OH223558   3.455   4.081   3.403  0.0888 -0.1417 -0.3289
 7865TIP3    H123559   3.443   4.077   3.498 -1.7858 -0.1210 -0.5374
 7865TIP3    H223560   3.427   3.995   3.372  1.7075 -0.5403 -0.8038
 7866TIP3   OH223561   3.274   3.671   5.127  0.5467 -0.3113  0.7334
 7866TIP3    H123562   3.207   3.639   5.066 -1.7764  2.2183  1.7224
 7866TIP3    H223563   3.313   3.592   5.164 -0.0324 -1.9021 -1.7913
 7867TIP3   OH223564   0.814   6.557   0.787  0.0667  0.3726 -0.0299
 7867TIP3    H123565   0.893   6.508   0.769  0.4170  0.7953  0.3438
 7867TIP3    H223566   0.773   6.570   0.701  0.4269  0.1971 -0.2259
 7868TIP3   OH223567   3.854   2.016   4.474 -0.4032 -0.1207  0.5238
 7868TIP3    H123568   3.928   2.006   4.414 -0.7601 -1.1579  0.2378
 7868TIP3    H223569   3.836   2.110   4.474 -0.0716 -0.0427 -0.5980
 7869TIP3   OH223570   6.054   1.646   2.527  0.0438 -0.3143 -0.3508
 7869TIP3    H123571   5.964   1.626   2.501 -0.6906  1.0077  1.0232
 7869TIP3    H223572   6.056   1.741   2.536  1.0946 -0.4617  1.3544
 7870TIP3   OH223573   5.101   6.135   4.477 -0.0558  0.3468 -0.4366
 7870TIP3    H123574   5.007   6.116   4.486  0.1062 -0.1063  0.3183
 7870TIP3    H223575   5.112   6.222   4.515 -0.1443  0.3480 -0.4138
 7871TIP3   OH223576   4.515   4.622   3.728  0.1347 -0.2690  0.0471
 7871TIP3    H123577   4.442   4.565   3.704  0.3337 -0.5176  0.0259
 7871TIP3    H223578   4.477   4.688   3.786 -0.4544  0.5983 -1.2723
 7872TIP3   OH223579   0.247   3.425   0.723  0.3738  0.6425 -0.6721
 7872TIP3    H123580   0.300   3.402   0.799 -0.5338  2.9523  0.8044
 7872TIP3    H223581   0.162   3.450   0.760 -1.1103 -0.9907 -2.7628
 7873TIP3   OH223582   6.073   0.520   1.409 -0.1296 -0.2057  0.4078
 7873TIP3    H123583   5.992   0.479   1.438 -0.0066 -0.3011  0.6193
 7873TIP3    H223584   6.111   0.456   1.349 -1.0440  0.5597 -1.0351
 7874TIP3   OH223585   1.873   2.051   2.264 -0.2312 -0.0163  0.3071
 7874TIP3    H123586   1.845   2.018   2.350 -0.1291  0.2570  0.4437
 7874TIP3    H223587   1.896   2.142   2.279  2.6141 -0.6895  0.6356
 7875TIP3   OH223588   7.126   3.559   1.564 -0.3691  0.7784 -0.1015
 7875TIP3    H123589   7.066   3.590   1.496 -2.0579 -0.5728  0.6732
 7875TIP3    H223590   7.205   3.534   1.517 -0.5043  2.2949 -1.2160
 7876TIP3   OH223591   6.068   4.978   4.750 -0.3008  0.2725  0.1387
 7876TIP3    H123592   6.147   4.998   4.699  0.3955 -1.6717  0.3526
 7876TIP3    H223593   6.062   5.049   4.814  0.0701  1.5675 -1.2170
 7877TIP3   OH223594   4.295   2.857   3.275  0.2019 -0.3974  0.4561
 7877TIP3    H123595   4.261   2.794   3.338  0.4496 -0.6476  0.3426
 7877TIP3    H223596   4.333   2.804   3.205 -1.1782 -0.1459 -0.5359
 7878TIP3   OH223597   1.716   2.633   4.397 -0.0340  0.2702 -0.5784
 7878TIP3    H123598   1.732   2.573   4.470  2.4447  0.3582 -0.9471
 7878TIP3    H223599   1.801   2.677   4.383 -0.8502  1.3700 -2.5104
 7879TIP3   OH223600   0.831   1.948   3.409  0.2476  0.3328  0.3233
 7879TIP3    H123601   0.789   1.922   3.327  0.0848 -2.1741  1.1302
 7879TIP3    H223602   0.922   1.922   3.398  0.4197  0.8010  0.6302
 7880TIP3   OH223603   5.581   1.677   2.100  0.0712  0.1294 -0.1198
 7880TIP3    H123604   5.665   1.714   2.073 -0.1653  1.1773  0.5052
 7880TIP3    H223605   5.585   1.585   2.074  1.7501 -0.0428  0.6512
 7881TIP3   OH223606   6.811   4.716   3.810 -0.7702  0.2704 -0.4375
 7881TIP3    H123607   6.830   4.647   3.747 -1.7730 -1.3799  0.9807
 7881TIP3    H223608   6.725   4.694   3.845 -0.5201  1.4762  1.0741
 7882TIP3   OH223609   5.697   2.833   2.969  0.1379 -0.1590  0.0118
 7882TIP3    H123610   5.734   2.921   2.978  0.1526 -0.0189 -1.3145
 7882TIP3    H223611   5.604   2.848   2.954 -0.6846 -0.5166  3.7785
 7883TIP3   OH223612   6.006   3.509   1.435 -0.9949 -0.1086  0.1596
 7883TIP3    H123613   6.056   3.506   1.517 -1.1386  0.5463  0.2755
 7883TIP3    H223614   5.915   3.504   1.462 -1.1446  2.2126  0.2057
 7884TIP3   OH223615   3.617   0.499   4.312  0.3690 -0.0451 -0.6340
 7884TIP3    H123616   3.609   0.448   4.232  0.9429 -0.4263 -0.4507
 7884TIP3    H223617   3.528   0.531   4.329  0.5141  1.5095 -2.3736
 7885TIP3   OH223618   6.172   6.027   0.805  0.6958 -0.0031  0.2667
 7885TIP3    H123619   6.245   5.973   0.836  0.4935  0.7236  2.1372
 7885TIP3    H223620   6.212   6.112   0.785  0.5090  0.1154  0.3984
 7886TIP3   OH223621   1.829   3.851   5.557 -0.7088  0.7697  0.1435
 7886TIP3    H123622   1.804   3.874   5.468 -0.2873 -0.2710 -0.2616
 7886TIP3    H223623   1.924   3.837   5.552 -0.7999 -0.0669  0.5737
 7887TIP3   OH223624   5.429   4.488   0.603 -0.1786  0.0305 -0.1091
 7887TIP3    H123625   5.507   4.505   0.656  0.4912  1.1360 -1.3939
 7887TIP3    H223626   5.464   4.453   0.521 -1.2100 -1.8906  0.2137
 7888TIP3   OH223627   2.134   2.915   3.417  0.2425  0.3709 -0.1177
 7888TIP3    H123628   2.143   2.887   3.508 -0.4167 -0.5102 -0.3101
 7888TIP3    H223629   2.075   2.850   3.378  2.6616 -0.9016 -1.8833
 7889TIP3   OH223630   4.910   2.428   5.012  0.9977 -0.3326 -0.4904
 7889TIP3    H123631   4.907   2.332   5.009  1.9325 -0.3418 -1.8990
 7889TIP3    H223632   4.959   2.453   4.934  1.2077  1.2821  0.1240
 7890TIP3   OH223633   1.814   4.670   4.172  0.1475  0.1001  0.1825
 7890TIP3    H123634   1.720   4.674   4.189  0.1486  2.4401  0.0392
 7890TIP3    H223635   1.821   4.676   4.077  0.4346 -0.9658  0.1286
 7891TIP3   OH223636   6.291   5.397   1.977 -0.0089  0.2347  0.1425
 7891TIP3    H123637   6.237   5.475   1.965 -0.1461  0.1074 -0.0902
 7891TIP3    H223638   6.227   5.328   1.997 -0.2559 -0.5374 -2.8853
 7892TIP3   OH223639   6.088   0.726   5.656  0.0232  0.3817  0.2790
 7892TIP3    H123640   6.127   0.638   5.646  2.0476  1.0858  1.4266
 7892TIP3    H223641   6.112   0.771   5.575 -0.4755  0.0841 -0.0395
 7893TIP3   OH223642   2.560   2.790   1.757  0.4593 -0.1361  0.0643
 7893TIP3    H123643   2.508   2.768   1.680  1.3651 -0.5232 -0.4611
 7893TIP3    H223644   2.503   2.771   1.831 -0.6423  0.7984 -0.5082
 7894TIP3   OH223645   4.627   0.890   3.063  0.2274 -0.2325  0.4016
 7894TIP3    H123646   4.710   0.845   3.049 -0.2973 -1.7194  1.6620
 7894TIP3    H223647   4.571   0.824   3.105 -0.5550  1.6210  2.5161
 7895TIP3   OH223648   4.354   0.865   2.408 -0.4850 -0.7672  0.1454
 7895TIP3    H123649   4.382   0.816   2.485 -1.6468 -2.4207 -0.4313
 7895TIP3    H223650   4.302   0.938   2.443  0.9890 -0.0856  0.9994
 7896TIP3   OH223651   6.246   3.437   5.099 -0.7135 -0.3432  0.3453
 7896TIP3    H123652   6.301   3.469   5.171 -0.5086  0.3069 -0.0908
 7896TIP3    H223653   6.162   3.416   5.141 -0.6567  0.2066  0.7494
 7897TIP3   OH223654   1.067   4.507   1.242 -0.0921 -0.1497  0.0651
 7897TIP3    H123655   1.120   4.493   1.321 -1.6713 -0.1791  1.1641
 7897TIP3    H223656   1.024   4.591   1.257 -0.7002 -0.3357 -0.5865
 7898TIP3   OH223657   4.475   1.925   1.282  0.5362  0.1710 -0.0328
 7898TIP3    H123658   4.476   1.885   1.195 -1.6603  0.4154 -0.2277
 7898TIP3    H223659   4.420   1.866   1.334  1.7728  0.0550  1.2094
 7899TIP3   OH223660   2.443   1.977   3.840  0.4333  0.1328 -0.3493
 7899TIP3    H123661   2.395   2.058   3.854  0.4308 -0.0157  0.5234
 7899TIP3    H223662   2.476   1.952   3.926 -1.1313 -1.7811 -0.2225
 7900TIP3   OH223663   5.365   3.689   3.168 -0.4831 -0.2343 -0.1099
 7900TIP3    H123664   5.321   3.723   3.090 -0.9594  3.8993  1.7221
 7900TIP3    H223665   5.302   3.630   3.208 -2.3203  1.5150 -0.3009
 7901TIP3   OH223666   2.855   4.867   0.636 -0.4024  0.1679  0.0097
 7901TIP3    H123667   2.808   4.942   0.601  0.5626  0.2427 -1.1820
 7901TIP3    H223668   2.923   4.904   0.692 -1.9884  0.0485  2.1757
 7902TIP3   OH223669   0.960   0.563   0.881  0.0456 -0.6152  0.1840
 7902TIP3    H123670   0.974   0.657   0.885 -1.7967 -0.3450  2.0262
 7902TIP3    H223671   0.908   0.543   0.959 -1.6649 -2.7547 -1.3693
 7903TIP3   OH223672   1.545   1.097   1.563  0.1618  0.4286  0.1768
 7903TIP3    H123673   1.535   1.155   1.487  0.2237  1.1709  0.7247
 7903TIP3    H223674   1.623   1.130   1.608  1.0670 -0.9976 -0.2903
 7904TIP3   OH223675   4.722   2.521   0.672  0.1875  0.0272 -0.3640
 7904TIP3    H123676   4.813   2.544   0.688  0.0574 -0.5765  1.6025
 7904TIP3    H223677   4.725   2.428   0.648  0.0768 -0.0928  0.0744
 7905TIP3   OH223678   4.131   1.317   4.008 -0.0192 -0.1430  0.4738
 7905TIP3    H123679   4.152   1.406   3.980  0.7751 -0.3376  0.4288
 7905TIP3    H223680   4.061   1.289   3.949 -0.1545  0.3882  0.3768
 7906TIP3   OH223681   0.377   5.768   1.138 -0.3240 -0.5422 -0.3209
 7906TIP3    H123682   0.432   5.831   1.091 -1.2561  1.1516  0.7602
 7906TIP3    H223683   0.337   5.818   1.209 -0.0828 -2.6877  1.4423
 7907TIP3   OH223684   2.879   5.191   5.171 -0.4730 -0.0427 -0.4346
 7907TIP3    H123685   2.857   5.266   5.227 -0.2041 -0.8123  0.7251
 7907TIP3    H223686   2.970   5.206   5.146  0.0797 -0.7053  1.0361
 7908TIP3   OH223687   6.484   0.602   0.709 -0.3499  0.2145  0.0482
 7908TIP3    H123688   6.460   0.569   0.622  1.0797  1.2572 -0.7812
 7908TIP3    H223689   6.562   0.655   0.694 -0.7945  1.4509  1.7864
 7909TIP3   OH223690   2.254   3.756   1.177 -0.4261 -0.0751 -0.1601
 7909TIP3    H123691   2.300   3.761   1.261 -0.5061  1.1890 -0.1735
 7909TIP3    H223692   2.204   3.674   1.182  0.6030 -0.6883  0.4763
 7910TIP3   OH223693   1.369   6.379   4.295  0.6722  0.2417  1.0986
 7910TIP3    H123694   1.421   6.299   4.287  1.4311  0.3921  3.6694
 7910TIP3    H223695   1.314   6.364   4.372 -3.7427 -0.1643 -1.8184
 7911TIP3   OH223696   6.735   5.795   4.342 -0.5822  0.0264  0.3994
 7911TIP3    H123697   6.674   5.731   4.379  0.5189 -0.2707  1.7623
 7911TIP3    H223698   6.815   5.785   4.393  0.4388  0.8099 -0.9756
 7912TIP3   OH223699   6.369   3.782   0.115 -0.0371  0.5944 -0.2359
 7912TIP3    H123700   6.328   3.720   0.175  0.9804 -0.2062 -0.3467
 7912TIP3    H223701   6.360   3.867   0.159 -0.0997  0.1507  0.6346
 7913TIP3   OH223702   4.095   6.413   4.347 -0.2593  0.3731 -0.2324
 7913TIP3    H123703   4.093   6.332   4.397 -0.5447 -0.0387 -0.8947
 7913TIP3    H223704   4.011   6.455   4.365 -0.1206  0.5139  0.0920
 7914TIP3   OH223705   0.324   1.854   2.259 -0.0931  0.1852  0.4172
 7914TIP3    H123706   0.331   1.841   2.354 -0.6098  0.9544  0.5695
 7914TIP3    H223707   0.313   1.766   2.224 -1.3554  0.0003  1.2146
 7915TIP3   OH223708   5.167   4.684   0.591  0.0368  0.1603 -0.1073
 7915TIP3    H123709   5.221   4.758   0.619  1.6606 -0.1628 -2.1326
 7915TIP3    H223710   5.227   4.627   0.545 -1.4349 -1.8836  0.3836
 7916TIP3   OH223711   6.438   3.329   4.937  0.1260 -0.1319  0.3901
 7916TIP3    H123712   6.366   3.347   4.997 -0.9464  0.2893 -0.9727
 7916TIP3    H223713   6.396   3.317   4.852  1.7354  0.9593 -0.6072
 7917TIP3   OH223714   5.630   2.655   5.658 -0.5375 -0.2480  0.1455
 7917TIP3    H123715   5.620   2.569   5.700 -0.8673 -0.9062 -1.2387
 7917TIP3    H223716   5.559   2.708   5.696  1.5264  0.4780  3.4028
 7918TIP3   OH223717   1.789   0.138   0.588  0.0875  0.3419  0.0481
 7918TIP3    H123718   1.847   0.174   0.655  0.6573 -0.3765 -0.0441
 7918TIP3    H223719   1.748   0.063   0.629 -1.3012  1.2172  0.3290
 7919TIP3   OH223720   1.191   2.530   4.946 -0.3638  0.1389 -0.1871
 7919TIP3    H123721   1.211   2.478   5.023  0.4354  0.6390 -0.0390
 7919TIP3    H223722   1.195   2.621   4.977  1.2618  0.4143 -1.0677
 7920TIP3   OH223723   5.763   5.930   1.053 -1.1043 -0.3984 -0.1289
 7920TIP3    H123724   5.692   5.967   1.002 -0.1148  0.1722 -1.1394
 7920TIP3    H223725   5.841   5.978   1.025 -0.4187 -0.5227  1.4463
 7921TIP3   OH223726   0.283   5.946   4.288  0.0497  0.1552 -0.2032
 7921TIP3    H123727   0.224   6.000   4.235  1.0567  1.2069 -0.2891
 7921TIP3    H223728   0.254   5.960   4.378  0.8789  1.6339 -0.1300
 7922TIP3   OH223729   2.904   1.276   4.705  0.0802 -0.0065 -0.3124
 7922TIP3    H123730   2.985   1.310   4.666 -0.4894  0.4208 -1.1370
 7922TIP3    H223731   2.897   1.186   4.672 -0.1601  0.2013 -0.8352
 7923TIP3   OH223732   2.537   1.152   2.732 -0.5620 -0.5754 -0.2465
 7923TIP3    H123733   2.582   1.070   2.712 -0.0711 -0.4790  0.4078
 7923TIP3    H223734   2.548   1.205   2.652  1.7990 -0.0011  0.3673
 7924TIP3   OH223735   2.369   0.650   0.722 -0.3896 -0.7903  0.3368
 7924TIP3    H123736   2.402   0.570   0.682  0.8219 -0.0486 -0.2248
 7924TIP3    H223737   2.277   0.654   0.696 -0.3667 -1.8019  0.0639
 7925TIP3   OH223738   6.843   2.960   2.207 -0.5065 -0.0403  0.5412
 7925TIP3    H123739   6.900   3.035   2.191 -0.9978  0.4449  1.0164
 7925TIP3    H223740   6.886   2.887   2.163  1.2600 -0.0110  2.1045
 7926TIP3   OH223741   6.843   3.510   5.062 -0.2864  0.2525  0.3737
 7926TIP3    H123742   6.884   3.597   5.067  0.2162  0.0056  0.6068
 7926TIP3    H223743   6.864   3.469   5.146  2.1877 -1.2852 -0.8880
 7927TIP3   OH223744   6.700   5.711   4.780  0.1390  0.2366  0.2875
 7927TIP3    H123745   6.743   5.676   4.858  0.0546 -0.6661 -0.0622
 7927TIP3    H223746   6.648   5.638   4.746 -0.4977  0.8718 -0.1357
 7928TIP3   OH223747   0.660   3.337   1.743  0.0446 -0.0066  0.1055
 7928TIP3    H123748   0.706   3.415   1.776 -0.3263  0.1158  0.3317
 7928TIP3    H223749   0.602   3.312   1.815  0.5051 -0.7750  0.2201
 7929TIP3   OH223750   6.610   5.445   1.259  1.2227  0.2113 -0.4071
 7929TIP3    H123751   6.695   5.457   1.217  0.7963 -0.6761 -1.6142
 7929TIP3    H223752   6.547   5.484   1.197  0.8560  2.5482  1.3246
 7930TIP3   OH223753   1.256   0.969   2.196 -0.0169  0.0472  0.0379
 7930TIP3    H123754   1.194   1.028   2.239  1.3425  1.8412 -0.3305
 7930TIP3    H223755   1.341   0.993   2.233  0.7028 -1.0545 -0.8289
 7931TIP3   OH223756   4.344   6.450   5.835 -0.5345 -0.1996  0.1134
 7931TIP3    H123757   4.272   6.463   5.773  0.7119 -1.0765 -1.6203
 7931TIP3    H223758   4.359   6.355   5.834  1.5071  0.0711 -0.6845
 7932TIP3   OH223759   4.329   5.460   4.884 -0.3170  0.3927 -0.5482
 7932TIP3    H123760   4.251   5.405   4.879 -0.6632  0.8938 -0.6843
 7932TIP3    H223761   4.328   5.511   4.803  0.2907  0.2279 -0.6715
 7933TIP3   OH223762   4.989   0.718   0.515 -0.1854 -0.2042 -0.2553
 7933TIP3    H123763   4.931   0.707   0.590 -0.1065 -0.2715 -0.2035
 7933TIP3    H223764   5.053   0.784   0.544 -1.5537  1.5656 -1.0991
 7934TIP3   OH223765   0.174   4.564   1.320 -0.1225 -0.1910  0.6004
 7934TIP3    H123766   0.239   4.545   1.253 -2.0378 -2.0592 -0.8814
 7934TIP3    H223767   0.171   4.659   1.325  0.9022 -0.0359 -1.1177
 7935TIP3   OH223768   1.964   4.779   1.923 -0.1703 -0.3534  0.2855
 7935TIP3    H123769   1.897   4.811   1.984  0.0476 -0.5065  0.6034
 7935TIP3    H223770   2.045   4.782   1.973 -0.0204 -0.6539  0.0572
 7936TIP3   OH223771   0.602   5.839   5.308  0.1066  0.6439  0.5330
 7936TIP3    H123772   0.520   5.821   5.354 -1.6067 -0.1840 -2.5852
 7936TIP3    H223773   0.661   5.871   5.377 -2.3563 -0.0015  3.1540
 7937TIP3   OH223774   1.893   1.542   4.653  0.1026 -0.1443  0.4087
 7937TIP3    H123775   1.941   1.463   4.677  2.0776  0.9676  0.3623
 7937TIP3    H223776   1.859   1.576   4.735  0.7495 -0.1304  0.6765
 7938TIP3   OH223777   3.463   2.075   4.420 -0.0687 -0.0972  0.7289
 7938TIP3    H123778   3.429   2.134   4.353  1.2191  1.1681  1.1205
 7938TIP3    H223779   3.512   2.009   4.372  0.9179  0.8499  0.3887
 7939TIP3   OH223780   4.949   6.135   1.147  0.4570 -0.4456  0.0319
 7939TIP3    H123781   4.885   6.064   1.138  0.5892 -0.4573 -0.9124
 7939TIP3    H223782   4.900   6.208   1.183 -0.1358 -0.3954 -0.8574
 7940TIP3   OH223783   5.854   6.207   2.684 -0.4253  0.2139 -0.2411
 7940TIP3    H123784   5.835   6.190   2.592 -0.0123  1.4565 -0.5701
 7940TIP3    H223785   5.950   6.212   2.688 -0.4728  0.8250  0.1355
 7941TIP3   OH223786   3.124   2.402   2.044 -0.0053 -0.3899 -0.0351
 7941TIP3    H123787   3.202   2.347   2.036 -0.4136 -0.8977 -0.6070
 7941TIP3    H223788   3.058   2.343   2.080  0.1438  0.3034  1.4763
 7942TIP3   OH223789   5.538   6.109   2.011 -0.3465 -0.5310  0.2289
 7942TIP3    H123790   5.444   6.121   2.026 -0.1301  1.2700  0.3544
 7942TIP3    H223791   5.546   6.020   1.977 -2.1959 -0.4318 -0.5707
 7943TIP3   OH223792   1.345   0.738   4.497  0.0716  0.1558  0.3591
 7943TIP3    H123793   1.257   0.752   4.462  0.1177 -0.8958 -0.2339
 7943TIP3    H223794   1.331   0.693   4.580  0.0523 -2.6369 -1.0371
 7944TIP3   OH223795   6.554   1.436   1.063  0.1727 -0.1626 -0.4126
 7944TIP3    H123796   6.466   1.434   1.100  0.7574 -0.8448  1.0202
 7944TIP3    H223797   6.609   1.396   1.131  1.8296  1.6452 -0.6092
 7945TIP3   OH223798   3.479   2.172   4.701 -0.2017  0.4080  0.3169
 7945TIP3    H123799   3.547   2.109   4.724 -3.1665 -2.7258  1.3548
 7945TIP3    H223800   3.475   2.170   4.606  0.3156 -0.3342  0.3045
 7946TIP3   OH223801   5.037   6.071   0.016  0.0668 -0.2339  0.1370
 7946TIP3    H123802   5.126   6.103   0.003  0.2559 -0.5218  0.6974
 7946TIP3    H223803   5.044   5.976   0.008 -0.1261 -0.2841  0.5463
 7947TIP3   OH223804   1.207   5.788   5.512 -0.0911 -0.1886 -0.4312
 7947TIP3    H123805   1.190   5.707   5.464 -0.0723 -0.5835  0.2287
 7947TIP3    H223806   1.252   5.760   5.592 -0.2809  0.4505 -0.0969
 7948TIP3   OH223807   3.804   5.400   0.483  0.3965 -0.4283 -0.1195
 7948TIP3    H123808   3.864   5.331   0.510 -0.1997 -0.6233  0.7268
 7948TIP3    H223809   3.778   5.376   0.394  1.0938 -0.6614 -0.2661
 7949TIP3   OH223810   2.183   3.749   2.575  0.2991  0.0386  0.2411
 7949TIP3    H123811   2.202   3.701   2.494 -0.3419 -0.4946  0.4018
 7949TIP3    H223812   2.258   3.731   2.632  0.3206 -0.3243  0.0998
 7950TIP3   OH223813   4.167   2.171   5.091 -0.1629 -0.3610 -0.0236
 7950TIP3    H123814   4.213   2.088   5.075 -1.9911 -1.4505  0.0883
 7950TIP3    H223815   4.090   2.147   5.142 -1.2101  1.2870 -0.7300
 7951TIP3   OH223816   0.343   0.830   2.002  0.3906  0.0892 -0.4928
 7951TIP3    H123817   0.399   0.892   2.050  1.0839 -0.1259 -1.0087
 7951TIP3    H223818   0.260   0.876   1.991  0.7690  0.7771 -0.5208
 7952TIP3   OH223819   2.849   0.175   1.812 -0.4232 -0.3669  0.5271
 7952TIP3    H123820   2.791   0.241   1.775 -1.0084 -0.0927  1.8746
 7952TIP3    H223821   2.808   0.150   1.894 -0.3879 -2.6616 -0.0783
 7953TIP3   OH223822   5.608   2.182   1.195  0.1299 -0.4377 -0.7315
 7953TIP3    H123823   5.657   2.106   1.164 -0.1192 -0.7283 -0.4179
 7953TIP3    H223824   5.577   2.157   1.282 -0.6077 -0.2664 -0.9452
 7954TIP3   OH223825   1.015   4.536   5.430 -0.6168  0.2118 -0.0504
 7954TIP3    H123826   0.965   4.615   5.409 -0.2633 -0.1971 -2.7727
 7954TIP3    H223827   0.974   4.467   5.377  0.0880 -1.1012  1.0419
 7955TIP3   OH223828   0.062   6.211   5.174 -0.4971 -0.0858  0.4540
 7955TIP3    H123829   0.048   6.220   5.080  0.4588  2.7202  0.4708
 7955TIP3    H223830  -0.024   6.187   5.209 -0.9957 -0.6274 -1.0607
 7956TIP3   OH223831   2.406   3.920   3.494  0.1321 -0.2091  0.4075
 7956TIP3    H123832   2.451   3.900   3.412 -0.8899  0.6391 -0.3809
 7956TIP3    H223833   2.459   3.876   3.561  1.1464 -0.6776 -0.6587
 7957TIP3   OH223834   5.739   4.433   2.396 -0.2538  0.0062  0.0443
 7957TIP3    H123835   5.711   4.342   2.387 -1.1538  0.4628 -2.8566
 7957TIP3    H223836   5.662   4.478   2.431 -0.0788 -0.1954  0.7028
 7958TIP3   OH223837   5.300   1.720   2.067  0.3568  0.1570  0.5615
 7958TIP3    H123838   5.394   1.712   2.082  0.7936  1.2090 -1.3613
 7958TIP3    H223839   5.283   1.814   2.071 -1.0867 -0.1295  3.1889
 7959TIP3   OH223840   5.824   2.868   0.276 -0.0256 -0.3253 -0.4115
 7959TIP3    H123841   5.752   2.806   0.264  0.1386 -0.9481  1.5146
 7959TIP3    H223842   5.782   2.947   0.309  0.1389 -0.6765  0.6778
 7960TIP3   OH223843   7.103   1.359   5.530 -0.0333 -0.0181 -0.5339
 7960TIP3    H123844   7.160   1.386   5.458  1.5237 -2.4197 -0.3280
 7960TIP3    H223845   7.132   1.411   5.605  0.4839  0.2550 -0.9178
 7961TIP3   OH223846   1.157   5.319   5.848 -0.7397 -0.1898  0.0974
 7961TIP3    H123847   1.117   5.399   5.814 -0.0286  0.6290  1.1383
 7961TIP3    H223848   1.208   5.285   5.775  0.4936  1.3599  0.1782
 7962TIP3   OH223849   4.400   1.521   2.404 -0.3718  0.1383  0.2225
 7962TIP3    H123850   4.326   1.503   2.347  0.6979 -2.0812 -0.5714
 7962TIP3    H223851   4.432   1.607   2.374 -1.8900  0.6126 -0.1623
 7963TIP3   OH223852   1.193   4.651   4.552 -0.0613  0.3147  0.1094
 7963TIP3    H123853   1.178   4.581   4.615  0.8780 -1.1708 -1.2451
 7963TIP3    H223854   1.151   4.621   4.472  0.4234  1.2596 -0.5241
 7964TIP3   OH223855   6.240   5.914   0.330  0.2327  0.4257  0.3168
 7964TIP3    H123856   6.298   5.981   0.366 -0.2517  0.6862  0.6210
 7964TIP3    H223857   6.290   5.833   0.336  0.8700  0.7752 -0.1607
 7965TIP3   OH223858   1.657   5.962   4.814  0.4361 -0.7516 -0.0195
 7965TIP3    H123859   1.569   5.985   4.844 -0.0543  1.0294 -2.4885
 7965TIP3    H223860   1.647   5.874   4.778 -0.7094 -0.0941 -1.4310
 7966TIP3   OH223861   6.099   4.490   3.828  0.0027  0.0878 -0.2492
 7966TIP3    H123862   6.048   4.494   3.908 -1.7840  0.3968 -1.3473
 7966TIP3    H223863   6.083   4.402   3.793  0.6993 -0.0163 -0.3256
 7967TIP3   OH223864   3.811   0.592   0.051 -0.3029  0.0490 -0.2575
 7967TIP3    H123865   3.735   0.533   0.050 -0.9035  0.5805  2.7475
 7967TIP3    H223866   3.790   0.656   0.119  2.1968  1.1480 -0.4209
 7968TIP3   OH223867   6.256   6.386   1.443 -0.3383  0.2734 -0.1469
 7968TIP3    H123868   6.319   6.405   1.512 -1.5926  0.5858  0.9447
 7968TIP3    H223869   6.216   6.470   1.423 -2.2702 -0.2997  1.0629
 7969TIP3   OH223870   2.551   0.387   2.439 -0.3888 -0.2790  0.7036
 7969TIP3    H123871   2.459   0.405   2.458 -0.8897 -0.5664 -1.2783
 7969TIP3    H223872   2.550   0.341   2.355  1.5971  0.1771  0.3762
 7970TIP3   OH223873   0.406   0.376   3.166 -0.1413  0.8726 -0.1348
 7970TIP3    H123874   0.450   0.339   3.242  1.4461  1.2573 -0.8301
 7970TIP3    H223875   0.476   0.412   3.112 -1.2510  0.9265 -1.6228
 7971TIP3   OH223876   6.359   6.319   2.107  0.4151 -0.0731  0.3556
 7971TIP3    H123877   6.354   6.226   2.130 -1.9253 -0.4619 -1.3476
 7971TIP3    H223878   6.330   6.365   2.187 -0.3004 -0.9268  0.6053
 7972TIP3   OH223879   5.860   5.916   5.305  0.6748  0.1209  0.1739
 7972TIP3    H123880   5.894   5.943   5.219  1.5946 -1.2308  0.0767
 7972TIP3    H223881   5.903   5.975   5.367 -1.3000  2.2570 -0.3681
 7973TIP3   OH223882   6.764   0.364   1.239 -0.2266  0.4010 -0.1635
 7973TIP3    H123883   6.695   0.423   1.211 -1.1658 -0.6976 -0.2273
 7973TIP3    H223884   6.731   0.276   1.217  0.5690 -0.2399  1.1035
 7974TIP3   OH223885   6.782   6.085   1.697 -0.8825  0.5657 -0.1433
 7974TIP3    H123886   6.815   6.070   1.608 -0.1207  2.4060 -0.1971
 7974TIP3    H223887   6.736   6.168   1.692 -0.2826  1.0088  1.3299
 7975TIP3   OH223888   6.781   4.320   3.750 -0.5777  0.0870 -0.2900
 7975TIP3    H123889   6.812   4.347   3.836 -2.0541  1.9053 -0.2793
 7975TIP3    H223890   6.789   4.398   3.695 -2.6676 -0.0718 -0.9267
 7976TIP3   OH223891   4.335   6.503   5.334 -0.0273  0.0399  0.1008
 7976TIP3    H123892   4.294   6.441   5.395 -1.5957 -0.3180 -1.2240
 7976TIP3    H223893   4.307   6.589   5.364  1.7878  0.1434  1.6832
 7977TIP3   OH223894   4.466   1.898   2.638  0.9883 -0.0643  0.5031
 7977TIP3    H123895   4.546   1.860   2.675  0.0023 -0.9732  1.8018
 7977TIP3    H223896   4.497   1.956   2.568  2.7618 -0.5098  0.8676
 7978TIP3   OH223897   2.976   5.666   2.079  0.5102 -0.6308  0.1770
 7978TIP3    H123898   2.893   5.669   2.128  0.1492  0.3359 -0.4459
 7978TIP3    H223899   2.955   5.707   1.995  1.9998  1.2331  0.6293
 7979TIP3   OH223900   0.307   1.468   1.169  0.5153  0.2594 -0.0810
 7979TIP3    H123901   0.309   1.431   1.081  0.8284  2.2948 -1.0056
 7979TIP3    H223902   0.397   1.457   1.201  0.3964 -0.5092 -0.0005
 7980TIP3   OH223903   6.280   3.859   1.221 -0.9871 -0.6819 -0.3040
 7980TIP3    H123904   6.302   3.821   1.307 -1.4692 -1.4446 -0.5030
 7980TIP3    H223905   6.280   3.953   1.236 -1.6030 -0.8188  0.6766
 7981TIP3   OH223906   4.861   0.879   1.759  0.4047 -0.1523  0.0885
 7981TIP3    H123907   4.832   0.963   1.795  1.0175  0.3092 -0.4657
 7981TIP3    H223908   4.813   0.813   1.809  1.5139  0.4301  1.9886
 7982TIP3   OH223909   5.826   1.770   3.088 -0.6408  0.4957 -0.5231
 7982TIP3    H123910   5.733   1.761   3.109 -0.6469  0.9017 -0.3733
 7982TIP3    H223911   5.863   1.817   3.163 -0.0710 -0.7852  0.0363
 7983TIP3   OH223912   6.242   2.659   0.160  0.3802  0.5531 -0.3328
 7983TIP3    H123913   6.149   2.678   0.153  0.0031 -0.0707  2.0453
 7983TIP3    H223914   6.285   2.744   0.148 -0.2499  0.5769 -3.4399
 7984TIP3   OH223915   2.716   5.619   5.485 -0.0362  0.5193 -0.8561
 7984TIP3    H123916   2.742   5.572   5.565 -1.0937 -1.8589 -1.8198
 7984TIP3    H223917   2.628   5.652   5.504 -0.5918 -0.6843 -1.2493
 7985TIP3   OH223918   4.812   0.237   1.877 -0.2593  0.1830 -0.2778
 7985TIP3    H123919   4.752   0.266   1.809  0.8014  0.0818 -1.2815
 7985TIP3    H223920   4.896   0.225   1.832  0.5817  0.5589  1.1252
 7986TIP3   OH223921   5.478   3.722   5.520  0.0137  0.6268 -0.0594
 7986TIP3    H123922   5.433   3.656   5.467  0.9269  0.9624 -1.3075
 7986TIP3    H223923   5.473   3.802   5.468  3.1710  0.3793 -0.9754
 7987TIP3   OH223924   7.052   4.169   4.210  0.7277  0.1985 -0.1909
 7987TIP3    H123925   7.110   4.107   4.254 -0.6179 -1.4515 -0.6190
 7987TIP3    H223926   7.067   4.252   4.255  1.3169 -0.8256  1.6090
 7988TIP3   OH223927   6.097   6.272   2.581  0.4012 -0.8216 -0.4039
 7988TIP3    H123928   6.092   6.355   2.629 -1.6182 -1.1969  0.1555
 7988TIP3    H223929   6.189   6.264   2.556  1.3094  0.0063  2.3026
 7989TIP3   OH223930   3.798   4.957   4.036  0.0044  0.2098  0.1777
 7989TIP3    H123931   3.765   5.021   4.099 -0.7704 -1.6427  1.7926
 7989TIP3    H223932   3.755   4.981   3.954 -2.4308  0.2213  1.3376
 7990TIP3   OH223933   4.503   2.126   4.374  0.0011  0.3449  0.1895
 7990TIP3    H123934   4.506   2.135   4.279 -1.6631  3.2233  0.2984
 7990TIP3    H223935   4.505   2.215   4.407 -0.8942 -0.4990  2.8062
 7991TIP3   OH223936   0.466   5.951   0.527  0.6566 -0.5033 -0.1387
 7991TIP3    H123937   0.457   5.858   0.506  1.4788 -0.3258 -1.3766
 7991TIP3    H223938   0.551   5.957   0.572  1.2093 -0.1865 -1.2017
 7992TIP3   OH223939   2.431   1.748   3.100  0.3571 -0.2630 -0.2376
 7992TIP3    H123940   2.380   1.820   3.063 -0.4595 -0.8720 -0.3173
 7992TIP3    H223941   2.521   1.780   3.100  0.0775  0.5497 -0.7728
 7993TIP3   OH223942   1.429   4.158   2.828 -0.2838 -0.2187 -0.3467
 7993TIP3    H123943   1.473   4.086   2.874  1.8689 -0.5640 -2.7062
 7993TIP3    H223944   1.370   4.114   2.767 -0.5646  0.0941 -0.2995
 7994TIP3   OH223945   4.732   6.043   1.853 -0.0090 -0.1233 -0.1969
 7994TIP3    H123946   4.772   6.093   1.924 -0.7033 -1.4187  1.1499
 7994TIP3    H223947   4.701   6.110   1.791  1.1007  1.0085  0.4273
 7995TIP3   OH223948   4.549   2.962   3.355  0.6497 -0.0620  0.0579
 7995TIP3    H123949   4.459   2.934   3.342  0.8089 -0.4275 -0.2950
 7995TIP3    H223950   4.600   2.880   3.353  1.1222  0.2318 -0.9461
 7996TIP3   OH223951   3.871   2.149   2.132  0.5403 -0.0507 -0.0758
 7996TIP3    H123952   3.834   2.077   2.081 -0.9532 -1.1744  2.3833
 7996TIP3    H223953   3.830   2.141   2.218  1.6908  2.6904  0.8560
 7997TIP3   OH223954   0.829   0.725   4.946 -0.2259  0.0351 -0.6116
 7997TIP3    H123955   0.735   0.707   4.946 -0.5294  1.4099 -1.5702
 7997TIP3    H223956   0.869   0.642   4.969 -1.6641 -0.6704 -0.5147
 7998TIP3   OH223957   6.576   5.638   0.208  0.1369  0.3581 -0.4579
 7998TIP3    H123958   6.651   5.636   0.267  0.0793 -1.3459 -0.3998
 7998TIP3    H223959   6.566   5.548   0.178 -2.2116  0.3985 -0.0266
 7999TIP3   OH223960   3.727   6.340   0.667  0.9180 -0.1396  0.2306
 7999TIP3    H123961   3.635   6.354   0.646  1.2106  0.5617 -0.6498
 7999TIP3    H223962   3.759   6.279   0.599  0.6654 -1.9214  1.6327
 8000TIP3   OH223963   5.468   3.390   5.549 -0.3711 -0.1961 -0.0101
 8000TIP3    H123964   5.480   3.422   5.638  1.3075 -0.2656 -0.1793
 8000TIP3    H223965   5.511   3.304   5.548 -1.4043 -0.7196 -0.5857
 8001TIP3   OH223966   2.327   3.064   3.725 -0.3227 -0.0443 -0.4280
 8001TIP3    H123967   2.262   3.058   3.795  0.7483 -2.6567  0.4616
 8001TIP3    H223968   2.282   3.112   3.656 -2.2956  0.4672  1.0967
 8002TIP3   OH223969   6.354   4.818   0.023 -0.4057  0.1972 -0.0365
 8002TIP3    H123970   6.440   4.857   0.010  0.0359 -0.8612 -0.3786
 8002TIP3    H223971   6.293   4.880  -0.017  0.1346  1.1733  0.6060
 8003TIP3   OH223972   0.727   1.022   1.887 -0.3018  0.2431 -0.3167
 8003TIP3    H123973   0.639   1.003   1.855 -0.3115  0.1202 -0.2181
 8003TIP3    H223974   0.777   0.942   1.868 -0.2823  0.2076 -0.1168
 8004TIP3   OH223975   0.458   0.865   2.357  0.0126 -0.1798  0.1437
 8004TIP3    H123976   0.504   0.876   2.440 -0.7599  0.2383  0.5301
 8004TIP3    H223977   0.494   0.784   2.320 -1.2653 -1.7058  2.0078
 8005TIP3   OH223978   6.234   2.673   4.456 -0.3737  0.6783 -0.0531
 8005TIP3    H123979   6.225   2.761   4.420  0.8267  0.4086 -1.0426
 8005TIP3    H223980   6.325   2.649   4.441 -0.6072 -0.6323  0.4582
 8006TIP3   OH223981   0.128   5.708   4.860  0.1301 -0.0881 -0.4270
 8006TIP3    H123982   0.070   5.686   4.934  0.2516 -1.8834 -0.8146
 8006TIP3    H223983   0.142   5.802   4.868  1.1701 -0.3795  2.6194
 8007TIP3   OH223984   3.932   3.192   5.189  0.2230  0.1083  0.3947
 8007TIP3    H123985   3.925   3.217   5.281  0.7545  2.5284 -0.1488
 8007TIP3    H223986   4.023   3.209   5.166  0.1531 -0.6726 -0.5482
 8008TIP3   OH223987   5.679   2.638   1.267  0.3414  0.4668  0.8822
 8008TIP3    H123988   5.663   2.608   1.178 -1.0054 -0.0027  1.2625
 8008TIP3    H223989   5.696   2.732   1.257  0.6370  0.3437  0.1043
 8009TIP3   OH223990   4.648   6.518   2.647 -0.3397  0.1417 -0.4353
 8009TIP3    H123991   4.723   6.554   2.600  0.1983 -1.2964 -0.7539
 8009TIP3    H223992   4.572   6.542   2.594 -0.0982  1.4903 -0.1849
 8010TIP3   OH223993   2.868   5.482   2.789  0.9852 -0.5350  0.1335
 8010TIP3    H123994   2.952   5.504   2.749 -0.0594  1.4550 -1.1551
 8010TIP3    H223995   2.829   5.418   2.729  0.6597  0.2427 -0.5049
 8011TIP3   OH223996   3.386   6.100   4.334 -0.1074  0.2041 -0.6846
 8011TIP3    H123997   3.391   6.088   4.429  0.0056 -0.5350 -0.7784
 8011TIP3    H223998   3.320   6.169   4.322  0.4628  0.8795 -0.0385
 8012TIP3   OH223999   1.660   5.780   5.790  0.0036  0.2633  0.7993
 8012TIP3    H124000   1.734   5.750   5.842  1.2601  0.4295 -0.8362
 8012TIP3    H224001   1.688   5.863   5.752 -0.4063 -0.4110 -1.0789
 8013TIP3   OH224002   5.113   2.489   5.304  0.2780 -0.5028 -1.0134
 8013TIP3    H124003   5.097   2.519   5.393  1.1878  1.0229 -1.3292
 8013TIP3    H224004   5.046   2.533   5.251  0.0404 -1.0254 -1.1563
 8014TIP3   OH224005   2.861   2.375   4.516  0.0655  0.0411  0.1048
 8014TIP3    H124006   2.803   2.328   4.577 -0.8506  1.5644  0.4728
 8014TIP3    H224007   2.876   2.459   4.559 -1.3140  1.5180 -2.1300
 8015TIP3   OH224008   6.611   4.548   1.666 -0.0911  0.4136  0.5125
 8015TIP3    H124009   6.691   4.497   1.679 -1.2094 -1.5137  0.3378
 8015TIP3    H224010   6.568   4.548   1.752 -0.5178  0.3044  0.3029
 8016TIP3   OH224011   5.705   1.405   0.966  0.1537  0.5353  0.2229
 8016TIP3    H124012   5.738   1.495   0.956  1.4299  0.1042  0.4302
 8016TIP3    H224013   5.627   1.402   0.909  0.8469  1.3989 -0.8134
 8017TIP3   OH224014   5.063   3.847   2.208 -0.8285 -0.0795 -0.4511
 8017TIP3    H124015   5.019   3.889   2.134 -1.2821  0.8422  0.3056
 8017TIP3    H224016   4.995   3.841   2.275 -0.3926 -0.7731 -0.0631
 8018TIP3   OH224017   3.211   2.213   5.749 -0.2902 -0.0821  0.1042
 8018TIP3    H124018   3.233   2.240   5.838  0.3558  0.3552 -0.1855
 8018TIP3    H224019   3.229   2.119   5.747 -0.5657 -0.1485  0.5059
 8019TIP3   OH224020   0.369   0.761   4.473 -0.2052 -0.6719  0.2114
 8019TIP3    H124021   0.352   0.840   4.422 -1.4879 -1.0323  0.0373
 8019TIP3    H224022   0.392   0.694   4.408  0.2256 -0.6155  0.3011
 8020TIP3   OH224023   6.979   3.053   5.829  0.6131 -0.0371  0.1573
 8020TIP3    H124024   7.027   3.125   5.789 -0.5250  0.0834 -1.0846
 8020TIP3    H224025   6.887   3.076   5.815  0.2164 -1.8828 -0.6147
 8021TIP3   OH224026   4.518   1.625   5.179 -0.1339  0.2070 -0.2644
 8021TIP3    H124027   4.435   1.615   5.226 -0.5396  0.1792 -0.9744
 8021TIP3    H224028   4.503   1.582   5.095  1.1246 -1.2270  0.1987
 8022TIP3   OH224029   0.638   3.391   5.024 -0.1337 -0.2299 -0.1459
 8022TIP3    H124030   0.673   3.302   5.031 -0.5578 -0.3625  0.3217
 8022TIP3    H224031   0.624   3.418   5.115  3.2377  1.6208 -0.0320
 8023TIP3   OH224032   2.207   6.771   1.714  0.7144  0.3129  0.4683
 8023TIP3    H124033   2.158   6.691   1.697  2.3490 -1.0214  1.6985
 8023TIP3    H224034   2.165   6.809   1.791  1.0861 -0.3974  1.0346
 8024TIP3   OH224035   0.978   2.283   4.499 -0.6461  0.4421  0.4909
 8024TIP3    H124036   0.898   2.302   4.548 -0.2669 -0.1459  1.3579
 8024TIP3    H224037   0.983   2.188   4.496 -1.1732  0.4211 -1.5703
 8025TIP3   OH224038   3.634   6.329   1.276 -0.1877  0.3340 -0.3379
 8025TIP3    H124039   3.714   6.361   1.318  0.3682 -0.7357 -0.5437
 8025TIP3    H224040   3.577   6.405   1.273  1.1321  1.3469 -0.9439
 8026TIP3   OH224041   7.146   2.219   3.300 -0.2681 -0.1411  0.0690
 8026TIP3    H124042   7.133   2.198   3.392 -0.4431  0.2784  0.1427
 8026TIP3    H224043   7.106   2.305   3.289  2.2187  1.1229  0.2450
 8027TIP3   OH224044   0.357   0.355   1.720  0.5557  0.2296  0.2440
 8027TIP3    H124045   0.274   0.401   1.710 -0.6150 -0.9303  3.3520
 8027TIP3    H224046   0.414   0.417   1.764  0.0575 -0.1331  1.4520
 8028TIP3   OH224047   1.008   0.284   4.132 -0.4472 -0.1464 -0.1702
 8028TIP3    H124048   1.095   0.245   4.131 -0.4799 -0.2090 -1.4017
 8028TIP3    H224049   1.016   0.363   4.079 -1.2792 -0.4850 -0.8196
 8029TIP3   OH224050   1.745   6.374   1.344  0.6042 -0.1496 -0.3435
 8029TIP3    H124051   1.836   6.375   1.315  0.6869  0.5511 -0.0551
 8029TIP3    H224052   1.720   6.281   1.339  1.4502 -0.4051 -0.0367
 8030TIP3   OH224053   2.938   1.624   0.217 -0.1205  0.0390 -0.5956
 8030TIP3    H124054   2.957   1.556   0.281  0.4431  1.2737  0.5883
 8030TIP3    H224055   3.017   1.629   0.164  0.7662  1.3354  0.7909
 8031TIP3   OH224056   3.032   1.787   1.900 -0.1103  0.1978 -0.3435
 8031TIP3    H124057   3.072   1.737   1.829  1.5955  1.5484 -0.3877
 8031TIP3    H224058   2.986   1.721   1.953  2.2193 -1.4677 -0.2492
 8032TIP3   OH224059   6.223   1.274   5.558 -0.1946  0.1979 -0.1971
 8032TIP3    H124060   6.183   1.361   5.552  0.4325  0.5204  0.2202
 8032TIP3    H224061   6.312   1.286   5.524 -0.1887 -0.3441 -0.3902
 8033TIP3   OH224062   0.588   1.127   4.829  0.3349 -0.9686 -0.1051
 8033TIP3    H124063   0.553   1.039   4.816  0.2009 -0.9152 -0.1055
 8033TIP3    H224064   0.511   1.182   4.846  0.4925 -0.9973  0.7072
 8034TIP3   OH224065   3.120   0.814   2.428 -0.1133  0.9308  0.6316
 8034TIP3    H124066   3.086   0.842   2.513 -2.1420 -1.0390  0.5502
 8034TIP3    H224067   3.043   0.791   2.377  1.1709 -3.3313  0.2247
 8035TIP3   OH224068   2.781   2.221   5.283  0.4284 -0.3128  0.5932
 8035TIP3    H124069   2.696   2.184   5.306 -0.1802 -0.3773 -1.4831
 8035TIP3    H224070   2.828   2.149   5.241  0.8679  0.1401  0.2898
 8036TIP3   OH224071   0.124   4.116   3.233 -0.1945 -0.2948 -0.1350
 8036TIP3    H124072   0.167   4.184   3.284  0.6968 -1.5981  0.9232
 8036TIP3    H224073   0.151   4.034   3.275 -1.3183 -1.2999 -1.2953
 8037TIP3   OH224074   6.736   4.320   2.558  0.4045 -0.2039  0.0610
 8037TIP3    H124075   6.742   4.400   2.610  0.5826 -0.2898  0.1764
 8037TIP3    H224076   6.644   4.315   2.531  0.7149  0.8537 -1.2597
 8038TIP3   OH224077   4.836   4.776   5.913 -0.1414 -0.3892  0.5125
 8038TIP3    H124078   4.887   4.749   5.836  1.1445  0.1585  1.1450
 8038TIP3    H224079   4.756   4.814   5.875  0.7180  0.3983 -0.6028
 8039TIP3   OH224080   4.336   3.361   2.641  0.0613  0.2269  0.1228
 8039TIP3    H124081   4.357   3.283   2.693 -2.2291 -1.4149 -1.2234
 8039TIP3    H224082   4.395   3.357   2.566 -1.1998 -1.3521 -0.8799
 8040TIP3   OH224083   1.686   1.373   5.032  0.1973 -0.4476  0.5073
 8040TIP3    H124084   1.745   1.306   4.998 -0.8644 -0.3613 -1.7118
 8040TIP3    H224085   1.742   1.447   5.054  0.9813 -0.4284 -1.3706
 8041TIP3   OH224086   4.297   3.952   2.430 -0.2535  0.4142 -0.5854
 8041TIP3    H124087   4.307   3.956   2.525  1.1778  0.2239 -0.7035
 8041TIP3    H224088   4.291   3.859   2.410 -1.2833  0.4849 -0.6220
 8042TIP3   OH224089   4.692   6.633   5.125 -0.9600 -0.1164 -0.0346
 8042TIP3    H124090   4.779   6.665   5.148 -0.2144 -0.4138 -2.2096
 8042TIP3    H224091   4.648   6.709   5.086 -0.1592 -0.8883 -2.6721
 8043TIP3   OH224092   5.360   1.907   3.318  0.5675 -0.4289  0.0633
 8043TIP3    H124093   5.341   1.861   3.236 -0.2708 -1.8256  1.0045
 8043TIP3    H224094   5.278   1.950   3.341  1.1163  0.9125 -0.3767
 8044TIP3   OH224095   2.855   6.277   2.284 -0.4924 -0.4201 -0.0809
 8044TIP3    H124096   2.807   6.340   2.230  2.5819  1.4442 -0.9078
 8044TIP3    H224097   2.884   6.328   2.360 -0.7273 -1.7664  0.9430
 8045TIP3   OH224098   2.444   2.969   4.935  0.0082 -0.2642  0.1453
 8045TIP3    H124099   2.352   2.977   4.963 -0.8678 -4.0688 -0.9390
 8045TIP3    H224100   2.484   2.912   5.002  1.4117  0.7249  0.1882
 8046TIP3   OH224101   2.877   0.975   3.900 -0.2928 -0.4919  0.2086
 8046TIP3    H124102   2.836   0.889   3.903 -1.1313 -0.0893  2.3880
 8046TIP3    H224103   2.839   1.017   3.822 -1.1538 -1.4925  0.0634
 8047TIP3   OH224104   4.052   1.424   1.074 -0.2325  0.5008  0.0567
 8047TIP3    H124105   4.101   1.487   1.126 -1.2072 -0.3999  2.1775
 8047TIP3    H224106   4.090   1.339   1.096 -1.1741  0.0326 -0.0683
 8048TIP3   OH224107   3.128   6.763   3.440 -0.1603 -0.0081 -0.6608
 8048TIP3    H124108   3.156   6.737   3.528  2.2707  1.9232 -0.7509
 8048TIP3    H224109   3.053   6.708   3.421  1.5281 -3.2146  1.1166
 8049TIP3   OH224110   5.135   2.305   5.780 -0.2495 -0.2943 -0.3845
 8049TIP3    H124111   5.043   2.284   5.798 -0.1119  0.6686  1.7122
 8049TIP3    H224112   5.142   2.299   5.685 -2.4204 -0.5946 -0.5923
 8050TIP3   OH224113   4.885   2.097   4.880  0.2174 -0.6575 -0.6652
 8050TIP3    H124114   4.834   2.166   4.838  0.6029  0.2009  0.2242
 8050TIP3    H224115   4.832   2.018   4.871 -1.7556  0.3770  1.0504
 8051TIP3   OH224116   4.394   3.964   2.684 -0.0284  0.1783  0.1353
 8051TIP3    H124117   4.411   4.058   2.688  1.9753 -0.1685  0.7604
 8051TIP3    H224118   4.445   3.927   2.756 -0.6283 -1.4180 -0.2198
 8052TIP3   OH224119   3.033   1.677   5.203 -0.1076 -0.2022  0.1308
 8052TIP3    H124120   3.049   1.601   5.258  1.7845 -0.0031 -0.0973
 8052TIP3    H224121   2.937   1.683   5.197 -0.3086 -1.4758  1.6251
 8053TIP3   OH224122   3.528   2.813   5.324 -0.5187  0.5222  0.4050
 8053TIP3    H124123   3.577   2.880   5.372  0.3644  0.5608 -0.5251
 8053TIP3    H224124   3.556   2.731   5.363  0.6561  0.5116 -0.4033
 8054TIP3   OH224125   2.633   5.399   1.923  0.9056  0.3307 -0.2029
 8054TIP3    H124126   2.690   5.399   2.000  1.8190 -3.0975 -0.7241
 8054TIP3    H224127   2.692   5.418   1.850  1.0110 -1.0821 -0.5103
 8055TIP3   OH224128   1.381   4.418   4.347  0.4394 -1.2756  0.5205
 8055TIP3    H124129   1.469   4.398   4.313  0.7541  1.9752 -0.9768
 8055TIP3    H224130   1.389   4.506   4.383 -2.4573 -0.4036 -0.6912
 8056TIP3   OH224131   5.250   3.938   5.637 -0.0118  0.0679  0.2610
 8056TIP3    H124132   5.341   3.936   5.609 -0.2097  0.2455 -0.4275
 8056TIP3    H224133   5.221   3.847   5.631  0.2351 -0.0580  0.8964
 8057TIP3   OH224134   1.124   0.600   5.445 -0.0192  0.1616 -0.7077
 8057TIP3    H124135   1.093   0.679   5.489 -0.0343  0.9281 -2.0371
 8057TIP3    H224136   1.089   0.607   5.356  0.2476 -1.1918 -0.9400
 8058TIP3   OH224137   1.467   3.488   5.577 -0.5863 -0.1826  0.1380
 8058TIP3    H124138   1.396   3.536   5.534 -0.6352 -0.3455  0.0370
 8058TIP3    H224139   1.448   3.396   5.559  0.0638 -0.1928 -0.5341
 8059TIP3   OH224140   4.357   5.672   5.122 -0.0266 -0.4460 -0.0119
 8059TIP3    H124141   4.273   5.709   5.096 -0.4987 -1.6469 -0.2828
 8059TIP3    H224142   4.394   5.636   5.041  1.1108  0.7000 -0.0449
 8060TIP3   OH224143   0.171   4.850   1.271  0.0249  0.8248 -0.1461
 8060TIP3    H124144   0.141   4.887   1.354  1.9426  2.5266 -0.1389
 8060TIP3    H224145   0.093   4.850   1.215 -1.2842 -0.3145  1.5944
 8061TIP3   OH224146   6.406   1.609   3.539  0.2297 -0.2981 -0.4322
 8061TIP3    H124147   6.394   1.560   3.457  0.2726 -1.1376  0.0626
 8061TIP3    H224148   6.398   1.544   3.608 -0.2844  0.4852  0.2664
 8062TIP3   OH224149   1.807   6.770   4.245  0.3886  0.1118 -0.2990
 8062TIP3    H124150   1.893   6.787   4.283 -0.5913 -0.3367  2.3114
 8062TIP3    H224151   1.744   6.805   4.309 -1.4005 -1.2040 -1.2383
 8063TIP3   OH224152   5.759   4.094   0.244 -0.2141 -0.2721  0.1527
 8063TIP3    H124153   5.747   4.000   0.233 -0.7083 -0.0656 -1.1651
 8063TIP3    H224154   5.682   4.123   0.292 -0.1291 -0.5083  0.4364
 8064TIP3   OH224155   1.522   2.902   1.132  0.3447 -0.2143  0.0453
 8064TIP3    H124156   1.544   2.841   1.202  1.6055  0.4241  0.2216
 8064TIP3    H224157   1.533   2.852   1.051 -1.1523 -0.9640  0.2765
 8065TIP3   OH224158   1.153   6.255   3.178 -0.0137  0.3236 -0.0615
 8065TIP3    H124159   1.243   6.287   3.172 -0.1225  0.5040 -0.8328
 8065TIP3    H224160   1.157   6.164   3.148  0.1068 -0.0590  1.0678
 8066TIP3   OH224161   0.568   0.110   1.029 -0.3880  0.3572  0.0400
 8066TIP3    H124162   0.564   0.188   1.085  0.0798 -0.3861  1.1169
 8066TIP3    H224163   0.660   0.102   1.005 -0.5614  0.5918 -0.7673
 8067TIP3   OH224164   4.357   2.465   2.551  0.5227 -0.4207 -0.1684
 8067TIP3    H124165   4.273   2.498   2.583  1.3552  1.2841  0.3981
 8067TIP3    H224166   4.381   2.397   2.613  0.8743  1.0567  1.4148
 8068TIP3   OH224167   1.446   4.744   3.638  0.4683 -0.5415 -0.0522
 8068TIP3    H124168   1.424   4.764   3.547 -1.5041 -0.9592  0.3019
 8068TIP3    H224169   1.430   4.650   3.647  1.0368 -0.5833  0.6375
 8069TIP3   OH224170   4.790   2.567   2.322 -0.0008 -0.5149 -0.4251
 8069TIP3    H124171   4.799   2.553   2.228 -0.8699 -0.1572 -0.5656
 8069TIP3    H224172   4.696   2.571   2.337  0.1438  0.6888  0.2653
 8070TIP3   OH224173   2.682   3.512   3.540  0.5751 -0.3539 -0.1368
 8070TIP3    H124174   2.771   3.482   3.559  0.7525  1.1152  1.5840
 8070TIP3    H224175   2.627   3.435   3.556  1.3934 -0.8932  0.1286
 8071TIP3   OH224176   1.727   5.542   1.061 -0.4826  0.1337 -0.2189
 8071TIP3    H124177   1.749   5.473   0.999  0.0907  0.9374 -0.9373
 8071TIP3    H224178   1.655   5.506   1.112  0.5142 -1.3974  0.1602
 8072TIP3   OH224179   0.544   2.722   4.901  0.1054  0.1508  0.1589
 8072TIP3    H124180   0.504   2.635   4.900  0.5508 -0.0708  0.7539
 8072TIP3    H224181   0.637   2.705   4.919  0.5019  0.6392 -1.2743
 8073TIP3   OH224182   2.386   5.044   5.697 -0.2416  0.2835 -0.1891
 8073TIP3    H124183   2.383   5.137   5.676  0.0122  0.3893  0.2420
 8073TIP3    H224184   2.449   5.006   5.635  0.9361  0.6901  0.7265
 8074TIP3   OH224185   3.608   3.280   5.652 -0.1687 -0.5022  0.2962
 8074TIP3    H124186   3.541   3.318   5.708  0.3382 -0.3343  0.8043
 8074TIP3    H224187   3.684   3.270   5.709  0.0089 -1.3959 -0.0705
 8075TIP3   OH224188   0.570   1.716   1.071  0.2486  0.1846  0.0075
 8075TIP3    H124189   0.482   1.745   1.049  0.2784 -0.5685 -1.2087
 8075TIP3    H224190   0.623   1.740   0.995  1.4650  2.0946  1.3800
 8076TIP3   OH224191   2.889   3.130   3.858 -0.0208 -0.0138  0.0234
 8076TIP3    H124192   2.868   3.221   3.879 -0.6966 -0.2211  0.2874
 8076TIP3    H224193   2.824   3.106   3.792 -1.3169 -0.9821  1.5771
 8077TIP3   OH224194   7.188   5.651   5.084  0.2128 -0.1135  0.3556
 8077TIP3    H124195   7.107   5.601   5.096  0.3242 -0.5689 -0.6860
 8077TIP3    H224196   7.182   5.723   5.147 -0.5929 -0.6479  0.8975
 8078TIP3   OH224197   5.287   0.206   3.413  0.1850  0.0009  0.1115
 8078TIP3    H124198   5.204   0.173   3.446  0.6883  0.8334  2.4191
 8078TIP3    H224199   5.352   0.169   3.473  1.2078  1.3661 -0.1016
 8079TIP3   OH224200   1.820   6.747   3.413  0.1889 -0.2484 -0.0896
 8079TIP3    H124201   1.768   6.670   3.436 -0.2751  0.2397  0.5134
 8079TIP3    H224202   1.822   6.800   3.492 -0.7504  1.0685 -0.8943
 8080TIP3   OH224203   3.429   5.811   5.464 -0.4384 -0.6052 -0.3290
 8080TIP3    H124204   3.338   5.807   5.492 -0.9856 -1.2358 -2.0843
 8080TIP3    H224205   3.477   5.767   5.534 -1.5885 -1.0793  0.1880
 8081TIP3   OH224206   4.711   5.822   1.440 -0.3651 -0.0263 -0.0284
 8081TIP3    H124207   4.802   5.852   1.447  0.0881 -1.3586  0.1894
 8081TIP3    H224208   4.708   5.744   1.495 -1.7836  0.2770  0.3562
 8082TIP3   OH224209   0.429   3.723   4.884  1.0493 -0.0325 -0.1203
 8082TIP3    H124210   0.394   3.812   4.876  1.7905  0.2429 -0.3315
 8082TIP3    H224211   0.422   3.703   4.978  2.2750  0.8297  0.1700
 8083TIP3   OH224212   4.281   6.066   5.017  0.0270  1.0319 -0.3322
 8083TIP3    H124213   4.282   6.023   5.103  1.7496 -0.1466 -0.8965
 8083TIP3    H224214   4.302   6.157   5.036  1.7573  0.5197  0.4200
 8084TIP3   OH224215   6.866   3.268   3.042  0.0774 -0.8588  0.5375
 8084TIP3    H124216   6.799   3.270   2.975  0.9417  0.4461 -0.3462
 8084TIP3    H224217   6.933   3.209   3.007  0.9554  0.5396 -0.2305
 8085TIP3   OH224218   2.543   5.554   5.872 -0.2543  0.4040 -0.2051
 8085TIP3    H124219   2.624   5.536   5.824 -1.0658  1.4486 -2.0738
 8085TIP3    H224220   2.487   5.479   5.851 -0.3593  0.5032 -0.2748
 8086TIP3   OH224221   0.209   1.104   3.434 -0.1891 -0.5849  0.2823
 8086TIP3    H124222   0.277   1.155   3.477  0.0604 -0.9044  0.2740
 8086TIP3    H224223   0.166   1.166   3.374 -0.3445 -0.2158  0.7709
 8087TIP3   OH224224   6.627   3.160   4.858 -0.5156  0.3544  0.1441
 8087TIP3    H124225   6.568   3.229   4.889 -2.3672 -1.0649 -0.0632
 8087TIP3    H224226   6.677   3.135   4.935 -0.7607  1.0412  0.5343
 8088TIP3   OH224227   3.738   6.791   1.679 -0.0308 -0.6608  0.1575
 8088TIP3    H124228   3.787   6.764   1.757  0.7936 -0.0765 -0.1387
 8088TIP3    H224229   3.793   6.765   1.605 -0.6425 -0.8989 -0.2274
 8089TIP3   OH224230   0.266   1.916   0.826 -0.0388 -0.4570  0.3684
 8089TIP3    H124231   0.271   1.820   0.828 -1.5415 -0.5479  1.4068
 8089TIP3    H224232   0.271   1.942   0.918  1.2130  0.5490  0.0472
 8090TIP3   OH224233   6.364   4.468   3.878 -0.0182  0.1911 -0.1894
 8090TIP3    H124234   6.405   4.395   3.832 -1.6657 -0.6026 -0.4751
 8090TIP3    H224235   6.274   4.469   3.846  0.0664  2.6897 -0.5845
 8091TIP3   OH224236   6.771   5.747   2.932 -0.0213  0.2418 -0.1398
 8091TIP3    H124237   6.761   5.661   2.972  0.0845  0.6494  0.7878
 8091TIP3    H224238   6.842   5.736   2.868  1.6128  0.1638  1.5891
 8092TIP3   OH224239   4.502   5.597   5.337 -0.3156 -0.1593  0.2146
 8092TIP3    H124240   4.437   5.632   5.276 -1.4769  2.1455  2.5911
 8092TIP3    H224241   4.529   5.673   5.388  1.5016 -1.7779  1.7756
 8093TIP3   OH224242   6.400   2.909   1.901  0.2304 -0.6779 -0.2197
 8093TIP3    H124243   6.443   2.843   1.957 -0.0665 -2.0369 -1.5286
 8093TIP3    H224244   6.318   2.928   1.946 -0.1428 -1.9795 -0.2907
 8094TIP3   OH224245   2.125   4.547   3.679  0.2195 -0.1407 -0.0205
 8094TIP3    H124246   2.033   4.521   3.671  0.0335 -0.0609  1.5609
 8094TIP3    H224247   2.173   4.464   3.675 -0.0382 -0.3254  0.6934
 8095TIP3   OH224248   1.386   5.335   3.595  0.2707  0.2135  0.0801
 8095TIP3    H124249   1.475   5.368   3.579  0.0140  0.5131 -0.7802
 8095TIP3    H224250   1.346   5.332   3.508 -0.0602 -1.3927  0.2463
 8096TIP3   OH224251   2.286   3.642   3.688  0.6049  0.2817 -0.0957
 8096TIP3    H124252   2.367   3.648   3.637  0.9497  0.6281  0.4776
 8096TIP3    H224253   2.218   3.626   3.623  1.2662 -1.0541 -0.4950
 8097TIP3   OH224254   5.566   6.629   4.251 -0.1549 -0.3824  0.1203
 8097TIP3    H124255   5.500   6.646   4.183  1.0665  1.8715 -0.6030
 8097TIP3    H224256   5.546   6.693   4.319  1.0790  0.1115  0.0311
 8098TIP3   OH224257   1.642   4.598   5.710  0.1069 -0.3671  0.6413
 8098TIP3    H124258   1.730   4.635   5.708  0.1791 -0.5792 -0.5044
 8098TIP3    H224259   1.597   4.646   5.780  0.2587  1.7634 -0.6412
 8099TIP3   OH224260   3.975   3.815   0.181 -0.1762 -0.2365 -0.2422
 8099TIP3    H124261   3.931   3.867   0.248  0.1162  0.1249 -0.3273
 8099TIP3    H224262   3.952   3.724   0.201  1.2334 -0.2956  1.3644
 8100TIP3   OH224263   0.612   1.546   2.352  0.1399  0.1652  0.1101
 8100TIP3    H124264   0.607   1.573   2.261 -0.1360  1.2078  0.4262
 8100TIP3    H224265   0.531   1.497   2.368 -0.4067  1.0653  0.1346
 8101TIP3   OH224266   4.800   0.044   4.030  0.5496 -0.5406  0.5293
 8101TIP3    H124267   4.851   0.111   3.985 -0.9515  0.3148  0.0225
 8101TIP3    H224268   4.787   0.079   4.119 -0.1054 -0.2000  0.3096
 8102TIP3   OH224269   0.882   4.772   2.019  0.1003  0.5524  0.4917
 8102TIP3    H124270   0.809   4.732   1.972  0.6798 -0.6386  0.5703
 8102TIP3    H224271   0.871   4.866   2.003  0.4043  0.2186 -2.2733
 8103TIP3   OH224272   5.424   1.715   5.873 -0.0042 -0.0101 -0.3907
 8103TIP3    H124273   5.482   1.666   5.815  1.2568 -0.9414  1.5371
 8103TIP3    H224274   5.483   1.756   5.936 -1.3621 -0.3824  1.1964
 8104TIP3   OH224275   5.650   5.674   2.017 -0.4091 -0.0736 -0.7831
 8104TIP3    H124276   5.633   5.599   1.961  1.8807 -0.5312 -0.9960
 8104TIP3    H224277   5.570   5.726   2.015 -1.0739 -1.1016 -2.8467
 8105TIP3   OH224278   1.995   1.892   3.935  0.1814  0.3535  0.1867
 8105TIP3    H124279   1.937   1.831   3.979 -1.2664  0.3220 -1.6248
 8105TIP3    H224280   2.057   1.836   3.888 -1.0296  0.2209 -1.3225
 8106TIP3   OH224281   3.292   3.220   3.173  0.4136  0.5605  0.3467
 8106TIP3    H124282   3.206   3.229   3.133  1.4223 -0.9538 -2.4233
 8106TIP3    H224283   3.351   3.204   3.100  2.5946 -1.3280  2.3541
 8107TIP3   OH224284   2.814   3.288   5.122 -0.5206  0.3722 -0.3751
 8107TIP3    H124285   2.899   3.321   5.151 -0.5161  0.1413 -0.1166
 8107TIP3    H224286   2.752   3.322   5.187 -0.4289 -0.6585  0.2876
 8108TIP3   OH224287   1.624   1.211   0.690 -0.1827  0.7910 -0.3431
 8108TIP3    H124288   1.620   1.297   0.733  0.5992  0.2784  0.7882
 8108TIP3    H224289   1.536   1.175   0.702 -0.2957  1.1242 -0.1472
 8109TIP3   OH224290   1.330   0.811   4.991 -0.0648  0.1693 -0.3625
 8109TIP3    H124291   1.376   0.884   5.031 -2.5288  0.5287  2.1581
 8109TIP3    H224292   1.259   0.851   4.941 -1.2469 -0.4097  0.7861
 8110TIP3   OH224293   7.174   3.099   0.885  0.0532  0.4629  0.2686
 8110TIP3    H124294   7.180   3.100   0.789 -0.9748  2.1703  0.1621
 8110TIP3    H224295   7.086   3.133   0.903  1.0137  2.3519  1.8174
 8111TIP3   OH224296   5.706   5.194   0.168 -0.4904  0.1338  0.4923
 8111TIP3    H124297   5.785   5.239   0.136 -1.3902  0.8661 -0.7678
 8111TIP3    H224298   5.727   5.170   0.259  2.2206 -2.1464 -0.5856
 8112TIP3   OH224299   1.125   4.739   2.452  0.1817 -0.0681 -0.3189
 8112TIP3    H124300   1.060   4.808   2.444  1.1031  0.9480  0.5586
 8112TIP3    H224301   1.125   4.716   2.545  1.4168  0.3232 -0.1973
 8113TIP3   OH224302   3.532   4.112   4.789 -0.4623  0.6813  0.2876
 8113TIP3    H124303   3.464   4.090   4.726  0.1926 -0.1462 -0.1539
 8113TIP3    H224304   3.485   4.148   4.864 -1.1749  3.1597 -1.2364
 8114TIP3   OH224305   5.070   6.280   2.293  0.1219 -0.5862 -0.1633
 8114TIP3    H124306   5.084   6.343   2.364  0.4110 -1.7286  0.8274
 8114TIP3    H224307   4.977   6.256   2.302 -0.1050  0.0240 -0.8250
 8115TIP3   OH224308   5.531   1.442   0.735  0.7168 -0.1290 -0.1123
 8115TIP3    H124309   5.528   1.366   0.676 -0.1595 -1.3955  1.4787
 8115TIP3    H224310   5.554   1.516   0.678  0.7825 -1.4344 -1.8617
 8116TIP3   OH224311   6.672   1.079   3.898 -0.3348  0.3256 -0.0192
 8116TIP3    H124312   6.619   1.118   3.829 -1.7825  1.3535  1.6037
 8116TIP3    H224313   6.746   1.139   3.909  1.3806 -1.1879 -2.3895
 8117TIP3   OH224314   0.296   2.407   1.233 -0.0539 -0.2060 -0.2976
 8117TIP3    H124315   0.314   2.374   1.145  0.2749 -1.3083  0.1664
 8117TIP3    H224316   0.383   2.420   1.272 -0.2074 -0.3668  0.0979
 8118TIP3   OH224317   0.378   3.029   3.110  0.3903 -0.3305 -0.3084
 8118TIP3    H124318   0.319   3.026   3.034  0.4863  1.0043 -0.4627
 8118TIP3    H224319   0.417   2.942   3.114 -0.0964 -0.6125 -1.4138
 8119TIP3   OH224320   3.304   4.655   2.605  0.4912  0.3532  0.1304
 8119TIP3    H124321   3.279   4.745   2.584  2.1913  0.6193 -0.9183
 8119TIP3    H224322   3.251   4.633   2.682 -1.5482  1.4685 -0.8667
 8120TIP3   OH224323   4.567   5.901   5.123  0.1380 -0.2016 -0.4822
 8120TIP3    H124324   4.608   5.818   5.100 -0.9810 -1.2991  1.2354
 8120TIP3    H224325   4.493   5.877   5.179  0.8125  2.0171  1.5511
 8121TIP3   OH224326   3.564   5.420   0.213 -0.0865  0.1447  0.4223
 8121TIP3    H124327   3.492   5.429   0.151  0.9334 -0.3619 -0.8912
 8121TIP3    H224328   3.564   5.327   0.237  0.9099 -0.1372 -0.6028
 8122TIP3   OH224329   4.195   5.688   5.752 -0.3634  0.1779  0.0200
 8122TIP3    H124330   4.106   5.676   5.719 -0.3792  1.0932 -0.3151
 8122TIP3    H224331   4.239   5.604   5.737 -0.9524 -0.0384 -0.5113
 8123TIP3   OH224332   2.534   2.248   4.402 -0.3778 -0.0425  0.5011
 8123TIP3    H124333   2.571   2.172   4.357 -1.3098 -0.4709  0.4333
 8123TIP3    H224334   2.566   2.241   4.491  1.7391  0.9750 -0.1134
 8124TIP3   OH224335   4.903   3.447   5.474  0.1527 -0.8829  0.2740
 8124TIP3    H124336   4.900   3.472   5.566 -0.4307  0.0115  0.0282
 8124TIP3    H224337   4.822   3.483   5.437  0.6775 -0.6920 -0.7139
 8125TIP3   OH224338   4.183   1.717   2.085  0.2646  0.8209  0.0859
 8125TIP3    H124339   4.278   1.710   2.098  0.3686 -1.1655 -1.3346
 8125TIP3    H224340   4.173   1.789   2.023  1.0324 -0.0875 -1.1413
 8126TIP3   OH224341   6.088   4.549   5.258 -0.2199  0.2629  0.0671
 8126TIP3    H124342   6.126   4.467   5.227  1.3862  0.7855  0.5480
 8126TIP3    H224343   6.143   4.617   5.219 -1.8756  1.1556 -0.7814
 8127TIP3   OH224344   2.869   0.148   4.348 -0.2414  0.2747 -0.0527
 8127TIP3    H124345   2.774   0.149   4.363 -0.1362  1.0831  0.7329
 8127TIP3    H224346   2.891   0.057   4.331 -0.9883 -0.1222  1.0289
 8128TIP3   OH224347   3.503   5.637   1.165  0.5100  0.2230 -0.0399
 8128TIP3    H124348   3.586   5.656   1.119  0.6574  0.2205  0.2243
 8128TIP3    H224349   3.527   5.635   1.258  0.1843  0.3745  0.0490
 8129TIP3   OH224350   1.035   1.331   2.825  0.2830  0.3818  0.1768
 8129TIP3    H124351   0.989   1.275   2.762  0.6181 -0.5880  0.7743
 8129TIP3    H224352   0.968   1.389   2.859 -0.3100 -0.3746  0.3256
 8130TIP3   OH224353   5.460   4.324   5.453  0.4644  0.5394 -0.0648
 8130TIP3    H124354   5.484   4.236   5.481  1.4132  0.9618  0.4654
 8130TIP3    H224355   5.387   4.349   5.510 -0.3451 -0.1893 -0.7422
 8131TIP3   OH224356   0.971   1.814   5.264  0.6444  0.1121  0.3132
 8131TIP3    H124357   0.880   1.840   5.277 -0.1054 -1.7921 -0.7862
 8131TIP3    H224358   1.007   1.881   5.205 -0.9609 -0.6959 -1.7109
 8132TIP3   OH224359   0.565   4.003   5.901 -0.7229 -0.1145 -0.0587
 8132TIP3    H124360   0.630   3.940   5.868  0.4694  1.3497 -0.6604
 8132TIP3    H224361   0.504   4.015   5.828  0.6973  1.5141 -1.0707
 8133TIP3   OH224362   1.569   1.638   1.310 -0.5938  0.5281  0.3824
 8133TIP3    H124363   1.486   1.627   1.356 -0.3422  0.0468  0.7308
 8133TIP3    H224364   1.565   1.575   1.238 -0.4828  0.4180  0.4717
 8134TIP3   OH224365   0.673   4.591   4.736  0.3538 -0.3526 -0.2554
 8134TIP3    H124366   0.658   4.672   4.784  1.2232 -0.0991 -0.4003
 8134TIP3    H224367   0.768   4.581   4.736  0.3806 -0.2762 -2.0414
 8135TIP3   OH224368   3.807   6.594   0.296 -0.0789 -0.2705  0.5504
 8135TIP3    H124369   3.779   6.558   0.212  1.1992 -0.6523  0.2621
 8135TIP3    H224370   3.766   6.537   0.361  0.4723 -1.1767  0.1334
 8136TIP3   OH224371   6.041   2.229   1.643  0.8247 -0.5544 -0.3213
 8136TIP3    H124372   6.112   2.177   1.605  0.2788 -1.0604 -0.6617
 8136TIP3    H224373   6.013   2.287   1.573  0.4438 -0.8333 -0.4011
 8137TIP3   OH224374   1.354   1.353   0.413 -0.2272  0.1493  0.1158
 8137TIP3    H124375   1.379   1.262   0.401 -0.6799  0.0119  0.1738
 8137TIP3    H224376   1.332   1.361   0.506  1.0930  0.6519  0.4014
 8138TIP3   OH224377   5.650   4.752   4.754  0.1252  0.0714  0.7608
 8138TIP3    H124378   5.606   4.824   4.709 -1.3019  1.7245  4.4565
 8138TIP3    H224379   5.579   4.696   4.786  0.7889  0.5674  3.3483
 8139TIP3   OH224380   6.952   0.648   3.962  0.1395 -0.3346 -0.2610
 8139TIP3    H124381   6.979   0.740   3.956  1.2845 -0.6085  0.4505
 8139TIP3    H224382   6.926   0.625   3.873 -2.2283  1.2656 -0.0972
 8140TIP3   OH224383   4.853   5.759   0.019  0.3605 -0.7890  0.3565
 8140TIP3    H124384   4.937   5.738   0.059  0.0893 -2.6694  0.0370
 8140TIP3    H224385   4.788   5.715   0.074 -0.3344 -0.2110  0.0162
 8141TIP3   OH224386   3.593   1.674   3.733  0.1190  0.0020  0.1618
 8141TIP3    H124387   3.624   1.761   3.757  0.4578  0.0037 -0.2656
 8141TIP3    H224388   3.500   1.686   3.712  0.9315  1.0293 -3.5054
 8142TIP3   OH224389   0.718   1.068   3.568 -0.1281 -0.2212  0.3805
 8142TIP3    H124390   0.728   1.161   3.588 -1.7934 -0.2532  1.5720
 8142TIP3    H224391   0.643   1.064   3.509  0.8528 -0.7248 -0.9007
 8143TIP3   OH224392   7.174   1.997   0.728 -0.0872  0.1157 -0.2263
 8143TIP3    H124393   7.263   2.022   0.703  0.1505 -1.2216 -0.7895
 8143TIP3    H224394   7.148   2.065   0.791  1.8415 -0.2001  1.0125
 8144TIP3   OH224395   2.648   3.675   5.010  0.3795 -0.1701  0.5310
 8144TIP3    H124396   2.634   3.679   4.915  1.6432  2.8064  0.3533
 8144TIP3    H224397   2.583   3.612   5.041 -1.6949  0.4989 -2.0377
 8145TIP3   OH224398   7.002   4.233   1.365 -0.4067 -0.3657  0.1812
 8145TIP3    H124399   6.967   4.212   1.278 -1.4148 -0.2447  0.5387
 8145TIP3    H224400   7.082   4.283   1.347 -0.5158 -0.4767 -0.6775
 8146TIP3   OH224401   2.306   1.350   1.125  0.2381 -0.6528  0.5675
 8146TIP3    H124402   2.279   1.429   1.079  3.7565  0.9042  0.9267
 8146TIP3    H224403   2.233   1.289   1.111 -1.6098  1.8173 -1.6528
 8147TIP3   OH224404   6.187   1.838   4.627  0.4436 -0.1600  0.4061
 8147TIP3    H124405   6.116   1.832   4.691  0.2345  0.4550  0.2394
 8147TIP3    H224406   6.230   1.922   4.647 -0.2078  0.5035 -0.8534
 8148TIP3   OH224407   4.037   0.066   1.828  0.0236 -0.1998  0.0106
 8148TIP3    H124408   3.964   0.122   1.798 -0.1354 -1.0566 -1.2651
 8148TIP3    H224409   4.018  -0.020   1.791  1.2518 -0.6512  0.3901
 8149TIP3   OH224410   2.651   0.335   4.133  0.0979 -0.0525 -0.1706
 8149TIP3    H124411   2.685   0.285   4.058 -0.8915  0.8020 -1.2160
 8149TIP3    H224412   2.560   0.307   4.141 -0.0156  0.4300  0.2497
 8150TIP3   OH224413   0.263   4.267   5.441  0.0403 -0.2707  0.0350
 8150TIP3    H124414   0.337   4.289   5.497 -1.4178  1.8106  1.3251
 8150TIP3    H224415   0.200   4.224   5.499  0.6601 -3.3097 -1.3356
 8151TIP3   OH224416   1.364   4.004   0.355  0.1774  0.0005 -0.1544
 8151TIP3    H124417   1.356   3.913   0.384  0.5526 -0.3849 -1.2112
 8151TIP3    H224418   1.423   4.000   0.280  0.8217  1.2218  0.2613
 8152TIP3   OH224419   6.203   4.583   4.215 -0.0977  0.2470 -0.4282
 8152TIP3    H124420   6.145   4.515   4.249 -0.6637  1.0188  0.1826
 8152TIP3    H224421   6.276   4.585   4.277  0.0298  0.0521 -0.5694
 8153TIP3   OH224422   2.321   5.516   4.011 -0.2644  1.1082 -0.1543
 8153TIP3    H124423   2.335   5.460   3.935  1.1957 -1.1409  1.6517
 8153TIP3    H224424   2.231   5.498   4.038  0.2465 -0.6425  0.5236
 8154TIP3   OH224425   2.935   3.629   4.026 -0.6073  0.0276  0.4784
 8154TIP3    H124426   2.981   3.709   3.998 -2.2493  0.6280 -0.7068
 8154TIP3    H224427   2.843   3.654   4.025 -1.2375 -2.1534 -0.8801
 8155TIP3   OH224428   5.230   1.551   0.831  0.3228  0.3962 -0.4611
 8155TIP3    H124429   5.297   1.525   0.894 -0.5000 -0.4716  0.0698
 8155TIP3    H224430   5.222   1.646   0.843  1.1882  0.4556 -0.2761
 8156TIP3   OH224431   0.501   0.235   1.968  0.1729  0.6662 -0.2537
 8156TIP3    H124432   0.447   0.228   1.889  0.3895  0.6499 -0.3988
 8156TIP3    H224433   0.522   0.328   1.975  0.6206  0.5890 -0.5262
 8157TIP3   OH224434   1.751   3.328   1.865 -0.1070  0.0417  0.2849
 8157TIP3    H124435   1.732   3.241   1.901  0.3220  0.4100  1.4334
 8157TIP3    H224436   1.749   3.386   1.940  2.1813  0.6297 -0.0286
 8158TIP3   OH224437   4.123   6.491   4.712  0.6236 -0.2976  0.2239
 8158TIP3    H124438   4.066   6.428   4.667 -0.1000  0.0573  0.6305
 8158TIP3    H224439   4.096   6.576   4.678  2.2882 -0.2380 -1.0997
 8159TIP3   OH224440   2.888   1.940   5.406  0.0587 -0.0742 -0.4544
 8159TIP3    H124441   2.893   1.967   5.314 -0.0606  2.0272  0.1108
 8159TIP3    H224442   2.797   1.910   5.417 -0.4172  1.2608 -0.6322
 8160TIP3   OH224443   6.360   6.706   3.627 -0.1430 -0.3651  0.3266
 8160TIP3    H124444   6.419   6.658   3.570  0.8235 -0.1958  1.1459
 8160TIP3    H224445   6.360   6.656   3.709 -0.1610  0.3070  0.7449
 8161TIP3   OH224446   4.344   5.635   0.575  0.3262 -0.0296 -0.7291
 8161TIP3    H124447   4.408   5.567   0.593  0.5452  0.4015  0.2166
 8161TIP3    H224448   4.286   5.634   0.652  1.2025  1.7946  0.0357
 8162TIP3   OH224449   4.198   5.003   5.261 -0.3291 -0.0715 -0.6908
 8162TIP3    H124450   4.220   4.931   5.320 -2.3297  1.1956  1.7998
 8162TIP3    H224451   4.150   4.961   5.189 -1.2710 -1.2989  0.5821
 8163TIP3   OH224452   6.095   4.338   1.588  0.4145  0.0345 -0.4062
 8163TIP3    H124453   6.163   4.402   1.569  0.7045  0.6743  2.3023
 8163TIP3    H224454   6.142   4.255   1.594  0.7591  0.2553  0.0813
 8164TIP3   OH224455   6.361   0.402   3.171  1.0869 -0.0760 -0.0838
 8164TIP3    H124456   6.356   0.372   3.080  1.6834  0.2236 -0.2172
 8164TIP3    H224457   6.411   0.483   3.167 -0.3917  0.8925  0.2906
 8165TIP3   OH224458   1.743   1.782   1.555  0.1973 -0.3505 -0.4082
 8165TIP3    H124459   1.670   1.843   1.541 -0.0936 -0.2848  1.1799
 8165TIP3    H224460   1.725   1.709   1.496 -1.0487 -0.2336 -0.2084
 8166TIP3   OH224461   3.137   4.299   2.028 -0.2824  0.3418 -0.7678
 8166TIP3    H124462   3.191   4.297   1.949  2.0896 -0.7982  0.7688
 8166TIP3    H224463   3.131   4.392   2.050  0.0501  0.5739 -1.6219
 8167TIP3   OH224464   2.881   1.139   1.396 -0.0246  0.3797 -0.1323
 8167TIP3    H124465   2.832   1.100   1.468  0.0218  3.2112  1.5571
 8167TIP3    H224466   2.815   1.190   1.348  0.1457 -0.6905 -1.5756
 8168TIP3   OH224467   3.994   4.502   5.706 -0.0692 -0.2987  0.1922
 8168TIP3    H124468   3.996   4.592   5.673  0.6042 -0.2384  0.3968
 8168TIP3    H224469   3.901   4.486   5.725 -1.0256 -1.2669 -4.2233
 8169TIP3   OH224470   1.615   3.754   1.989 -0.1880  0.0048 -0.1724
 8169TIP3    H124471   1.641   3.799   1.909 -1.5682 -0.2097 -0.7679
 8169TIP3    H224472   1.526   3.784   2.005 -0.3094 -0.7845  0.6827
 8170TIP3   OH224473   1.346   2.126   4.070 -0.4661  0.2754  0.3618
 8170TIP3    H124474   1.371   2.194   4.007 -0.8905 -0.4163 -0.5839
 8170TIP3    H224475   1.421   2.119   4.128  1.0337 -0.7647 -1.5690
 8171TIP3   OH224476   2.599   1.267   5.120 -0.3009  0.3360 -0.0484
 8171TIP3    H124477   2.555   1.224   5.194 -1.1757 -1.0332 -1.3253
 8171TIP3    H224478   2.549   1.240   5.043  0.8975  1.3326 -1.2159
 8172TIP3   OH224479   6.438   6.693   2.121  0.0969  0.4775 -0.7100
 8172TIP3    H124480   6.370   6.744   2.078  0.3207  1.4797  0.0786
 8172TIP3    H224481   6.499   6.759   2.156  1.3289 -0.3722 -1.1627
 8173TIP3   OH224482   6.956   1.352   2.314  0.0030  0.2535  0.1237
 8173TIP3    H124483   6.947   1.257   2.304  1.5143 -0.0524  1.2910
 8173TIP3    H224484   6.869   1.386   2.294 -1.2060 -1.5890  1.8191
 8174TIP3   OH224485   0.935   5.866   1.352 -0.0872  0.1011  0.3590
 8174TIP3    H124486   0.972   5.946   1.388 -0.8237  0.2448  0.8109
 8174TIP3    H224487   0.934   5.880   1.258  0.6399  0.2481  0.3646
 8175TIP3   OH224488   4.777   4.427   1.586 -0.0992 -0.7727  0.1558
 8175TIP3    H124489   4.787   4.471   1.670  0.3777 -0.1101 -0.2388
 8175TIP3    H224490   4.755   4.337   1.608 -1.2516 -0.3008  0.9729
 8176TIP3   OH224491   1.896   0.970   5.468 -0.1670  0.2229  0.2184
 8176TIP3    H124492   1.961   1.030   5.504  0.5325  0.1277 -0.8444
 8176TIP3    H224493   1.818   1.023   5.455  0.8157  1.2694 -1.8912
 8177TIP3   OH224494   5.982   6.744   4.467  0.0753  0.0177 -0.6295
 8177TIP3    H124495   6.077   6.748   4.480  0.2258 -2.7916 -0.2710
 8177TIP3    H224496   5.973   6.704   4.380 -0.8367  1.4230 -1.2130
 8178TIP3   OH224497   1.917   4.812   4.379 -0.2280  0.0995  1.0143
 8178TIP3    H124498   1.920   4.766   4.296 -0.1840  0.1253  1.0013
 8178TIP3    H224499   1.871   4.894   4.360 -0.7724 -0.1750  1.1558
 8179TIP3   OH224500   3.837   1.750   4.049 -0.3337 -0.1547 -0.3598
 8179TIP3    H124501   3.838   1.659   4.078  0.2331 -0.1465 -0.3477
 8179TIP3    H224502   3.858   1.745   3.956  0.7466  0.0418 -0.1326
 8180TIP3   OH224503   1.761   5.795   5.240  0.4025 -0.0228 -0.0359
 8180TIP3    H124504   1.815   5.874   5.253 -1.3696  1.0662  1.0974
 8180TIP3    H224505   1.756   5.755   5.326  2.5866 -2.3587 -0.8772
 8181TIP3   OH224506   7.120   3.632   4.485 -0.2603  0.1995 -0.0667
 8181TIP3    H124507   7.072   3.669   4.411  0.3174  0.2343 -0.4239
 8181TIP3    H224508   7.119   3.537   4.469 -0.8112  0.1356  0.2943
 8182TIP3   OH224509   5.572   5.937   1.795  0.4313 -0.0988  0.0242
 8182TIP3    H124510   5.627   5.877   1.743 -0.5245 -0.5958 -0.4399
 8182TIP3    H224511   5.484   5.923   1.762  0.0459  0.8471  0.6179
 8183TIP3   OH224512   3.129   4.593   5.254  0.7693 -0.1354  0.1084
 8183TIP3    H124513   3.089   4.560   5.334  0.0577 -2.4584 -1.1316
 8183TIP3    H224514   3.078   4.672   5.233 -1.5495 -1.5879 -0.0401
 8184TIP3   OH224515   4.339   0.263   5.657 -0.0386  0.1808  0.4571
 8184TIP3    H124516   4.285   0.255   5.735  0.6560  1.5346  1.1128
 8184TIP3    H224517   4.277   0.274   5.585 -0.6810 -0.9865  0.8227
 8185TIP3   OH224518   3.293   2.262   4.924 -0.2901 -0.3690  0.7078
 8185TIP3    H124519   3.253   2.282   4.839  0.5311  0.4185  0.4890
 8185TIP3    H224520   3.348   2.186   4.907 -0.2948 -0.3456  0.5817
 8186TIP3   OH224521   6.028   2.139   1.141  0.6685 -0.1473 -0.1576
 8186TIP3    H124522   6.106   2.156   1.195  0.8012 -1.7093  0.1965
 8186TIP3    H224523   6.061   2.137   1.051  0.5146  2.0625 -0.3346
 8187TIP3   OH224524   5.452   1.726   2.497 -0.0690  0.2476 -0.1861
 8187TIP3    H124525   5.393   1.683   2.559  0.2768  0.6441  0.4254
 8187TIP3    H224526   5.537   1.728   2.541 -0.1060  1.6720 -0.1367
 8188TIP3   OH224527   6.941   4.515   5.605 -0.0726 -0.3270 -0.1519
 8188TIP3    H124528   6.977   4.427   5.594  0.9810  0.0312  0.2622
 8188TIP3    H224529   6.873   4.522   5.538 -0.5636 -1.6531  0.1791
 8189TIP3   OH224530   5.629   5.138   2.467 -0.4844  0.4348 -0.3624
 8189TIP3    H124531   5.696   5.077   2.437  0.2559 -1.1396  3.8202
 8189TIP3    H224532   5.551   5.084   2.482 -0.6778  1.0049  0.8250
 8190TIP3   OH224533   3.884   4.578   1.238  0.6534  0.4129  0.1862
 8190TIP3    H124534   3.941   4.504   1.216 -0.1866 -0.0158 -0.5998
 8190TIP3    H224535   3.889   4.635   1.161 -0.1587  0.2629  0.0196
 8191TIP3   OH224536   1.851   0.770   0.644  0.0307  0.1603 -1.0966
 8191TIP3    H124537   1.809   0.856   0.644  0.6986  0.5189 -2.3292
 8191TIP3    H224538   1.819   0.728   0.564 -1.0191 -1.1288 -0.0192
 8192TIP3   OH224539   2.437   0.900   0.891  0.0150  0.1307 -0.1228
 8192TIP3    H124540   2.370   0.893   0.959 -0.0695  2.4510  0.1127
 8192TIP3    H224541   2.422   0.825   0.834 -0.3952 -1.4585  1.9701
 8193TIP3   OH224542   0.483   3.178   2.586  0.2983  0.2027 -0.2320
 8193TIP3    H124543   0.531   3.255   2.616  1.1878 -0.6059  0.4636
 8193TIP3    H224544   0.443   3.206   2.503 -1.1543  2.0730  1.0114
 8194TIP3   OH224545   2.656   3.380   0.532  0.0049 -0.0214 -0.4129
 8194TIP3    H124546   2.725   3.436   0.495  1.8030 -0.0328  2.5515
 8194TIP3    H224547   2.600   3.441   0.580 -1.2422 -0.1967 -1.6044
 8195TIP3   OH224548   5.585   3.153   4.846 -0.3702 -0.1824  0.1295
 8195TIP3    H124549   5.658   3.173   4.905  0.5010  0.5048 -1.1366
 8195TIP3    H224550   5.540   3.079   4.888  1.8736 -1.5528  0.2993
 8196TIP3   OH224551   0.793   5.144   0.637 -0.0848 -0.3538 -0.0272
 8196TIP3    H124552   0.886   5.167   0.640 -0.9077  3.8008  0.0168
 8196TIP3    H224553   0.767   5.158   0.545 -1.0111  0.3831  0.3291
 8197TIP3   OH224554   3.398   3.351   0.996 -0.7121  0.0192  0.5022
 8197TIP3    H124555   3.316   3.307   0.973 -1.2164  1.1038  0.1498
 8197TIP3    H224556   3.415   3.409   0.922  0.3485 -0.1479  0.6052
 8198TIP3   OH224557   2.971   5.589   0.400  0.3920  0.8022 -0.5493
 8198TIP3    H124558   2.885   5.565   0.434  0.3365  2.7866  0.8442
 8198TIP3    H224559   3.030   5.523   0.436 -0.6967 -1.7355 -3.0537
 8199TIP3   OH224560   2.466   1.657   0.233 -0.3756  0.4177 -0.5377
 8199TIP3    H124561   2.497   1.634   0.321  0.4252 -1.4274 -1.2399
 8199TIP3    H224562   2.386   1.607   0.222 -0.2134  0.2581 -1.0186
 8200TIP3   OH224563   0.495   1.677   0.437  0.0839 -0.3772  0.3069
 8200TIP3    H124564   0.518   1.764   0.403  1.3790 -0.4961  0.8425
 8200TIP3    H224565   0.505   1.684   0.532 -0.1306 -1.0178  0.3847
 8201TIP3   OH224566   4.016   5.644   4.859  0.1211  0.3627  0.1387
 8201TIP3    H124567   4.005   5.605   4.946 -0.6541 -0.0037 -0.1074
 8201TIP3    H224568   4.110   5.659   4.851  0.5359 -1.8380  0.1037
 8202TIP3   OH224569   0.892   2.213   5.417  0.7392 -0.6954 -0.2682
 8202TIP3    H124570   0.968   2.207   5.475  1.5166 -0.7836 -1.2643
 8202TIP3    H224571   0.851   2.126   5.421  0.3003 -0.4470  0.7750
 8203TIP3   OH224572   1.707   3.452   3.687 -0.4567 -0.4287  0.2321
 8203TIP3    H124573   1.794   3.419   3.707  0.1641  0.9122 -0.1825
 8203TIP3    H224574   1.659   3.442   3.770  0.5561  0.2517  0.9292
 8204TIP3   OH224575   5.946   6.673   5.721  0.3042  0.0875  0.4908
 8204TIP3    H124576   5.993   6.673   5.638  1.2010 -0.4731  0.9887
 8204TIP3    H224577   5.881   6.743   5.711  1.7214  1.4110  0.0436
 8205TIP3   OH224578   6.710   1.011   4.789  0.6298  0.2398  0.0056
 8205TIP3    H124579   6.806   1.008   4.791  0.6261 -1.7802 -0.5142
 8205TIP3    H224580   6.686   0.950   4.719 -1.0648 -0.1427  0.8856
 8206TIP3   OH224581   1.959   6.412   2.712 -0.8965  0.7273  0.0126
 8206TIP3    H124582   1.867   6.396   2.693 -0.7128 -1.0700  0.4528
 8206TIP3    H224583   1.971   6.382   2.803  0.5340 -1.1808 -0.7142
 8207TIP3   OH224584   0.255   1.285   2.996  0.0120 -0.1712  0.1891
 8207TIP3    H124585   0.330   1.313   3.049  0.4830  2.0839 -1.5058
 8207TIP3    H224586   0.180   1.331   3.034  0.2888  1.1529 -0.8027
 8208TIP3   OH224587   6.552   6.727   5.569  0.2969  0.8483  0.3730
 8208TIP3    H124588   6.615   6.734   5.640  0.2843 -0.8947  0.5951
 8208TIP3    H224589   6.605   6.720   5.490  0.3210  1.7144  0.2971
 8209TIP3   OH224590   2.342   1.461   3.760  0.8569 -0.1072  0.4120
 8209TIP3    H124591   2.286   1.539   3.762 -0.2236 -0.8778  1.3184
 8209TIP3    H224592   2.283   1.390   3.735  1.4982 -0.8975  1.1089
 8210TIP3   OH224593   0.955   2.000   1.321  0.4924 -0.3534 -0.4503
 8210TIP3    H124594   0.922   2.085   1.349 -0.2756 -0.4440 -1.0499
 8210TIP3    H224595   0.884   1.963   1.269  1.0992 -1.0601 -0.7857
 8211TIP3   OH224596   3.497   0.781   4.736 -0.4273  0.3151 -0.1165
 8211TIP3    H124597   3.570   0.835   4.767 -0.2962  0.9119 -1.4242
 8211TIP3    H224598   3.422   0.811   4.787  0.4229 -1.2094  2.2258
 8212TIP3   OH224599   5.491   5.185   4.363 -0.2638 -0.0827  0.3189
 8212TIP3    H124600   5.400   5.165   4.343 -0.1759  0.6286 -0.8838
 8212TIP3    H224601   5.514   5.257   4.304  0.9613  0.0145  0.8711
 8213TIP3   OH224602   6.550   0.335   0.510  0.2783  0.1588  0.3455
 8213TIP3    H124603   6.464   0.374   0.493  0.2713 -0.8119 -2.2189
 8213TIP3    H224604   6.546   0.248   0.471  2.5646  0.2697 -0.2954
 8214TIP3   OH224605   7.155   4.947   0.502 -0.3445  0.2147  0.0048
 8214TIP3    H124606   7.166   4.954   0.597  0.3231  1.2919 -0.1380
 8214TIP3    H224607   7.097   5.020   0.479  0.5773  0.7750 -0.5774
 8215TIP3   OH224608   5.135   2.962   3.511  0.2142 -0.0865  0.6006
 8215TIP3    H124609   5.139   2.904   3.587 -1.8065  2.5299  2.9323
 8215TIP3    H224610   5.212   3.018   3.519 -0.2204  0.4700  1.0502
 8216TIP3   OH224611   0.577   5.764   4.549 -0.3233 -0.3312 -0.3365
 8216TIP3    H124612   0.511   5.765   4.618  0.0911 -1.8172  0.1293
 8216TIP3    H224613   0.630   5.842   4.564 -0.7664 -0.1812  0.4921
 8217TIP3   OH224614   3.356   0.524   4.302 -0.2494  0.3001  0.4665
 8217TIP3    H124615   3.278   0.530   4.247 -1.3623 -1.5767  1.7238
 8217TIP3    H224616   3.322   0.531   4.391  1.2338  0.9666  1.0114
 8218TIP3   OH224617   2.618   6.739   2.309  0.1924 -0.4244 -0.3232
 8218TIP3    H124618   2.655   6.815   2.353  0.2479 -0.1285 -0.8836
 8218TIP3    H224619   2.682   6.716   2.241 -1.0913  0.7005 -1.9672
 8219TIP3   OH224620   4.818   0.842   1.483 -0.3378  0.4673  0.1291
 8219TIP3    H124621   4.911   0.843   1.461 -0.0730  0.4993  1.2031
 8219TIP3    H224622   4.816   0.828   1.577 -1.4505 -0.3466 -0.0002
 8220TIP3   OH224623   5.918   5.325   3.740 -0.3690 -0.4040 -0.5369
 8220TIP3    H124624   5.853   5.294   3.678  0.5525 -3.0754 -0.2864
 8220TIP3    H224625   6.001   5.294   3.705  0.2946 -0.9440  1.3772
 8221TIP3   OH224626   5.783   1.134   0.293 -0.7406 -0.8649 -0.1254
 8221TIP3    H124627   5.810   1.044   0.274 -1.0884 -1.4075  1.7736
 8221TIP3    H224628   5.779   1.139   0.388  0.2686  1.4768 -0.1355
 8222TIP3   OH224629   3.816   1.156   3.130 -0.5835  0.4540 -0.4345
 8222TIP3    H124630   3.799   1.240   3.087 -1.1693  0.3155 -0.4876
 8222TIP3    H224631   3.807   1.091   3.060 -1.6356  0.2188 -0.0939
 8223TIP3   OH224632   6.977   4.555   3.434 -0.3947  0.2839 -0.1294
 8223TIP3    H124633   7.056   4.521   3.476 -1.1600 -0.0865  1.0518
 8223TIP3    H224634   6.996   4.550   3.340  0.6307 -0.6615  0.1050
 8224TIP3   OH224635   6.462   2.052   3.764 -0.6020  0.0491 -0.6767
 8224TIP3    H124636   6.531   2.116   3.781 -0.1964 -0.1745 -1.4536
 8224TIP3    H224637   6.466   2.037   3.670 -1.3016 -0.4406 -0.6350
 8225TIP3   OH224638   3.134   2.944   1.272 -1.0076  0.2360 -0.0109
 8225TIP3    H124639   3.210   2.899   1.307 -1.8423 -1.4972 -0.3235
 8225TIP3    H224640   3.065   2.931   1.337 -1.5418  0.1509 -0.5735
 8226TIP3   OH224641   4.388   5.486   3.983  0.3132  0.2957 -0.4708
 8226TIP3    H124642   4.475   5.522   3.965  1.3920 -0.9416  1.7958
 8226TIP3    H224643   4.369   5.430   3.908  0.9915  1.3948 -1.4948
 8227TIP3   OH224644   0.150   6.539   0.456 -0.0416 -0.0184  0.1134
 8227TIP3    H124645   0.135   6.487   0.535  0.3071 -1.0142 -0.4418
 8227TIP3    H224646   0.082   6.606   0.457 -0.2350 -0.2155  1.0852
 8228TIP3   OH224647   4.909   5.804   3.599  0.0938 -0.1391 -0.3590
 8228TIP3    H124648   4.977   5.741   3.621  0.0510 -0.4748 -1.1620
 8228TIP3    H224649   4.851   5.758   3.539 -0.3768  0.4167 -0.3478
 8229TIP3   OH224650   4.366   3.510   3.513  0.1270 -0.1485 -0.5988
 8229TIP3    H124651   4.408   3.432   3.550 -2.9181 -1.8244 -0.4088
 8229TIP3    H224652   4.402   3.516   3.424 -0.1526 -2.3078 -0.9168
 8230TIP3   OH224653   2.684   4.139   5.296 -0.2314  0.2298  0.0085
 8230TIP3    H124654   2.716   4.130   5.207  0.2679 -0.8381  0.2784
 8230TIP3    H224655   2.592   4.114   5.291  0.4495 -2.6481  0.2365
 8231TIP3   OH224656   6.497   6.391   4.175  0.2303 -0.6665 -0.2734
 8231TIP3    H124657   6.429   6.330   4.146 -0.3906  0.4242 -1.1774
 8231TIP3    H224658   6.460   6.433   4.253  0.6965 -1.4946  0.4038
 8232TIP3   OH224659   4.219   3.419   4.274  0.3781  0.3074 -0.3701
 8232TIP3    H124660   4.149   3.478   4.302 -1.2180 -1.3207 -0.6861
 8232TIP3    H224661   4.206   3.412   4.179  1.4883  0.5848 -0.5514
 8233TIP3   OH224662   6.083   0.953   0.226 -0.1413 -0.5733  0.3810
 8233TIP3    H124663   6.132   1.000   0.159  0.9631 -1.7188  0.3428
 8233TIP3    H224664   6.082   1.011   0.302 -0.8656  0.4749 -0.4033
 8234TIP3   OH224665   7.116   1.187   2.945 -0.3048  0.1430 -0.3779
 8234TIP3    H124666   7.042   1.231   2.986 -0.3178 -0.5673  0.3942
 8234TIP3    H224667   7.118   1.101   2.986  1.2122  0.3042 -0.0476
 8235TIP3   OH224668   2.476   6.413   0.337  0.0557 -0.0791  0.2450
 8235TIP3    H124669   2.406   6.358   0.302  0.1069 -1.0557  1.6038
 8235TIP3    H224670   2.553   6.389   0.285 -0.3487  0.1478 -0.4743
 8236TIP3   OH224671   1.534   3.277   3.435  0.3859 -0.6154  0.1732
 8236TIP3    H124672   1.499   3.190   3.419  0.4145 -0.7128  0.6056
 8236TIP3    H224673   1.618   3.279   3.388  0.6425 -1.0164  0.6006
 8237TIP3   OH224674   2.100   0.759   5.778 -0.2143 -0.1833 -0.0243
 8237TIP3    H124675   2.043   0.830   5.807  1.3213  0.3737  1.8252
 8237TIP3    H224676   2.178   0.803   5.742 -0.6914 -0.9307 -2.1223
 8238TIP3   OH224677   7.165   5.813   4.668 -0.0362  0.2666  0.3248
 8238TIP3    H124678   7.200   5.746   4.726  2.8135  0.9993 -0.3598
 8238TIP3    H224679   7.099   5.768   4.616  2.2455 -2.2991 -0.6011
 8239TIP3   OH224680   4.746   6.390   3.975  0.1400  0.1488 -0.2583
 8239TIP3    H124681   4.766   6.345   3.893 -1.5845 -0.6671 -0.2804
 8239TIP3    H224682   4.693   6.327   4.024  0.4483  0.9335  1.1423
 8240TIP3   OH224683   4.788   5.771   3.179 -0.1039  0.6415  0.2023
 8240TIP3    H124684   4.747   5.753   3.094  0.0881  2.5774 -0.3454
 8240TIP3    H224685   4.802   5.684   3.217  0.3707 -0.3332 -2.0088
 8241TIP3   OH224686   5.358   6.157   0.534  0.6212 -0.4844  0.6568
 8241TIP3    H124687   5.402   6.076   0.560  2.0295 -0.2530 -0.8166
 8241TIP3    H224688   5.426   6.207   0.488 -0.2980  1.4036  1.2486
 8242TIP3   OH224689   5.079   2.124   0.733 -0.2213  0.1796  0.2568
 8242TIP3    H124690   5.117   2.211   0.719  1.6461 -0.2706  2.0225
 8242TIP3    H224691   5.034   2.130   0.817 -0.0992 -0.5525  0.3846
 8243TIP3   OH224692   0.877   4.203   4.345  0.2583  0.2169 -0.0174
 8243TIP3    H124693   0.894   4.231   4.255  1.0458 -1.0315 -0.2777
 8243TIP3    H224694   0.863   4.109   4.339 -0.5517  0.2459  1.0669
 8244TIP3   OH224695   3.332   4.718   4.054 -0.1263 -0.1767 -0.0740
 8244TIP3    H124696   3.313   4.777   4.126 -0.5658 -1.3898  0.8460
 8244TIP3    H224697   3.428   4.711   4.052 -0.1370 -1.3311  1.4438
 8245TIP3   OH224698   2.699   0.471   5.166 -0.0548 -0.2415  0.1691
 8245TIP3    H124699   2.776   0.514   5.130 -1.9560  2.2721 -1.1974
 8245TIP3    H224700   2.653   0.436   5.090  0.0322 -2.4092  1.0321
 8246TIP3   OH224701   1.832   3.777   2.933 -0.5967  0.2658 -0.2399
 8246TIP3    H124702   1.786   3.695   2.919 -0.8449  0.3557  0.0341
 8246TIP3    H224703   1.877   3.794   2.851  0.4986 -0.7965  0.0997
 8247TIP3   OH224704   5.651   1.209   3.081  0.1834 -0.8302 -0.3708
 8247TIP3    H124705   5.718   1.171   3.025  0.2573 -0.2714 -0.6724
 8247TIP3    H224706   5.698   1.237   3.160  0.2983 -0.5094 -0.5492
 8248TIP3   OH224707   5.345   6.356   1.588 -0.0138 -0.3215 -0.0324
 8248TIP3    H124708   5.367   6.449   1.589  1.0910 -0.5531 -0.8949
 8248TIP3    H224709   5.249   6.354   1.594 -0.0054  0.8267  0.8770
 8249TIP3   OH224710   4.414   2.207   4.902  0.0941  0.0246  0.5477
 8249TIP3    H124711   4.371   2.130   4.939  1.6189 -0.5095  1.2944
 8249TIP3    H224712   4.404   2.197   4.808  0.7510 -1.4099  0.6056
 8250TIP3   OH224713   3.433   4.840   2.201  0.1691 -0.3391  0.0218
 8250TIP3    H124714   3.383   4.777   2.150 -1.2246 -0.2806  1.2301
 8250TIP3    H224715   3.389   4.924   2.186  0.8699  0.0170 -0.1130
 8251TIP3   OH224716   3.504   1.904   1.956 -0.6162  0.8771  0.0834
 8251TIP3    H124717   3.535   1.948   2.035 -0.4503  1.6249 -0.3820
 8251TIP3    H224718   3.540   1.816   1.962  1.6318  1.6808 -0.3880
 8252TIP3   OH224719   0.218   3.579   3.207  0.0406 -0.4289  0.4038
 8252TIP3    H124720   0.250   3.490   3.221  2.7481  0.6899  2.1390
 8252TIP3    H224721   0.175   3.576   3.121  1.5363 -3.0061 -0.3540
 8253TIP3   OH224722   1.096   5.358   3.459 -0.1068 -0.1636  0.2570
 8253TIP3    H124723   1.103   5.315   3.544  0.3792  1.8812  1.3259
 8253TIP3    H224724   1.002   5.373   3.448 -0.0870  0.8037  1.1515
 8254TIP3   OH224725   5.026   0.551   0.947 -0.5534 -0.0453 -0.3449
 8254TIP3    H124726   5.110   0.575   0.909 -0.6018 -0.9843 -1.1030
 8254TIP3    H224727   5.024   0.594   1.032  0.3660  0.5930 -0.6325
 8255TIP3   OH224728   6.938   1.601   2.487  0.3547 -0.3906  0.0141
 8255TIP3    H124729   7.018   1.578   2.536  1.3364 -0.5953 -1.6042
 8255TIP3    H224730   6.917   1.521   2.438 -0.2675 -0.0190 -0.3234
 8256TIP3   OH224731   4.913   5.000   3.009  0.0655  0.6547  0.0641
 8256TIP3    H124732   4.997   4.953   3.007 -0.6130 -0.5741 -1.1767
 8256TIP3    H224733   4.853   4.940   3.054 -0.4225  1.0456 -0.0580
 8257TIP3   OH224734   2.560   3.410   4.354 -0.4829  0.1085 -0.0810
 8257TIP3    H124735   2.544   3.317   4.373  2.7478 -0.9837 -1.8845
 8257TIP3    H224736   2.639   3.431   4.404 -1.4925  2.1385  0.7658
 8258TIP3   OH224737   3.170   1.855   3.859  0.3372 -0.4256 -0.4286
 8258TIP3    H124738   3.200   1.890   3.943  0.6919  0.9913 -1.1294
 8258TIP3    H224739   3.090   1.903   3.839  0.5688 -0.3410 -1.1810
 8259TIP3   OH224740   4.460   2.380   2.860 -0.1373 -0.0284  0.5693
 8259TIP3    H124741   4.491   2.323   2.930 -0.1207 -0.2179  0.4091
 8259TIP3    H224742   4.400   2.324   2.809 -0.2764  0.1568  0.5296
 8260TIP3   OH224743   2.219   1.948   3.048  0.4781  0.2168 -0.6786
 8260TIP3    H124744   2.140   1.936   3.099 -0.0340  0.7476 -1.3196
 8260TIP3    H224745   2.190   1.944   2.957  1.3636 -0.7098 -0.9485
 8261TIP3   OH224746   4.964   5.883   1.769 -0.2859 -0.1642 -0.0866
 8261TIP3    H124747   4.894   5.935   1.807 -0.1453  1.1022 -1.4577
 8261TIP3    H224748   5.030   5.947   1.742  1.1524 -1.2861  0.6435
 8262TIP3   OH224749   1.580   1.671   5.022  0.3030  0.0630  0.1498
 8262TIP3    H124750   1.523   1.595   5.028  0.7892 -0.3035  0.1938
 8262TIP3    H224751   1.534   1.731   4.964  0.4846 -0.7926 -0.9169
 8263TIP3   OH224752   2.543   3.146   0.394  0.1430  0.0806 -0.0474
 8263TIP3    H124753   2.569   3.229   0.434 -0.3349  0.8104 -1.2023
 8263TIP3    H224754   2.514   3.170   0.306 -0.6019 -1.2344 -0.1836
 8264TIP3   OH224755   4.620   0.937   2.520  0.1085  0.7505  0.2712
 8264TIP3    H124756   4.598   0.909   2.609 -0.5359 -0.5023 -0.2555
 8264TIP3    H224757   4.709   0.904   2.506  0.4181  1.4146  0.6261
 8265TIP3   OH224758   1.182   4.853   3.657 -0.4727  0.1872  0.9753
 8265TIP3    H124759   1.145   4.882   3.740 -0.3188 -1.6444  1.7326
 8265TIP3    H224760   1.276   4.850   3.672 -0.5443 -1.6106  1.2810
 8266TIP3   OH224761   3.394   2.980   3.651 -0.4438 -0.0580  0.2772
 8266TIP3    H124762   3.350   3.004   3.733  0.7009  1.1972  0.5657
 8266TIP3    H224763   3.404   3.063   3.604 -0.0004 -0.5862 -0.5902
 8267TIP3   OH224764   3.943   3.680   5.056 -0.6549  0.1531 -0.2714
 8267TIP3    H124765   3.900   3.671   5.140 -0.4713 -0.9661 -0.2892
 8267TIP3    H224766   3.925   3.599   5.009  1.2609 -0.2878 -0.3598
 8268TIP3   OH224767   2.939   5.821   4.991  0.6770 -0.7614 -0.4093
 8268TIP3    H124768   2.912   5.824   4.899 -1.0809 -1.2781  0.0570
 8268TIP3    H224769   2.858   5.823   5.040  1.5859 -0.6017  1.1537
 8269TIP3   OH224770   5.196   4.373   0.644  0.0063 -0.8148  0.1512
 8269TIP3    H124771   5.239   4.345   0.725  2.1057  1.9555  0.1666
 8269TIP3    H224772   5.262   4.428   0.600 -1.9227 -0.2663 -2.2694
 8270TIP3   OH224773   4.696   3.197   3.329 -0.1485 -0.6128 -0.2787
 8270TIP3    H124774   4.626   3.132   3.327 -2.1709  1.3556  1.4683
 8270TIP3    H224775   4.718   3.211   3.237 -2.6606 -0.7339 -0.9747
 8271TIP3   OH224776   3.356   1.802   4.781  0.3701  0.1083  0.9682
 8271TIP3    H124777   3.327   1.758   4.701 -0.3059 -0.9143  1.7474
 8271TIP3    H224778   3.302   1.881   4.786  0.7420  0.4260  0.1946
 8272TIP3   OH224779   0.731   2.571   5.518  0.1411 -0.2213  0.4367
 8272TIP3    H124780   0.819   2.608   5.517  0.6929 -1.4098 -1.8203
 8272TIP3    H224781   0.673   2.647   5.512  1.0947  0.4764 -0.3556
 8273TIP3   OH224782   2.960   6.739   5.041  0.1081 -0.3117 -0.0608
 8273TIP3    H124783   2.884   6.790   5.066  0.1408 -0.1161 -0.3521
 8273TIP3    H224784   2.981   6.686   5.118 -0.5448 -0.6434 -0.1054
 8274TIP3   OH224785   6.630   6.575   4.972  0.0239 -0.2223  0.1347
 8274TIP3    H124786   6.659   6.490   5.005  1.4082 -0.0800 -0.6398
 8274TIP3    H224787   6.551   6.595   5.022 -0.2166 -1.8729  0.4584
 8275TIP3   OH224788   4.717   4.984   4.502 -0.2498  0.1932 -0.5578
 8275TIP3    H124789   4.649   5.037   4.543  0.2948 -0.0120  0.6682
 8275TIP3    H224790   4.670   4.925   4.443 -1.1836 -0.1835  0.5257
 8276TIP3   OH224791   3.665   0.944   0.683 -0.6091  0.0362  0.6014
 8276TIP3    H124792   3.629   0.858   0.660  0.7766 -0.7188  1.1702
 8276TIP3    H224793   3.752   0.926   0.718  0.3793  1.8143 -0.7471
 8277TIP3   OH224794   1.339   6.285   2.197 -0.7793  0.2423  0.0094
 8277TIP3    H124795   1.289   6.260   2.120 -0.2840 -0.3817 -0.1170
 8277TIP3    H224796   1.420   6.322   2.163 -0.4307 -0.3096  0.2349
 8278TIP3   OH224797   4.553   6.332   5.587 -0.2954  0.5876 -0.1007
 8278TIP3    H124798   4.465   6.303   5.563  0.4502 -1.0189 -1.1157
 8278TIP3    H224799   4.588   6.261   5.641  0.5541  0.9367 -0.1641
 8279TIP3   OH224800   1.130   1.650   4.403  0.1411  0.2850  0.5586
 8279TIP3    H124801   1.099   1.577   4.458 -2.1877  1.1785  0.5433
 8279TIP3    H224802   1.156   1.718   4.466 -1.6105  0.9458  0.6108
 8280TIP3   OH224803   5.565   5.468   1.854 -0.0606  0.3593 -0.0612
 8280TIP3    H124804   5.625   5.394   1.860  0.2108  0.5257 -0.6174
 8280TIP3    H224805   5.486   5.431   1.815 -0.4534  0.0696  0.9820
 8281TIP3   OH224806   3.924   6.023   2.026 -0.0452  0.0511  0.6026
 8281TIP3    H124807   3.877   5.962   1.969  0.2904 -0.2942  0.6895
 8281TIP3    H224808   3.866   6.036   2.101 -0.8993  1.2196 -0.2229
 8282TIP3   OH224809   3.710   2.542   5.870 -0.2181  0.0015 -0.9418
 8282TIP3    H124810   3.697   2.633   5.895 -1.9116 -0.4137 -0.1592
 8282TIP3    H224811   3.802   2.525   5.889  0.3707  1.7612 -1.9357
 8283TIP3   OH224812   4.989   3.257   2.636  0.6446  0.3271  0.1163
 8283TIP3    H124813   4.938   3.224   2.710 -2.0150  1.9657 -0.8580
 8283TIP3    H224814   5.012   3.179   2.586  1.8032 -0.7397  2.1804
 8284TIP3   OH224815   2.199   0.422   3.112 -0.3789  0.1604 -0.6526
 8284TIP3    H124816   2.279   0.423   3.060 -0.1939  0.0258 -0.3718
 8284TIP3    H224817   2.206   0.497   3.170  0.3215 -0.7780  0.5306
 8285TIP3   OH224818   0.208   0.130   1.321 -0.8064 -0.0160 -0.0954
 8285TIP3    H124819   0.151   0.133   1.243 -1.7562  1.8138  0.6182
 8285TIP3    H224820   0.158   0.174   1.389  0.9227  0.4235  0.9536
 8286TIP3   OH224821   0.296   3.975   3.423  0.6400 -0.2199  0.4888
 8286TIP3    H124822   0.289   3.886   3.457  2.8620 -0.6401  0.0088
 8286TIP3    H224823   0.283   4.031   3.500  0.1246 -0.9821  0.9706
 8287TIP3   OH224824   6.507   3.388   1.261 -0.3106  0.4553 -0.1695
 8287TIP3    H124825   6.492   3.343   1.344  1.4866 -0.0669 -0.0870
 8287TIP3    H224826   6.422   3.386   1.217 -1.0283 -0.2338  1.1723
 8288TIP3   OH224827   5.556   2.080   5.025  0.9044 -0.3402  0.3807
 8288TIP3    H124828   5.491   2.070   4.956 -1.0632  0.5688  1.9902
 8288TIP3    H224829   5.534   2.013   5.089  2.8257 -1.3164  0.0942
 8289TIP3   OH224830   1.244   3.027   3.137  0.0007 -0.6606  0.0974
 8289TIP3    H124831   1.154   3.025   3.169  0.3686  1.2084  1.4549
 8289TIP3    H224832   1.243   3.092   3.066  0.3171 -0.4061  0.3202
 8290TIP3   OH224833   0.345   2.998   0.643 -0.4717 -0.2612 -0.9045
 8290TIP3    H124834   0.358   3.020   0.551 -1.8627 -0.9647 -1.3099
 8290TIP3    H224835   0.336   2.903   0.644 -1.1650 -0.2039 -0.1555
 8291TIP3   OH224836   4.922   4.900   3.298 -0.6656  0.2485  0.2278
 8291TIP3    H124837   4.928   4.987   3.259 -0.5293  0.2809  0.3225
 8291TIP3    H224838   4.830   4.894   3.326 -0.8420  0.1076 -0.3643
 8292TIP3   OH224839   2.327   3.020   5.685 -0.2259  0.0394  0.3415
 8292TIP3    H124840   2.261   2.959   5.717  1.6485 -1.8274  0.8261
 8292TIP3    H224841   2.341   3.081   5.758 -0.0785 -0.7058  0.9444
 8293TIP3   OH224842   0.676   3.868   3.429  0.1928  0.1523 -0.2233
 8293TIP3    H124843   0.587   3.864   3.464  0.4942 -0.4274  0.5248
 8293TIP3    H224844   0.732   3.876   3.507  0.7948  0.4712 -0.6789
 8294TIP3   OH224845   4.408   5.559   1.043  0.6208 -0.3267  0.9919
 8294TIP3    H124846   4.380   5.651   1.047  0.0080 -0.3557 -1.3955
 8294TIP3    H224847   4.469   5.550   1.117 -0.0287  1.7245  1.8550
 8295TIP3   OH224848   3.191   0.539   1.530  0.0556  0.1686  0.2856
 8295TIP3    H124849   3.249   0.501   1.464  1.8378  2.1687  0.5578
 8295TIP3    H224850   3.156   0.618   1.488 -1.6403 -0.4113  0.5373
 8296TIP3   OH224851   7.149   1.190   3.845 -0.2381 -0.0286 -0.0927
 8296TIP3    H124852   7.201   1.242   3.906  2.0336  0.0831 -1.9972
 8296TIP3    H224853   7.175   1.099   3.862 -2.5024 -0.4393  1.6598
 8297TIP3   OH224854   6.755   3.680   0.161  0.7723  0.0621 -0.0635
 8297TIP3    H124855   6.768   3.771   0.188  0.7666  0.6139 -1.7792
 8297TIP3    H224856   6.756   3.631   0.242  0.9348  1.5776  0.9004
 8298TIP3   OH224857   5.985   2.730   0.845 -0.4380  0.0669 -0.4645
 8298TIP3    H124858   6.072   2.704   0.877 -1.1937 -0.6818  1.0608
 8298TIP3    H224859   5.967   2.667   0.775  0.5588  0.7201 -1.3375
 8299TIP3   OH224860   4.575   1.514   1.803 -0.1328 -0.0412  0.5988
 8299TIP3    H124861   4.531   1.599   1.798 -0.3634 -0.2140 -0.5679
 8299TIP3    H224862   4.668   1.534   1.792 -0.2874 -0.0341 -0.8068
 8300TIP3   OH224863   2.641   1.623   4.208  0.3022  0.3049 -0.0674
 8300TIP3    H124864   2.700   1.697   4.198  1.1396 -0.4368 -0.8586
 8300TIP3    H224865   2.583   1.628   4.132 -0.3565  0.7558  0.4540
 8301TIP3   OH224866   4.103   6.789   0.020 -0.2319 -0.1138  0.2795
 8301TIP3    H124867   4.089   6.722  -0.047  0.3917 -0.4973  0.5264
 8301TIP3    H224868   4.052   6.759   0.095 -0.4784  0.0269  0.1688
 8302TIP3   OH224869  -0.004   5.333   5.417 -0.2185 -0.0930  0.6602
 8302TIP3    H124870   0.060   5.263   5.430 -1.3847 -1.8158 -2.0317
 8302TIP3    H224871   0.045   5.403   5.374  0.5440  0.0492  1.7025
 8303TIP3   OH224872   2.345   3.395   1.838  0.0067  0.2067  0.1837
 8303TIP3    H124873   2.262   3.351   1.820  1.2686 -2.6016  0.6342
 8303TIP3    H224874   2.338   3.423   1.929 -0.1531 -0.8419  0.5135
 8304TIP3   OH224875   1.849   2.702   0.150  0.3006  0.1229  0.1077
 8304TIP3    H124876   1.911   2.702   0.223  1.3266 -0.2428 -0.7527
 8304TIP3    H224877   1.826   2.610   0.138 -0.2224  0.2311  0.2596
 8305TIP3   OH224878   6.621   5.894   1.228 -0.1463 -0.8342  0.1381
 8305TIP3    H124879   6.664   5.875   1.312  0.9755 -0.7654 -0.4150
 8305TIP3    H224880   6.692   5.913   1.168 -1.0357  0.9763 -0.3860
 8306TIP3   OH224881   6.117   5.656   0.772 -0.1098 -0.2611  0.4470
 8306TIP3    H124882   6.069   5.685   0.849 -0.2992 -0.0052  0.2360
 8306TIP3    H224883   6.109   5.729   0.710  0.5807 -0.2013  0.4231
 8307TIP3   OH224884   4.003   0.217   4.214 -1.0414 -0.0522  0.2233
 8307TIP3    H124885   4.080   0.242   4.162 -0.2812 -0.8854  0.9297
 8307TIP3    H224886   3.937   0.193   4.148 -0.4506 -0.0628 -0.3739
 8308TIP3   OH224887   4.770   5.371   5.204 -0.1779  0.4903 -0.1652
 8308TIP3    H124888   4.677   5.347   5.195 -0.2798  1.3210 -1.7146
 8308TIP3    H224889   4.772   5.428   5.280 -0.9295  0.4092 -0.0699
 8309TIP3   OH224890   4.920   1.534   3.714  0.3053  0.1705 -0.3002
 8309TIP3    H124891   4.950   1.508   3.627  0.8552  0.6008 -0.2443
 8309TIP3    H224892   4.982   1.601   3.742 -0.1215  0.3465  0.2458
 8310TIP3   OH224893   2.935   1.182   2.384 -0.0202  0.4126  0.1019
 8310TIP3    H124894   3.027   1.200   2.405  0.0087 -0.0518  0.3879
 8310TIP3    H224895   2.903   1.130   2.458  0.1269 -1.3530 -1.0164
 8311TIP3   OH224896   4.167   6.261   0.056  0.2600 -0.6919  0.2935
 8311TIP3    H124897   4.238   6.248  -0.007  0.1414 -2.6611  0.5018
 8311TIP3    H224898   4.126   6.344   0.030  3.0741  0.9587  0.6287
 8312TIP3   OH224899   1.621   4.460   5.156  0.4698 -0.4285  0.2429
 8312TIP3    H124900   1.678   4.440   5.082 -0.1738 -1.8758  0.1172
 8312TIP3    H224901   1.590   4.375   5.187 -1.8039  0.3104  0.1879
 8313TIP3   OH224902   6.601   2.771   5.094 -0.0616  1.1057  0.2375
 8313TIP3    H124903   6.630   2.796   5.182  1.0505  2.1307 -0.3842
 8313TIP3    H224904   6.531   2.832   5.074 -2.4812 -1.0414  1.5337
 8314TIP3   OH224905   5.772   4.973   2.230  0.7189 -0.3600  0.0960
 8314TIP3    H124906   5.827   4.906   2.269  2.0758  0.0910 -0.9635
 8314TIP3    H224907   5.683   4.951   2.258  1.3682 -1.3873  1.4461
 8315TIP3   OH224908   1.545   4.136   1.493 -0.3303 -0.2085 -0.2143
 8315TIP3    H124909   1.501   4.069   1.545 -2.7168  0.5315 -1.1222
 8315TIP3    H224910   1.565   4.093   1.410  1.2071 -0.6839  0.3678
 8316TIP3   OH224911   0.422   5.160   4.848 -0.2847 -0.8228 -0.3172
 8316TIP3    H124912   0.439   5.137   4.940 -0.2439 -0.9725 -0.3626
 8316TIP3    H224913   0.393   5.251   4.852 -1.0638 -1.0763 -0.0755
 8317TIP3   OH224914   4.539   3.882   4.313  0.1309  0.0975 -0.0302
 8317TIP3    H124915   4.571   3.911   4.399  3.1187 -1.7766 -0.3635
 8317TIP3    H224916   4.606   3.911   4.251 -0.6994 -0.7426 -1.3848
 8318TIP3   OH224917   0.256   5.159   3.190 -0.4129  0.1678 -0.3847
 8318TIP3    H124918   0.200   5.163   3.112 -0.6029 -1.1170 -0.3379
 8318TIP3    H224919   0.345   5.172   3.157 -0.3920 -1.2787 -0.9691
 8319TIP3   OH224920   1.579   2.522   1.069 -0.0534  0.9390 -0.0618
 8319TIP3    H124921   1.537   2.439   1.046  3.6586 -1.2146 -0.0075
 8319TIP3    H224922   1.585   2.570   0.987 -2.0191  1.0850 -0.1478
 8320TIP3   OH224923   1.413   0.330   1.462 -0.1244  0.0771 -0.0412
 8320TIP3    H124924   1.437   0.370   1.378 -1.0655 -1.3475 -1.0408
 8320TIP3    H224925   1.444   0.240   1.455 -2.2751 -0.7327  0.1555
 8321TIP3   OH224926   0.728   2.155   5.731  0.8233 -0.0681  0.1332
 8321TIP3    H124927   0.675   2.193   5.801  0.6996  0.1764 -0.0913
 8321TIP3    H224928   0.685   2.184   5.650  1.6019  0.5817 -0.0581
 8322TIP3   OH224929   6.871   3.282   2.303 -0.2191 -0.0257 -0.9444
 8322TIP3    H124930   6.847   3.263   2.212 -0.8919  0.7086 -0.9306
 8322TIP3    H224931   6.950   3.230   2.318 -0.4571 -0.6455 -1.7503
 8323TIP3   OH224932   3.740   4.309   0.605 -0.0963  0.1834  0.2417
 8323TIP3    H124933   3.830   4.325   0.578 -0.8602  2.9575 -1.0157
 8323TIP3    H224934   3.699   4.395   0.606 -2.4649 -0.8424  1.9356
 8324TIP3   OH224935   3.489   4.444   3.854 -0.4480 -0.3360 -0.2348
 8324TIP3    H124936   3.575   4.470   3.820 -0.3225  0.5926  0.7326
 8324TIP3    H224937   3.453   4.388   3.786  0.5288  0.0242 -1.0885
 8325TIP3   OH224938   6.249   5.308   4.967 -0.1661  0.0964  0.2763
 8325TIP3    H124939   6.252   5.282   5.059  0.9126 -0.9429 -0.0431
 8325TIP3    H224940   6.163   5.279   4.937 -0.7544  0.9421  1.0828
 8326TIP3   OH224941   1.552   5.123   2.713  0.7868  0.3451 -0.2377
 8326TIP3    H124942   1.544   5.216   2.735 -2.5272  0.5776 -1.7345
 8326TIP3    H224943   1.569   5.122   2.619  1.1074 -0.5757 -0.1797
 8327TIP3   OH224944   1.102   5.413   0.110  0.0109 -0.6276 -0.4649
 8327TIP3    H124945   1.115   5.507   0.117  1.9976 -0.9205  0.6901
 8327TIP3    H224946   1.060   5.388   0.193 -0.4371 -0.7831 -0.7325
 8328TIP3   OH224947   0.836   6.600   3.672  0.1920 -0.3847 -0.0464
 8328TIP3    H124948   0.843   6.616   3.578  0.8489 -1.0182 -0.1136
 8328TIP3    H224949   0.743   6.614   3.692  0.2433  0.8617 -0.5650
 8329TIP3   OH224950   3.138   5.465   3.535  0.0858 -0.2545  0.1441
 8329TIP3    H124951   3.162   5.510   3.454  1.8628  0.5698  1.0683
 8329TIP3    H224952   3.059   5.510   3.565  0.2772  0.4388 -0.3553
 8330TIP3   OH224953   6.935   0.544   5.838 -0.3900 -0.0197  0.8256
 8330TIP3    H124954   6.967   0.531   5.748  1.4130 -0.1759  1.4445
 8330TIP3    H224955   6.849   0.585   5.827 -0.2246 -0.0620 -0.9753
 8331TIP3   OH224956   6.767   0.870   0.090 -0.3780 -0.3014 -0.2658
 8331TIP3    H124957   6.789   0.815   0.015 -1.0079 -1.1251  0.1384
 8331TIP3    H224958   6.704   0.933   0.056  1.9451  1.6528 -1.2695
 8332TIP3   OH224959   5.590   4.882   1.654  0.1390  0.1890  0.0286
 8332TIP3    H124960   5.602   4.857   1.745 -0.5729 -0.8361 -0.1373
 8332TIP3    H224961   5.664   4.940   1.635  1.8294 -1.6778  0.4959
 8333TIP3   OH224962   4.829   1.145   4.168 -0.0010 -0.4668  0.1664
 8333TIP3    H124963   4.847   1.236   4.194 -0.9040 -0.6034  1.3250
 8333TIP3    H224964   4.916   1.105   4.163  0.3562  0.2488  0.4555
 8334TIP3   OH224965   4.845   4.782   2.778 -0.3320  0.1259  0.2046
 8334TIP3    H124966   4.778   4.839   2.742 -0.1151  0.7721  0.8007
 8334TIP3    H224967   4.921   4.839   2.789 -0.1534 -0.2457  0.9190
 8335TIP3   OH224968   4.511   4.181   3.078  0.5703  0.5003 -0.0644
 8335TIP3    H124969   4.497   4.259   3.131 -0.4008 -0.0616  0.5380
 8335TIP3    H224970   4.427   4.135   3.080  0.5947  0.3070 -1.8494
 8336TIP3   OH224971   0.385   1.115   4.555  0.0357  0.4212 -0.1931
 8336TIP3    H124972   0.387   1.077   4.643 -1.9916 -1.0132 -0.6910
 8336TIP3    H224973   0.461   1.173   4.552  0.7198 -0.2477  2.1523
 8337TIP3   OH224974   2.264   4.443   0.653 -0.4574  0.2725  0.3975
 8337TIP3    H124975   2.194   4.377   0.652  0.3889 -0.7098 -1.8736
 8337TIP3    H224976   2.247   4.497   0.576  1.5974 -0.4145 -0.6100
 8338TIP3   OH224977   1.184   3.938   5.439 -0.2449  0.2530 -0.2942
 8338TIP3    H124978   1.099   3.976   5.416  0.4387  1.7452 -0.4819
 8338TIP3    H224979   1.222   3.912   5.356  0.0546  0.8926 -0.3684
 8339TIP3   OH224980   4.995   6.696   5.268  0.4662  0.2629 -0.3271
 8339TIP3    H124981   5.049   6.635   5.318  0.9238 -0.9836 -2.2242
 8339TIP3    H224982   5.057   6.758   5.230 -0.0985  3.0786  2.8238
 8340TIP3   OH224983   0.319   4.006   0.658  0.3359 -0.6534 -0.0096
 8340TIP3    H124984   0.314   3.980   0.750  2.1956 -1.8764 -0.2178
 8340TIP3    H224985   0.379   4.080   0.657  1.2437 -1.3785 -0.3542
 8341TIP3   OH224986   5.994   2.437   1.455  0.3324 -0.0160  0.1972
 8341TIP3    H124987   5.996   2.436   1.359  0.6471 -2.1329  0.1771
 8341TIP3    H224988   6.035   2.520   1.479 -0.0613  0.7053 -1.4962
 8342TIP3   OH224989   4.571   6.732   1.603  0.4683 -0.6436 -0.4337
 8342TIP3    H124990   4.642   6.712   1.665 -1.4617 -1.2416  1.7180
 8342TIP3    H224991   4.495   6.748   1.659 -0.5970  2.4183 -2.5179
 8343TIP3   OH224992   7.055   5.809   4.159 -0.6380  0.6564  0.3532
 8343TIP3    H124993   7.042   5.767   4.074 -0.3754 -0.7717  1.0058
 8343TIP3    H224994   7.139   5.776   4.190 -1.1664  0.4231  1.5840
 8344TIP3   OH224995   0.062   3.000   4.261 -0.1200 -0.3923  0.5112
 8344TIP3    H124996  -0.014   2.942   4.256 -1.8128  1.7588 -0.1762
 8344TIP3    H224997   0.095   3.003   4.172  1.1013 -1.6252  0.8760
 8345TIP3   OH224998   5.065   3.519   2.686 -0.6635  0.3226 -0.0773
 8345TIP3    H124999   4.976   3.553   2.676  0.1365  2.5941 -0.1595
 8345TIP3    H225000   5.056   3.424   2.679 -3.1368  0.4562  0.4772
 8346TIP3   OH225001   1.567   3.218   0.767  0.2977 -0.2534  0.4508
 8346TIP3    H125002   1.633   3.222   0.697  0.2783 -1.4882  0.3411
 8346TIP3    H225003   1.600   3.277   0.834  1.9159 -1.3915  0.7130
 8347TIP3   OH225004   2.289   0.333   2.511  0.1307 -0.2897  0.1296
 8347TIP3    H125005   2.282   0.357   2.603 -0.9255  3.0518 -0.6856
 8347TIP3    H225006   2.209   0.284   2.493  0.2245 -0.7472  0.9044
 8348TIP3   OH225007   3.656   1.834   4.507  0.3480  0.4669 -0.1283
 8348TIP3    H125008   3.727   1.894   4.486  0.7163 -0.0360 -0.3282
 8348TIP3    H225009   3.608   1.877   4.578 -0.6358  1.9885 -1.6220
 8349TIP3   OH225010   4.664   3.227   4.024  0.3937 -0.0757  0.0960
 8349TIP3    H125011   4.691   3.251   3.936 -0.0196 -0.9301 -0.2773
 8349TIP3    H225012   4.734   3.170   4.057 -0.2023 -1.0716 -0.3067
 8350TIP3   OH225013   1.881   2.871   2.148 -0.3020 -0.0754  0.1641
 8350TIP3    H125014   1.824   2.884   2.224 -2.3038  0.2103 -1.2754
 8350TIP3    H225015   1.878   2.776   2.132 -0.3249 -0.0692  0.1312
 8351TIP3   OH225016   0.639   0.969   0.369 -0.2983  0.2803 -0.4356
 8351TIP3    H125017   0.558   1.001   0.330 -0.1586 -0.2605 -1.2118
 8351TIP3    H225018   0.679   0.916   0.300  0.2385 -0.2527  0.2678
 8352TIP3   OH225019   1.767   6.241   3.448 -0.0608  0.1249  0.3048
 8352TIP3    H125020   1.749   6.176   3.380  1.5359  1.1039 -1.1545
 8352TIP3    H225021   1.709   6.217   3.520 -1.0659 -1.6048 -0.9851
 8353TIP3   OH225022   7.009   3.528   3.863  0.0838  0.3055 -0.6147
 8353TIP3    H125023   7.089   3.561   3.821  0.3208 -0.3170 -0.6636
 8353TIP3    H225024   6.938   3.579   3.823  0.3703  0.2180 -1.2573
 8354TIP3   OH225025   1.835   2.291   3.869 -0.3386  0.2098 -0.2946
 8354TIP3    H125026   1.839   2.293   3.773  0.5152 -3.2597 -0.4752
 8354TIP3    H225027   1.912   2.241   3.895 -2.1427 -1.6135  1.9545
 8355TIP3   OH225028   6.181   3.258   5.727 -0.1835 -0.2372 -0.2122
 8355TIP3    H125029   6.179   3.165   5.750  0.0965 -0.2495 -0.2302
 8355TIP3    H225030   6.216   3.259   5.638  0.4662 -0.0722  0.0375
 8356TIP3   OH225031   1.108   2.731   0.680  0.1532  0.0090 -0.4449
 8356TIP3    H125032   1.063   2.678   0.614  0.0646  1.3462 -1.4887
 8356TIP3    H225033   1.037   2.769   0.733  0.2368 -2.4166  1.6201
 8357TIP3   OH225034   4.772   2.493   2.048 -0.1433  0.0065 -0.1455
 8357TIP3    H125035   4.701   2.444   2.006  2.0742 -2.6581 -1.0984
 8357TIP3    H225036   4.810   2.544   1.977 -1.0095  1.3956  0.3549
 8358TIP3   OH225037   3.931   5.193   0.292  0.1267  0.2267 -0.2037
 8358TIP3    H125038   3.978   5.128   0.344 -0.3933 -0.2257 -0.2925
 8358TIP3    H225039   4.000   5.252   0.260  0.5283  0.0890  0.3954
 8359TIP3   OH225040   0.201   5.984   4.923 -0.4218 -0.2904 -0.0579
 8359TIP3    H125041   0.128   6.038   4.954 -2.8874 -2.7799 -1.1291
 8359TIP3    H225042   0.250   6.041   4.865 -1.0105  1.7029  1.2971
 8360TIP3   OH225043   7.088   5.419   4.408  0.5789  0.4142  0.0280
 8360TIP3    H125044   7.126   5.493   4.456 -2.8746  1.2093  1.8351
 8360TIP3    H225045   7.072   5.454   4.320  0.0955  1.4407  0.5084
 8361TIP3   OH225046   3.123   6.624   0.461 -0.1582 -0.4433  0.6969
 8361TIP3    H125047   3.186   6.614   0.390  0.1003 -0.2269  0.8917
 8361TIP3    H225048   3.152   6.703   0.507 -1.8826  1.0090 -0.5762
 8362TIP3   OH225049   2.781   1.892   0.909 -0.2277 -0.0458 -0.2314
 8362TIP3    H125050   2.837   1.819   0.935 -0.7341 -0.4186 -0.1781
 8362TIP3    H225051   2.712   1.895   0.974 -1.4427 -0.9184 -1.4305
 8363TIP3   OH225052   2.196   4.240   1.474 -0.1897  0.0350 -0.0846
 8363TIP3    H125053   2.181   4.150   1.446 -0.2684  0.0902 -0.2207
 8363TIP3    H225054   2.152   4.293   1.408  1.1044  0.2304 -0.8295
 8364TIP3   OH225055   4.410   4.522   0.240  0.5074 -0.2350  0.3276
 8364TIP3    H125056   4.483   4.581   0.258  0.7666  0.2919 -2.0924
 8364TIP3    H225057   4.386   4.486   0.325  1.0654  2.5024  1.7414
 8365TIP3   OH225058   0.039   4.026   1.224 -0.0127  0.4162 -0.3977
 8365TIP3    H125059  -0.024   4.077   1.174  0.5833  1.5624 -0.0127
 8365TIP3    H225060  -0.014   3.959   1.269 -0.8172  0.7618 -0.8185
 8366TIP3   OH225061   4.752   1.665   2.022  0.1728 -0.2862  0.2114
 8366TIP3    H125062   4.698   1.694   1.949 -1.4171 -3.6773 -0.1241
 8366TIP3    H225063   4.745   1.735   2.087 -3.9199 -0.0630 -0.2177
 8367TIP3   OH225064   6.803   1.605   4.628  0.4973 -0.3076  0.2747
 8367TIP3    H125065   6.790   1.537   4.694  1.2237  0.2991  1.0605
 8367TIP3    H225066   6.888   1.643   4.649  0.3840  0.4249 -0.5406
 8368TIP3   OH225067   0.108   5.026   4.286 -0.4367  0.5770 -0.1194
 8368TIP3    H125068   0.048   5.023   4.362  3.1980  0.7702  3.0690
 8368TIP3    H225069   0.112   5.118   4.262 -1.0666  0.6173 -0.0909
 8369TIP3   OH225070   4.273   3.938   4.334  0.0468  0.2377 -0.4821
 8369TIP3    H125071   4.368   3.936   4.343 -0.0451  1.4254  1.2522
 8369TIP3    H225072   4.255   4.026   4.299 -0.3940 -0.2139 -1.4285
 8370TIP3   OH225073   6.777   4.544   3.612  0.1572  0.1681 -0.1544
 8370TIP3    H125074   6.703   4.505   3.565 -0.6264  2.1507 -0.6842
 8370TIP3    H225075   6.847   4.548   3.547 -0.4549  1.5568 -0.7631
 8371TIP3   OH225076   1.487   4.335   2.313 -0.4743  0.1948 -0.0492
 8371TIP3    H125077   1.448   4.303   2.231  2.7050 -2.0294 -0.8782
 8371TIP3    H225078   1.576   4.359   2.289  0.4036 -0.0458  2.6760
 8372TIP3   OH225079   2.582   2.129   5.782  0.3365  1.0960  0.0488
 8372TIP3    H125080   2.648   2.093   5.842  1.2696  1.1758 -0.9123
 8372TIP3    H225081   2.632   2.174   5.715 -0.6756  0.6776 -1.0204
 8373TIP3   OH225082   1.779   0.611   1.041  0.3648  0.3836  0.3059
 8373TIP3    H125083   1.867   0.642   1.020  0.5423  0.1672  0.7277
 8373TIP3    H225084   1.733   0.611   0.956  0.4885  1.3690  0.2277
 8374TIP3   OH225085   2.743   5.719   3.380 -0.8247 -0.0693  0.1564
 8374TIP3    H125086   2.801   5.645   3.402 -1.4221 -0.5608  0.1208
 8374TIP3    H225087   2.715   5.753   3.465 -1.5240 -0.6819  0.1892
 8375TIP3   OH225088   3.103   5.512   1.472 -0.2202 -0.5265  0.2674
 8375TIP3    H125089   3.137   5.516   1.382 -1.0642  0.0065 -0.0378
 8375TIP3    H225090   3.038   5.582   1.476 -1.0274 -1.2952  0.9410
 8376TIP3   OH225091   6.887   4.097   2.663  0.3278 -0.3413 -0.0548
 8376TIP3    H125092   6.811   4.064   2.711 -0.3816 -0.3354 -1.1533
 8376TIP3    H225093   6.859   4.182   2.629 -0.2014 -1.5063 -2.7853
 8377TIP3   OH225094   6.985   0.213   1.062  0.2749  0.1529 -0.4359
 8377TIP3    H125095   6.951   0.250   0.981  0.5389  0.5724 -0.3604
 8377TIP3    H225096   6.915   0.157   1.094 -0.1277  0.5742 -0.5651
 8378TIP3   OH225097   3.832   6.224   1.641  0.4084  0.6316 -0.0204
 8378TIP3    H125098   3.759   6.162   1.638  1.2619 -0.5829  2.1548
 8378TIP3    H225099   3.802   6.292   1.701  0.3721  1.1068 -0.5744
 8379TIP3   OH225100   5.725   0.116   1.484 -0.1357  0.2820 -0.4087
 8379TIP3    H125101   5.727   0.020   1.489 -0.3572  0.1511 -2.1243
 8379TIP3    H225102   5.694   0.144   1.570 -0.7063 -1.2167 -0.0936
 8380TIP3   OH225103   4.522   0.170   2.581 -0.0220 -0.3247 -0.6387
 8380TIP3    H125104   4.458   0.132   2.641  0.4507  2.2150  1.6390
 8380TIP3    H225105   4.470   0.221   2.519 -0.3643 -0.5212 -0.5152
 8381TIP3   OH225106   4.747   2.784   2.485  0.1271  0.0357  0.3247
 8381TIP3    H125107   4.754   2.817   2.395 -2.9538  0.2358  0.0445
 8381TIP3    H225108   4.783   2.696   2.481  2.2384  0.8788 -0.5011
 8382TIP3   OH225109   3.232   6.229   1.239 -0.1329 -0.1073  0.8153
 8382TIP3    H125110   3.284   6.150   1.253  1.0336  0.8766  2.3579
 8382TIP3    H225111   3.275   6.274   1.167 -0.9178 -0.9333 -0.2018
 8383TIP3   OH225112   5.264   2.049   1.437 -0.4559  0.0429 -0.2583
 8383TIP3    H125113   5.350   2.014   1.414 -0.3574  0.8339 -1.1465
 8383TIP3    H225114   5.253   2.027   1.530  0.4664 -0.5304 -0.2743
 8384TIP3   OH225115   1.358   0.192   1.187  0.5859 -0.1839  0.0145
 8384TIP3    H125116   1.293   0.175   1.255 -0.0496 -1.0165 -0.7863
 8384TIP3    H225117   1.307   0.204   1.107  1.3716  0.0210 -0.4667
 8385TIP3   OH225118   6.668   2.970   4.678  0.0737  0.3642  0.1359
 8385TIP3    H125119   6.653   3.025   4.754 -0.9637  2.9436 -1.8019
 8385TIP3    H225120   6.584   2.928   4.660  0.3525 -0.3534  0.4717
 8386TIP3   OH225121   3.397   3.820   0.372 -0.5988 -0.7252  0.4036
 8386TIP3    H125122   3.394   3.833   0.277  0.0484 -0.0395  0.4570
 8386TIP3    H225123   3.434   3.902   0.405 -2.2851 -0.3250  1.4015
 8387TIP3   OH225124   2.745   0.782   5.070  0.0929 -0.0499  0.1102
 8387TIP3    H125125   2.677   0.795   5.136  0.1150 -1.0383  0.3479
 8387TIP3    H225126   2.699   0.790   4.987  0.1594  1.7037  0.2111
 8388TIP3   OH225127   0.373   4.767   0.023 -0.2626 -0.2587  0.4240
 8388TIP3    H125128   0.417   4.696   0.070 -0.3009 -0.0761  0.7431
 8388TIP3    H225129   0.413   4.767  -0.064 -1.7843 -2.0596 -0.3284
 8389TIP3   OH225130   2.952   6.754   0.045  0.5050  0.0029 -0.2374
 8389TIP3    H125131   2.960   6.662   0.067 -1.4384 -0.1900 -0.1877
 8389TIP3    H225132   2.872   6.783   0.089  1.2872  1.8270  0.0923
 8390TIP3   OH225133   6.521   6.384   5.869  0.1343  0.3052 -0.0319
 8390TIP3    H125134   6.580   6.385   5.944  1.4332  1.8745 -0.9861
 8390TIP3    H225135   6.580   6.378   5.793 -0.9208  1.5974 -1.0103
 8391TIP3   OH225136   6.491   0.538   5.678  0.0799 -0.5393  0.2409
 8391TIP3    H125137   6.421   0.536   5.743  1.0628  0.7569  1.4081
 8391TIP3    H225138   6.571   0.533   5.730  0.8731 -1.4532 -1.0312
 8392TIP3   OH225139   2.438   2.830   2.283  0.5385 -0.0344 -0.5323
 8392TIP3    H125140   2.501   2.762   2.309  0.3536  0.0799  0.2292
 8392TIP3    H225141   2.493   2.904   2.257  0.7462  0.4518  1.1542
 8393TIP3   OH225142   6.128   3.133   4.820  0.3367  0.0932  0.1247
 8393TIP3    H125143   6.049   3.175   4.786  0.6185 -0.6529 -1.5053
 8393TIP3    H225144   6.199   3.194   4.799  0.0368  2.0512  3.8684
 8394TIP3   OH225145   4.332   4.057   1.213 -0.2928  0.2943 -0.0703
 8394TIP3    H125146   4.337   4.151   1.201  1.8860  0.1370 -0.8121
 8394TIP3    H225147   4.394   4.038   1.282 -1.3737 -0.5351  0.7143
 8395TIP3   OH225148   6.699   0.737   1.559 -0.6384 -0.1340  0.6954
 8395TIP3    H125149   6.659   0.720   1.645 -0.3445  3.2148  1.6550
 8395TIP3    H225150   6.782   0.779   1.580 -0.0859 -0.1755 -1.2651
 8396TIP3   OH225151   5.150   5.863   1.160  0.0194 -0.4216  0.5545
 8396TIP3    H125152   5.164   5.787   1.103 -0.8419 -0.7976  0.8279
 8396TIP3    H225153   5.058   5.886   1.147  0.6982  1.8121 -1.0035
 8397TIP3   OH225154   4.256   2.110   1.064  0.1862 -0.2134 -0.5546
 8397TIP3    H125155   4.257   2.025   1.107  1.4558 -0.8991 -1.8397
 8397TIP3    H225156   4.166   2.120   1.032  0.0306 -1.0982 -0.4149
 8398TIP3   OH225157   2.070   0.746   2.147  0.4228 -0.4809 -0.4508
 8398TIP3    H125158   2.032   0.708   2.226 -0.0530  1.6963  0.4153
 8398TIP3    H225159   2.106   0.670   2.100 -0.3647 -1.9754  1.2228
 8399TIP3   OH225160   5.003   5.061   4.918  0.3159  0.8111 -0.0109
 8399TIP3    H125161   4.987   5.150   4.949 -0.7074 -0.1124  2.3189
 8399TIP3    H225162   4.919   5.017   4.927  0.6672 -0.2931 -1.6450
 8400TIP3   OH225163   4.847   6.788   4.686  0.1975  0.1346 -0.0514
 8400TIP3    H125164   4.808   6.704   4.707  0.1569  0.2091  0.1780
 8400TIP3    H225165   4.774   6.843   4.659  0.5696 -0.8721 -3.5672
 8401TIP3   OH225166   0.165   0.494   3.087  0.1136  0.3771 -0.0144
 8401TIP3    H125167   0.217   0.544   3.024 -1.4773  0.2933 -1.4678
 8401TIP3    H225168   0.230   0.444   3.137  1.4637  0.7299 -1.3249
 8402TIP3   OH225169   6.972   1.022   4.686 -0.4532  0.0836 -0.5754
 8402TIP3    H125170   7.045   1.058   4.737 -0.5089 -0.0854 -0.3755
 8402TIP3    H225171   7.012   0.957   4.629 -0.3478  0.4852 -0.9580
 8403TIP3   OH225172   2.582   0.284   2.198 -0.2375  0.1609 -0.3188
 8403TIP3    H125173   2.544   0.207   2.156  0.6908 -0.4752 -0.0372
 8403TIP3    H225174   2.653   0.249   2.252 -0.0122  1.1837  0.0721
 8404TIP3   OH225175   6.562   1.775   4.534  0.4185  0.5685 -0.2629
 8404TIP3    H125176   6.625   1.704   4.521 -1.2423 -0.9845 -0.2153
 8404TIP3    H225177   6.536   1.768   4.625 -2.8420 -1.5925 -1.1590
 8405TIP3   OH225178   1.601   2.697   2.795 -0.1245  0.4911 -0.1832
 8405TIP3    H125179   1.609   2.661   2.884 -0.2291  0.4885 -0.1748
 8405TIP3    H225180   1.545   2.773   2.805 -2.1682 -0.8916 -0.6149
 8406TIP3   OH225181   0.325   3.877   5.432 -0.5929  0.1431  0.2492
 8406TIP3    H125182   0.260   3.901   5.367 -0.4639 -0.1790 -0.0027
 8406TIP3    H225183   0.397   3.840   5.381 -0.0950  0.7383  0.5003
 8407TIP3   OH225184   4.971   5.087   4.441 -0.9766  0.0977  0.1471
 8407TIP3    H125185   4.945   5.123   4.525 -1.4878  1.4468 -0.5549
 8407TIP3    H225186   4.894   5.040   4.409 -0.3403 -1.6345  1.0199
 8408TIP3   OH225187   1.425   6.135   4.620 -0.0080 -0.2574  0.9642
 8408TIP3    H125188   1.414   6.081   4.542 -1.5789  0.9426  0.3042
 8408TIP3    H225189   1.518   6.129   4.640  0.7598  0.6018 -1.9226
 8409TIP3   OH225190   5.560   3.379   3.040 -0.0123  0.2700 -0.2906
 8409TIP3    H125191   5.532   3.296   3.001 -1.5929  0.6100  0.0428
 8409TIP3    H225192   5.480   3.431   3.046  0.9652  1.8597 -0.5505
 8410TIP3   OH225193   0.680   4.193   1.766 -0.1446 -0.2887 -0.1896
 8410TIP3    H125194   0.688   4.123   1.830  0.7868 -0.1313 -0.1227
 8410TIP3    H225195   0.656   4.149   1.685  0.5511 -0.7079 -0.1763
 8411TIP3   OH225196   2.726   1.558   1.340  0.2658 -0.4034 -0.3033
 8411TIP3    H125197   2.747   1.500   1.266  1.9694 -1.0339  0.6242
 8411TIP3    H225198   2.727   1.501   1.417  1.4928  0.7295  0.5724
 8412TIP3   OH225199   4.751   4.670   4.285  0.0307  0.1895 -0.0679
 8412TIP3    H125200   4.743   4.735   4.215 -0.3277  0.5120  0.2612
 8412TIP3    H225201   4.671   4.682   4.337  0.5167  0.2893  0.6737
 8413TIP3   OH225202   6.661   1.458   4.161 -0.0886 -0.2448 -0.1166
 8413TIP3    H125203   6.596   1.410   4.212  0.3203 -1.6136 -0.8399
 8413TIP3    H225204   6.610   1.504   4.094 -0.7831  2.6719  2.2217
 8414TIP3   OH225205   4.365   5.369   5.420  0.2647  0.1308  0.1147
 8414TIP3    H125206   4.420   5.306   5.373  0.3369  0.3747 -0.1291
 8414TIP3    H225207   4.405   5.454   5.401 -0.1112  0.2947  0.0562
 8415TIP3   OH225208   0.155   3.504   4.010 -0.5809  0.1515  0.1534
 8415TIP3    H125209   0.069   3.487   4.049 -0.4186 -0.9434  0.0661
 8415TIP3    H225210   0.160   3.445   3.935  1.1247 -1.4491  1.4448
 8416TIP3   OH225211   0.610   4.917   5.301  0.0468  0.4595 -0.3990
 8416TIP3    H125212   0.701   4.912   5.274  0.8419 -1.4401  2.1958
 8416TIP3    H225213   0.567   4.844   5.256  0.5167 -0.3894  0.4705
 8417TIP3   OH225214   1.292   0.711   2.714  0.2307  0.2614  0.1153
 8417TIP3    H125215   1.309   0.799   2.748  2.1744 -0.0084 -0.0105
 8417TIP3    H225216   1.217   0.679   2.764 -0.0596  1.7187  0.6501
 8418TIP3   OH225217   2.830   0.902   4.240 -0.1582 -0.3664  0.2714
 8418TIP3    H125218   2.766   0.899   4.310 -1.5247 -1.1638 -0.9625
 8418TIP3    H225219   2.804   0.978   4.187  1.5196  0.9078  1.1826
 8419TIP3   OH225220   3.137   3.706   3.137  0.4120  0.1503  0.0700
 8419TIP3    H125221   3.142   3.802   3.145  2.1149  0.0832  0.2130
 8419TIP3    H225222   3.045   3.686   3.152 -0.3957  1.9288 -1.9205
 8420TIP3   OH225223   2.028   4.187   3.755 -0.6054 -0.0587 -0.3958
 8420TIP3    H125224   2.121   4.171   3.773 -0.2411  1.1008 -1.1048
 8420TIP3    H225225   2.026   4.215   3.664 -1.7064 -0.3886 -0.4877
 8421TIP3   OH225226   1.931   1.851   3.455 -0.1884  0.1308 -0.0509
 8421TIP3    H125227   1.965   1.777   3.506  0.5547  0.8002  0.4424
 8421TIP3    H225228   1.921   1.922   3.518 -1.7490  0.2207 -0.3486
 8422TIP3   OH225229   6.302   2.380   5.677  0.0308  0.1343  0.0764
 8422TIP3    H125230   6.238   2.419   5.618 -0.6508  0.2270  0.8508
 8422TIP3    H225231   6.378   2.361   5.622 -0.5159  0.3833 -0.7792
 8423TIP3   OH225232   1.953   3.087   4.922 -0.6669 -0.0655  0.0348
 8423TIP3    H125233   1.899   3.023   4.967 -1.6289 -0.1964 -1.2427
 8423TIP3    H225234   1.898   3.119   4.851  0.6725  0.3529 -0.8594
 8424TIP3   OH225235   6.040   6.671   4.879  0.0638  0.5594  0.9807
 8424TIP3    H125236   6.029   6.587   4.835  0.0313 -0.9469  3.6326
 8424TIP3    H225237   5.997   6.734   4.822 -1.8566 -1.5825 -0.0915
 8425TIP3   OH225238   1.294   1.774   3.118  0.5458 -0.3673 -0.5725
 8425TIP3    H125239   1.362   1.722   3.162  0.3027 -0.2956 -0.1016
 8425TIP3    H225240   1.322   1.864   3.131 -0.3700 -0.2554  0.8986
 8426TIP3   OH225241   4.038   1.741   0.144  0.2208 -0.3022  0.3325
 8426TIP3    H125242   4.017   1.834   0.145  0.5804 -0.1993 -0.4900
 8426TIP3    H225243   4.070   1.722   0.232 -2.4339 -0.2884  1.3822
 8427TIP3   OH225244   3.272   0.237   0.242 -0.0653  0.3456  0.7337
 8427TIP3    H125245   3.246   0.328   0.255 -0.6964  0.4709 -1.0771
 8427TIP3    H225246   3.321   0.237   0.160 -0.7615 -1.0436  0.2826
 8428TIP3   OH225247   1.495   4.835   3.946  0.1294  0.3345  0.2783
 8428TIP3    H125248   1.450   4.775   4.007 -0.7257  1.8741  1.2148
 8428TIP3    H225249   1.467   4.805   3.860 -2.3630  0.9116  0.8045
 8429TIP3   OH225250   0.291   2.364   0.317  0.3180 -0.2267  0.2898
 8429TIP3    H125251   0.298   2.275   0.280  0.5886 -1.5161  3.1835
 8429TIP3    H225252   0.197   2.377   0.329  0.2056  0.3195 -0.9979
 8430TIP3   OH225253   0.804   0.816   3.121 -0.7959 -0.2975  0.0984
 8430TIP3    H125254   0.833   0.904   3.144  0.9284 -0.7254 -0.3222
 8430TIP3    H225255   0.764   0.826   3.035 -1.0493  0.1373  0.2578
 8431TIP3   OH225256   2.545   5.578   5.119  0.5337  0.2959  0.3453
 8431TIP3    H125257   2.474   5.615   5.067  2.9981 -0.2151 -3.8149
 8431TIP3    H225258   2.602   5.653   5.138  0.5502  0.1795  0.7767
 8432TIP3   OH225259   5.496   3.308   5.238 -0.4847  0.3474 -0.5265
 8432TIP3    H125260   5.412   3.308   5.193 -1.0573 -0.3505  0.5205
 8432TIP3    H225261   5.478   3.270   5.324  0.7684  0.7930 -0.0399
 8433TIP3   OH225262   5.304   4.006   2.137 -0.6207 -0.1459  0.2168
 8433TIP3    H125263   5.310   4.027   2.043  1.5200  0.9983  0.5307
 8433TIP3    H225264   5.352   3.924   2.146 -0.8950 -0.2966  0.3062
 8434TIP3   OH225265   3.768   3.070   4.328 -0.3968  0.0944  0.3074
 8434TIP3    H125266   3.703   3.040   4.391  0.1317  1.0721  1.3332
 8434TIP3    H225267   3.725   3.057   4.243 -1.1655 -1.1073  0.8431
 8435TIP3   OH225268   3.816   0.201   5.079  0.2998  0.0185 -0.2479
 8435TIP3    H125269   3.860   0.283   5.105  1.1372 -0.6853  0.6111
 8435TIP3    H225270   3.866   0.171   5.004 -1.6997  1.6912 -2.3957
 8436TIP3   OH225271   1.947   3.167   2.156 -0.9681  0.1069  0.0587
 8436TIP3    H125272   1.908   3.087   2.192 -0.5107  0.3356  1.1063
 8436TIP3    H225273   2.041   3.153   2.165 -0.8544  0.3305 -0.7382
 8437TIP3   OH225274   3.247   5.588   1.225  0.7839 -0.6365  0.2097
 8437TIP3    H125275   3.240   5.659   1.288  1.1702  0.2436 -0.7048
 8437TIP3    H225276   3.330   5.604   1.180  0.4380 -1.1437 -0.6305
 8438TIP3   OH225277   3.230   5.316   0.798  0.1250 -0.3245  0.5620
 8438TIP3    H125278   3.196   5.341   0.884 -2.2228 -0.6636 -0.1832
 8438TIP3    H225279   3.193   5.229   0.783 -1.2384  0.5356 -1.5903
 8439TIP3   OH225280   1.050   6.299   0.377  0.0916  0.0914 -0.0715
 8439TIP3    H125281   1.095   6.322   0.458  0.2658 -0.1869 -0.0882
 8439TIP3    H225282   0.968   6.348   0.381  0.8772  1.5289 -0.5746
 8440TIP3   OH225283   0.815   0.499   5.340 -0.0167  0.6640  0.2871
 8440TIP3    H125284   0.860   0.439   5.281  0.2853  0.0505  1.1298
 8440TIP3    H225285   0.833   0.586   5.304  3.2228  0.6067  1.4423
 8441TIP3   OH225286   5.093   0.734   5.412  0.3910 -0.1247  0.0778
 8441TIP3    H125287   5.145   0.723   5.332 -0.3844  0.8093 -0.5806
 8441TIP3    H225288   5.055   0.822   5.404  1.4648  0.5958  2.1758
 8442TIP3   OH225289   5.687   6.577   2.756  0.3125  0.1737 -0.0791
 8442TIP3    H125290   5.610   6.554   2.807 -1.2301 -0.3014 -2.4440
 8442TIP3    H225291   5.700   6.671   2.774 -0.5371  0.1569  0.6933
 8443TIP3   OH225292   4.615   3.062   5.124 -0.6884 -0.0569  0.5034
 8443TIP3    H125293   4.573   3.015   5.197  0.5409  0.8636  1.8581
 8443TIP3    H225294   4.585   3.152   5.134  1.2439  0.5520  1.2830
 8444TIP3   OH225295   1.911   1.423   1.323 -0.0960 -0.7200 -0.0542
 8444TIP3    H125296   1.994   1.469   1.322  0.4619 -1.6881 -1.6540
 8444TIP3    H225297   1.899   1.392   1.233 -2.7724  0.4025 -0.1959
 8445TIP3   OH225298   2.509   4.405   1.391 -0.0872  0.2994 -0.3117
 8445TIP3    H125299   2.417   4.430   1.393  0.0293  0.8159 -0.9720
 8445TIP3    H225300   2.515   4.342   1.319 -0.0083 -0.0645  0.0164
 8446TIP3   OH225301   1.845   6.172   0.423  0.0655 -0.5622 -0.2301
 8446TIP3    H125302   1.801   6.100   0.378 -2.9865  1.5795 -0.9870
 8446TIP3    H225303   1.834   6.152   0.516  0.1731 -1.5385 -0.4152
 8447TIP3   OH225304   2.174   1.796   4.120  0.1145 -0.7626  0.1740
 8447TIP3    H125305   2.169   1.714   4.071  1.6427 -0.5726 -0.3534
 8447TIP3    H225306   2.094   1.842   4.097 -0.4983 -1.8617  0.0291
 8448TIP3   OH225307   0.828   3.613   3.338  0.1982  0.1085  0.2358
 8448TIP3    H125308   0.914   3.624   3.377  0.4295  0.7361 -0.4388
 8448TIP3    H225309   0.784   3.697   3.351  0.4447  0.4813 -1.2390
 8449TIP3   OH225310   5.929   4.286   2.808  0.3410 -0.1919 -0.1181
 8449TIP3    H125311   5.937   4.344   2.883  0.1618 -0.6146  0.2310
 8449TIP3    H225312   5.956   4.340   2.733 -1.0329  0.7492  0.0149
 8450TIP3   OH225313   6.784   1.276   2.682  0.0702 -0.0433 -0.4736
 8450TIP3    H125314   6.846   1.203   2.680  1.0694  0.7854 -0.6273
 8450TIP3    H225315   6.715   1.251   2.620 -0.0233 -1.1976  0.0627
 8451TIP3   OH225316   6.839   1.389   5.361 -0.0251  0.2797  0.0856
 8451TIP3    H125317   6.902   1.369   5.431  0.1175  1.2031  0.2304
 8451TIP3    H225318   6.854   1.481   5.341 -0.4619  0.1728 -0.7709
 8452TIP3   OH225319   0.172   4.140   4.965  0.1183 -0.0463 -0.1247
 8452TIP3    H125320   0.216   4.082   4.904  0.5190  0.1948 -0.0708
 8452TIP3    H225321   0.167   4.090   5.047 -0.2453 -0.2954 -0.2968
 8453TIP3   OH225322   0.323   1.954   2.738  0.2982  0.2114  0.1036
 8453TIP3    H125323   0.374   1.995   2.807  1.1755  0.6662 -0.7894
 8453TIP3    H225324   0.234   1.989   2.749  0.4129  0.2383  1.0134
 8454TIP3   OH225325   2.743   6.578   0.119  0.1327  0.5360  0.5448
 8454TIP3    H125326   2.800   6.573   0.196 -1.7493  0.2933  2.0042
 8454TIP3    H225327   2.716   6.488   0.102 -0.3056  0.7137  0.2707
 8455TIP3   OH225328   6.536   3.569   5.718  0.1487  0.2734 -0.0565
 8455TIP3    H125329   6.534   3.505   5.789 -0.0793  0.7095  0.3350
 8455TIP3    H225330   6.540   3.516   5.638  1.7253 -0.2158  0.3184
 8456TIP3   OH225331   2.985   0.722   3.041 -0.2930  0.1768 -0.2779
 8456TIP3    H125332   3.019   0.810   3.024 -0.1252  0.1197 -0.2402
 8456TIP3    H225333   3.014   0.702   3.130  0.1309 -0.1315 -0.4845
 8457TIP3   OH225334   6.336   4.057   2.432  0.2499 -0.2446 -0.2172
 8457TIP3    H125335   6.358   3.990   2.367  1.6466 -1.5099  1.4503
 8457TIP3    H225336   6.266   4.018   2.484  0.4643 -0.0681  0.2111
 8458TIP3   OH225337   1.975   2.410   1.266  0.2722 -0.5488 -0.0723
 8458TIP3    H125338   1.937   2.484   1.219 -1.2940 -3.0128 -3.0356
 8458TIP3    H225339   1.901   2.353   1.287  1.2685 -0.8807  3.1514
 8459TIP3   OH225340   3.240   5.353   2.722  0.0997  0.0641 -0.2277
 8459TIP3    H125341   3.163   5.297   2.726  1.0289 -1.3708 -1.3633
 8459TIP3    H225342   3.211   5.429   2.672 -0.6348 -0.3732 -0.4914
 8460TIP3   OH225343   1.711   0.162   4.731 -0.3396 -0.2505  0.0518
 8460TIP3    H125344   1.640   0.134   4.789  0.0661 -0.3369  0.5093
 8460TIP3    H225345   1.775   0.091   4.736  0.3600  0.4095  0.6393
 8461TIP3   OH225346   1.845   6.019   4.617  0.3049 -0.5343  0.0668
 8461TIP3    H125347   1.791   6.030   4.539  0.9975 -0.7217 -0.4493
 8461TIP3    H225348   1.783   5.996   4.686 -0.5556  1.4754  0.0140
 8462TIP3   OH225349   6.495   6.001   1.507 -0.4779 -0.2155 -0.5682
 8462TIP3    H125350   6.457   6.056   1.438  0.4769  2.6408  0.9731
 8462TIP3    H225351   6.444   6.022   1.585  1.6504  0.7069  0.6744
 8463TIP3   OH225352   1.812   2.289   2.883 -0.2815  0.2274 -0.5418
 8463TIP3    H125353   1.811   2.370   2.934  0.1163 -0.0514 -0.0884
 8463TIP3    H225354   1.798   2.219   2.947  2.9561 -0.3708 -0.3170
 8464TIP3   OH225355   1.426   2.691   3.411 -0.3910 -0.2359 -0.7930
 8464TIP3    H125356   1.392   2.758   3.470 -2.1282 -1.8306  0.1559
 8464TIP3    H225357   1.369   2.696   3.334 -1.3671 -1.3861 -0.1849
 8465TIP3   OH225358   5.057   4.656   4.800  0.4982  0.0372  0.4522
 8465TIP3    H125359   5.094   4.604   4.729  1.8342  1.9825 -0.3718
 8465TIP3    H225360   5.107   4.631   4.877  0.7015 -0.3439  0.1996
 8466TIP3   OH225361   1.850   2.229   1.043  0.1660  0.4707  0.2581
 8466TIP3    H125362   1.935   2.273   1.047 -0.1681  1.0277  2.0111
 8466TIP3    H225363   1.807   2.252   1.125 -2.6089  2.0615 -1.4545
 8467TIP3   OH225364   1.438   1.106   0.443 -0.0970  0.3767  0.5423
 8467TIP3    H125365   1.420   1.095   0.350  0.3405  0.6865  0.4192
 8467TIP3    H225366   1.508   1.044   0.462  2.1452  2.5357 -0.0822
 8468TIP3   OH225367   1.503   1.903   1.219  0.3223 -0.3281  0.0453
 8468TIP3    H125368   1.518   1.996   1.208  1.4789 -0.4128  0.8110
 8468TIP3    H225369   1.551   1.879   1.298 -1.0298 -1.3208  0.6032
 8469TIP3   OH225370   3.623   4.087   0.320  0.1311  0.2248  0.3548
 8469TIP3    H125371   3.681   4.123   0.252 -1.0300 -1.0347 -1.3822
 8469TIP3    H225372   3.659   4.000   0.338 -0.2279  0.1058  0.5071
 8470TIP3   OH225373   5.843   1.909   2.854 -0.6119 -0.5162 -0.0364
 8470TIP3    H125374   5.857   1.858   2.934  0.0921  0.3112  0.3770
 8470TIP3    H225375   5.927   1.906   2.809 -0.8852 -0.6226 -0.5499
 8471TIP3   OH225376   7.181   0.790   1.709 -0.3593  0.3677  0.0897
 8471TIP3    H125377   7.190   0.810   1.802 -0.6521  1.7015 -0.1549
 8471TIP3    H225378   7.090   0.811   1.688  0.0635  1.4440 -0.7920
 8472TIP3   OH225379   4.883   6.573   0.850 -0.6315 -0.5293 -0.1518
 8472TIP3    H125380   4.790   6.578   0.827 -0.6037  1.1867 -0.0125
 8472TIP3    H225381   4.908   6.483   0.830 -1.8459 -0.5075 -2.0385
 8473TIP3   OH225382   1.781   2.590   2.147 -0.7750 -0.0316 -0.0004
 8473TIP3    H125383   1.772   2.624   2.236 -1.9330 -0.5303  0.0942
 8473TIP3    H225384   1.771   2.495   2.157  2.0089 -0.4354 -0.3112
 8474TIP3   OH225385   2.966   4.379   1.589  0.4038  0.2636 -0.0228
 8474TIP3    H125386   3.049   4.367   1.635  0.1480 -2.1596 -0.0816
 8474TIP3    H225387   2.982   4.344   1.502 -0.5212  0.3574 -0.2351
 8475TIP3   OH225388   1.466   1.542   0.209 -0.5625  0.0104 -0.1842
 8475TIP3    H125389   1.424   1.502   0.285 -0.2647  1.4050  0.7483
 8475TIP3    H225390   1.560   1.534   0.226 -0.4056 -1.7966 -1.5747
 8476TIP3   OH225391   4.636   2.689   3.198 -0.0845  0.1449  0.0244
 8476TIP3    H125392   4.673   2.718   3.114  1.2253 -0.7273  0.2631
 8476TIP3    H225393   4.546   2.663   3.177  0.1560  0.1475 -1.0732
 8477TIP3   OH225394   6.840   0.337   5.619  0.2332 -0.0068 -0.3338
 8477TIP3    H125395   6.798   0.260   5.658 -0.1792 -0.3103 -1.3229
 8477TIP3    H225396   6.934   0.320   5.627  0.1681 -1.2533 -1.6601
 8478TIP3   OH225397   0.770   1.308   2.976  0.0484  0.1058 -0.8154
 8478TIP3    H125398   0.771   1.387   2.922 -2.0160 -0.1301 -1.2853
 8478TIP3    H225399   0.710   1.249   2.931 -1.3489 -0.3065  1.4164
 8479TIP3   OH225400   3.318   0.005   0.379 -0.2276 -0.1301  0.4933
 8479TIP3    H125401   3.324   0.097   0.354 -0.8560  0.6755  3.0385
 8479TIP3    H225402   3.371  -0.041   0.314 -0.4102  1.9219 -1.2112
 8480TIP3   OH225403   3.772   6.442   4.680  0.4466  0.5925 -0.1735
 8480TIP3    H125404   3.799   6.411   4.767  0.3291  1.3979  0.1601
 8480TIP3    H225405   3.691   6.394   4.662  0.6544  0.1684  0.0133
 8481TIP3   OH225406   0.127   6.646   3.757  0.0132 -0.3391  0.1922
 8481TIP3    H125407   0.043   6.679   3.729 -0.2726  0.9386  2.3488
 8481TIP3    H225408   0.191   6.709   3.723  0.0230 -0.7123 -0.5061
 8482TIP3   OH225409   0.596   1.006   3.844  0.1806  0.0307 -0.2140
 8482TIP3    H125410   0.676   0.959   3.869  1.2158  2.5700  1.7430
 8482TIP3    H225411   0.605   1.018   3.749  0.6999 -2.0711 -0.4943
 8483TIP3   OH225412   3.572   5.383   0.945 -0.2100  0.1491  0.9481
 8483TIP3    H125413   3.522   5.407   0.867 -0.6772  0.3969  1.3175
 8483TIP3    H225414   3.505   5.368   1.013  0.2690  2.6391  2.0644
 8484TIP3   OH225415   5.952   0.197   2.624 -0.4342 -0.1388  0.2384
 8484TIP3    H125416   5.948   0.115   2.673 -0.4121 -0.0482  0.3945
 8484TIP3    H225417   5.861   0.219   2.606 -0.3736 -1.3586 -1.7811
 8485TIP3   OH225418   3.868   1.449   4.086 -0.1444 -0.3034 -0.2444
 8485TIP3    H125419   3.853   1.436   3.993 -1.4818  0.7135 -0.2005
 8485TIP3    H225420   3.804   1.392   4.129 -1.2979  1.1268 -0.0018
 8486TIP3   OH225421   2.578   3.374   3.841 -0.5470 -0.2549 -0.1574
 8486TIP3    H125422   2.671   3.395   3.850 -0.6722 -0.0273  0.7560
 8486TIP3    H225423   2.573   3.314   3.767  0.2504  0.2179 -0.6114
 8487TIP3   OH225424   2.513   6.169   0.493  0.4420  0.0448 -0.7142
 8487TIP3    H125425   2.503   6.117   0.414  1.1541  1.1642 -1.5709
 8487TIP3    H225426   2.566   6.244   0.466  3.6922 -1.1973  1.5816
 8488TIP3   OH225427   3.482   6.747   5.431 -0.0474 -0.4468 -0.1533
 8488TIP3    H125428   3.502   6.822   5.487  1.7175 -0.3839 -0.8022
 8488TIP3    H225429   3.457   6.677   5.491 -1.2969  0.4976  0.4882
 8489TIP3   OH225430   0.870   5.068   1.989  0.1342  0.5353  0.2609
 8489TIP3    H125431   0.782   5.098   1.965  0.5164  0.3941 -1.4693
 8489TIP3    H225432   0.918   5.149   2.007  0.4151  0.8833 -1.7309
 8490TIP3   OH225433   0.361   3.282   0.291 -0.2883 -0.1261 -0.2464
 8490TIP3    H125434   0.335   3.292   0.200  1.4364 -0.5883 -0.8256
 8490TIP3    H225435   0.323   3.358   0.335 -0.8526  0.2898 -1.3987
 8491TIP3   OH225436   0.637   4.346   0.355  0.5047 -0.1436  0.0416
 8491TIP3    H125437   0.560   4.380   0.311  0.6460  1.3863  0.8906
 8491TIP3    H225438   0.615   4.351   0.449  1.6943  0.5288  0.3031
 8492TIP3   OH225439   0.871   2.935   5.088 -0.2941 -0.1383 -0.0754
 8492TIP3    H125440   0.817   2.860   5.115 -0.2104 -0.8517 -1.7446
 8492TIP3    H225441   0.937   2.943   5.157 -0.5682 -1.3368  0.3511
 8493TIP3   OH225442   1.799   5.557   0.274 -0.6758  0.3627 -0.7819
 8493TIP3    H125443   1.889   5.582   0.295 -0.3073 -0.7143 -1.0300
 8493TIP3    H225444   1.804   5.521   0.185 -1.0590 -1.1576 -0.2101
 8494TIP3   OH225445   1.739   1.157   0.075 -0.6213 -0.2819  0.1748
 8494TIP3    H125446   1.695   1.241   0.058  1.6509  1.3201  1.5824
 8494TIP3    H225447   1.720   1.104  -0.002  0.9793  2.9482 -2.7497
 8495TIP3   OH225448   3.326   4.010   4.658  0.1443 -0.0978 -0.2792
 8495TIP3    H125449   3.326   4.088   4.603  1.3173  0.4050  0.3765
 8495TIP3    H225450   3.235   3.981   4.660 -0.9073  2.9001  1.7491
 8496TIP3   OH225451   5.758   2.648   4.291 -0.3419  0.1027 -0.2520
 8496TIP3    H125452   5.727   2.735   4.267 -0.8898 -0.4543 -1.6680
 8496TIP3    H225453   5.851   2.648   4.271 -0.5787 -0.0029 -1.4206
 8497TIP3   OH225454   4.212   4.885   0.609  0.1871 -0.3402  0.1496
 8497TIP3    H125455   4.184   4.955   0.667 -0.7737 -1.1080  0.6605
 8497TIP3    H225456   4.295   4.915   0.572  0.5218  0.4255  1.4564
 8498TIP3   OH225457   3.200   6.142   3.382 -0.0525  0.4156 -0.1419
 8498TIP3    H125458   3.162   6.185   3.305  0.4935 -1.0663 -1.2745
 8498TIP3    H225459   3.208   6.213   3.447  0.7940  2.0283 -1.9098
 8499TIP3   OH225460   5.866   6.559   0.567  0.5747 -0.4871 -0.1626
 8499TIP3    H125461   5.795   6.617   0.596 -0.2040 -0.8560 -1.2638
 8499TIP3    H225462   5.874   6.576   0.473  0.4253 -2.0553 -0.4745
 8500TIP3   OH225463   2.952   4.133   0.682  0.1915 -0.0780 -0.5227
 8500TIP3    H125464   2.928   4.223   0.661  0.8088  0.2530  0.1571
 8500TIP3    H225465   3.025   4.113   0.622  0.1399 -0.0793 -0.5848
 8501TIP3   OH225466   3.616   0.057   2.445 -0.5084  0.4670  0.1667
 8501TIP3    H125467   3.668   0.012   2.378 -1.6835 -0.1680 -0.3447
 8501TIP3    H225468   3.667   0.135   2.467  1.4001 -0.8742  0.7789
 8502TIP3   OH225469   2.546   0.046   3.370 -0.5986  0.3918  0.0692
 8502TIP3    H125470   2.473  -0.012   3.349 -1.3560  0.7184  1.6766
 8502TIP3    H225471   2.616   0.017   3.312 -1.4703 -1.0508 -0.3294
 8503TIP3   OH225472   4.789   3.366   0.366  0.0615 -0.2572 -0.1936
 8503TIP3    H125473   4.865   3.343   0.313  0.5008 -0.7238  0.6159
 8503TIP3    H225474   4.790   3.461   0.370  0.7974 -0.2723  0.0810
 8504TIP3   OH225475   3.358   4.414   3.351 -0.4549  0.2586 -0.0993
 8504TIP3    H125476   3.301   4.351   3.307  2.1064 -2.1437 -0.2620
 8504TIP3    H225477   3.356   4.492   3.296 -2.1075 -0.4078 -1.0426
 8505TIP3   OH225478   3.721   5.840   3.710  0.3751 -0.1263  0.5303
 8505TIP3    H125479   3.725   5.898   3.785 -1.0336 -0.1960  0.7000
 8505TIP3    H225480   3.777   5.881   3.644 -0.2504  1.2165  0.7912
 8506TIP3   OH225481   3.439   3.690   3.390  0.5022 -0.0051 -0.3412
 8506TIP3    H125482   3.434   3.602   3.354  2.3380 -0.3565  0.1645
 8506TIP3    H225483   3.519   3.727   3.352 -0.1798  1.4225 -0.4668
 8507TIP3   OH225484   3.352   2.185   4.171  0.3368  0.6235  0.4427
 8507TIP3    H125485   3.270   2.175   4.218 -0.0169 -0.2483 -0.3145
 8507TIP3    H225486   3.326   2.196   4.079  1.0235  1.6860  0.3532
 8508TIP3   OH225487   5.535   0.653   4.291 -0.2931 -0.2356 -0.3155
 8508TIP3    H125488   5.599   0.582   4.291  0.3040  0.2858  0.5123
 8508TIP3    H225489   5.585   0.731   4.269 -0.7186  0.1177 -0.0471
 8509TIP3   OH225490   6.359   2.470   2.127 -0.6299  0.3995  0.1186
 8509TIP3    H125491   6.387   2.379   2.120  0.8021  0.7379  0.9045
 8509TIP3    H225492   6.368   2.505   2.039 -0.7882 -0.1088 -0.1019
 8510TIP3   OH225493   5.082   1.293   3.059 -0.0691  0.1391  0.0942
 8510TIP3    H125494   4.994   1.313   3.028 -0.3242  0.5641  1.0249
 8510TIP3    H225495   5.135   1.367   3.029 -0.3572  0.6581  0.8202
 8511TIP3   OH225496   3.651   3.688   0.204 -0.6685  0.2949 -0.1226
 8511TIP3    H125497   3.743   3.665   0.215 -0.9151 -0.5359  0.3292
 8511TIP3    H225498   3.652   3.774   0.161  0.3006 -0.0094 -0.7335
 8512TIP3   OH225499   3.433   1.828   5.236 -0.3970 -0.1680  0.2956
 8512TIP3    H125500   3.505   1.854   5.178  1.4634  1.9878  3.2591
 8512TIP3    H225501   3.356   1.829   5.180  1.5453 -0.7550 -2.6485
 8513TIP3   OH225502   3.487   4.386   1.416 -0.1757 -0.0668  0.0247
 8513TIP3    H125503   3.488   4.326   1.342 -1.3384 -0.9231  0.6724
 8513TIP3    H225504   3.442   4.338   1.485  1.7381  0.3008  1.6395
 8514TIP3   OH225505   5.103   1.155   5.491 -0.1639 -0.0263  0.0380
 8514TIP3    H125506   5.189   1.129   5.523  0.1175  0.6479 -0.1542
 8514TIP3    H225507   5.074   1.080   5.439  0.9587  0.3296 -1.1443
 8515TIP3   OH225508   3.907   4.931   4.404 -0.2482 -1.0323 -0.3674
 8515TIP3    H125509   3.996   4.963   4.414 -1.1331  1.4025  0.4654
 8515TIP3    H225510   3.861   5.000   4.356 -1.9163 -1.7544  0.0964
 8516TIP3   OH225511   5.335   5.155   5.469  0.0554  0.0721 -0.1234
 8516TIP3    H125512   5.254   5.133   5.515  1.4053 -2.2790  1.3178
 8516TIP3    H225513   5.329   5.108   5.386 -0.1110  0.0019 -0.0731
 8517TIP3   OH225514   6.810   5.550   3.117  0.0486 -0.2432 -0.2703
 8517TIP3    H125515   6.832   5.471   3.067  1.7342 -1.1045  1.6966
 8517TIP3    H225516   6.737   5.523   3.172  1.3003 -0.8323  1.1730
 8518TIP3   OH225517   4.547   1.779   4.130 -0.0497  0.5794  0.0592
 8518TIP3    H125518   4.619   1.830   4.169  0.2016 -0.2313  0.6795
 8518TIP3    H225519   4.591   1.710   4.081 -0.3951  0.5773 -0.2454
 8519TIP3   OH225520   3.139   5.423   5.126  0.4278 -0.0990 -0.2275
 8519TIP3    H125521   3.172   5.507   5.156 -0.3249  1.1329 -2.5752
 8519TIP3    H225522   3.080   5.445   5.054  1.1019 -2.7024 -1.7015
 8520TIP3   OH225523   5.409   5.400   4.017 -0.1361  0.4739 -0.4893
 8520TIP3    H125524   5.461   5.430   4.091 -0.0645 -0.9945  0.0971
 8520TIP3    H225525   5.474   5.372   3.952  0.0620 -3.6790  1.1704
 8521TIP3   OH225526   4.400   5.594   4.637 -0.3430 -0.1810 -0.1703
 8521TIP3    H125527   4.454   5.526   4.596  0.7217  1.0275 -0.8504
 8521TIP3    H225528   4.367   5.646   4.564 -0.4477  0.5378  0.3766
 8522TIP3   OH225529   2.669   0.510   1.184  0.5618 -0.4544 -0.1595
 8522TIP3    H125530   2.610   0.502   1.109  0.5077  1.0733 -0.3156
 8522TIP3    H225531   2.734   0.575   1.156  0.0813  0.7447  1.3842
 8523TIP3   OH225532   1.703   6.118   3.687 -0.1095 -0.0756  0.0983
 8523TIP3    H125533   1.613   6.101   3.713 -0.4694  0.0415 -1.0214
 8523TIP3    H225534   1.746   6.149   3.767 -0.9992 -0.3443  0.6913
 8524TIP3   OH225535   2.046   6.696   4.010 -0.3836 -0.3264  0.2015
 8524TIP3    H125536   2.113   6.685   4.078 -0.5701 -0.5097  0.3588
 8524TIP3    H225537   2.016   6.786   4.021 -0.7795 -0.5156  0.7049
 8525TIP3   OH225538   0.511   1.072   5.534  0.3132  0.1013  0.2282
 8525TIP3    H125539   0.475   1.043   5.451 -1.0416  1.4066  0.3072
 8525TIP3    H225540   0.511   0.994   5.589 -1.8992 -0.1250  0.0212
 8526TIP3   OH225541   0.815   5.708   5.620 -0.2036 -0.0690 -0.5576
 8526TIP3    H125542   0.744   5.665   5.669  0.8788  0.5031  1.6563
 8526TIP3    H225543   0.812   5.799   5.650  1.0081  0.1231 -0.9692
 8527TIP3   OH225544   1.216   5.899   1.854  0.2683  0.5280 -0.6567
 8527TIP3    H125545   1.276   5.832   1.885 -0.8029  0.1063  0.5855
 8527TIP3    H225546   1.149   5.851   1.805 -0.9605  0.5477  0.9396
 8528TIP3   OH225547   1.289   4.757   1.237 -0.0599  0.8189 -0.1236
 8528TIP3    H125548   1.284   4.703   1.158  0.9474  0.4994  0.0158
 8528TIP3    H225549   1.202   4.753   1.274 -0.0904 -0.4575 -0.2946
 8529TIP3   OH225550   3.319   0.877   1.222 -0.0527  0.3714  0.3004
 8529TIP3    H125551   3.415   0.878   1.217 -0.0663 -0.3364 -0.2605
 8529TIP3    H225552   3.291   0.918   1.140 -0.2381  1.5017  0.9072
 8530TIP3   OH225553   2.702   1.406   0.281  0.2244 -0.4105  0.5837
 8530TIP3    H125554   2.660   1.321   0.291  1.2334 -0.9525  0.4002
 8530TIP3    H225555   2.764   1.411   0.355 -1.3244  1.1127  1.8679
 8531TIP3   OH225556   1.513   2.982   0.625 -0.6429 -0.0445 -0.1700
 8531TIP3    H125557   1.520   2.982   0.530 -3.8173  1.4975 -0.5402
 8531TIP3    H225558   1.472   3.066   0.646 -1.5664 -1.0230  2.4000
 8532TIP3   OH225559   6.275   6.717   1.820  0.0114  0.4927  0.1740
 8532TIP3    H125560   6.369   6.703   1.812  1.0113  4.7907  1.4226
 8532TIP3    H225561   6.245   6.646   1.876  2.2775 -1.5444 -1.0179
 8533TIP3   OH225562   7.158   6.715   0.522 -0.1134  0.2336  0.1283
 8533TIP3    H125563   7.146   6.789   0.463 -0.0933 -0.7708 -1.1757
 8533TIP3    H225564   7.090   6.727   0.589  0.3338  1.7786  0.3449
 8534TIP3   OH225565   0.157   0.068   3.367 -0.3609  0.0633  0.5113
 8534TIP3    H125566   0.107   0.125   3.309  0.1521 -0.5740 -0.5819
 8534TIP3    H225567   0.210   0.128   3.420  0.0284  0.6156 -0.4889
 8535TIP3   OH225568   6.945   2.394   5.714  0.4636  0.4417 -0.5582
 8535TIP3    H125569   6.908   2.469   5.667 -0.6360 -0.0909 -0.5696
 8535TIP3    H225570   6.998   2.348   5.648 -1.7592 -0.7927 -1.6014
 8536TIP3   OH225571   4.161   5.022   1.571  0.1240  0.3587 -0.3089
 8536TIP3    H125572   4.075   4.997   1.539 -0.0930  0.3212  0.2883
 8536TIP3    H225573   4.215   4.944   1.560 -0.6276 -0.5319  1.8268
 8537TIP3   OH225574   3.638   1.872   4.243  0.2466  0.0353 -0.0396
 8537TIP3    H125575   3.645   1.815   4.319  1.6495 -0.4944 -0.5308
 8537TIP3    H225576   3.689   1.828   4.175  2.0368  2.1904 -0.2131
 8538TIP3   OH225577   6.007   3.529   0.356 -0.3456  0.5754  0.7105
 8538TIP3    H125578   6.087   3.515   0.406  1.2309  3.0245 -0.8955
 8538TIP3    H225579   5.968   3.608   0.394 -0.6931  0.7672 -0.0175
 8539TIP3   OH225580   2.365   3.466   2.092 -0.0895 -0.4357  0.1243
 8539TIP3    H125581   2.455   3.486   2.118  0.0274 -0.9272  0.1126
 8539TIP3    H225582   2.335   3.402   2.156 -0.8331  0.5739  0.8028
 8540TIP3   OH225583   3.657   1.314   0.498  0.9005  0.1728 -0.4464
 8540TIP3    H125584   3.688   1.312   0.407 -0.2069  0.0153 -0.8366
 8540TIP3    H225585   3.657   1.407   0.521 -0.4926  0.4083 -1.2369
 8541TIP3   OH225586   3.378   3.626   2.744  0.5241  0.0388  1.0366
 8541TIP3    H125587   3.345   3.710   2.777  0.6528  0.3039  0.4917
 8541TIP3    H225588   3.375   3.568   2.821  0.6447  0.5986  1.4747
 8542TIP3   OH225589   1.983   5.329   3.208  0.0472 -0.1130 -0.0864
 8542TIP3    H125590   1.938   5.374   3.280  0.7320 -0.8596  0.8372
 8542TIP3    H225591   1.913   5.282   3.163 -0.5873  1.3717 -0.7109
 8543TIP3   OH225592   4.223   3.329   5.446 -0.0972  0.3382 -0.3107
 8543TIP3    H125593   4.239   3.298   5.357  0.6829  0.1955 -0.1227
 8543TIP3    H225594   4.221   3.424   5.438  1.2186  0.3828 -0.2898
 8544TIP3   OH225595   2.665   5.822   5.050  0.3790  0.0674 -0.2541
 8544TIP3    H125596   2.646   5.847   5.140  0.0732  0.1395 -0.3395
 8544TIP3    H225597   2.654   5.902   4.999 -0.7776 -0.2621 -0.5525
 8545TIP3   OH225598   5.734   3.342   0.912 -0.0276 -0.4807  0.4432
 8545TIP3    H125599   5.823   3.368   0.886 -0.8308  1.8489 -0.2683
 8545TIP3    H225600   5.746   3.298   0.996  1.8034 -0.2613  0.3533
 8546TIP3   OH225601   3.086   3.555   3.483 -0.1079  0.1612  0.1803
 8546TIP3    H125602   3.170   3.569   3.440 -0.1480 -0.1197  0.0072
 8546TIP3    H225603   3.070   3.635   3.533 -0.2461  0.6550 -0.6473
 8547TIP3   OH225604   5.892   5.744   3.872  0.0488 -0.5383 -0.1951
 8547TIP3    H125605   5.858   5.698   3.795  0.4458 -0.0406 -0.6826
 8547TIP3    H225606   5.816   5.792   3.906  0.1680  0.3157 -1.0879
 8548TIP3   OH225607   6.718   0.673   0.335  0.1554  0.4014  0.4607
 8548TIP3    H125608   6.685   0.603   0.279  2.0962  0.3658 -0.7382
 8548TIP3    H225609   6.762   0.733   0.275  1.1372  1.0808  1.8017
 8549TIP3   OH225610   4.740   2.492   3.376 -0.0196 -0.4508  0.3345
 8549TIP3    H125611   4.725   2.415   3.321  2.0988 -0.1278 -0.8194
 8549TIP3    H225612   4.690   2.562   3.334  0.2890 -0.5789 -0.2551
 8550TIP3   OH225613   1.067   6.114   3.442  0.1195 -0.1248  0.3405
 8550TIP3    H125614   0.989   6.093   3.493  0.0104  0.1876  0.3034
 8550TIP3    H225615   1.055   6.206   3.416  0.2488 -0.2354 -0.1143
 8551TIP3   OH225616   5.089   1.999   2.332 -0.4991 -0.0919 -0.1646
 8551TIP3    H125617   5.170   1.986   2.382 -1.1043  1.3008  1.2592
 8551TIP3    H225618   5.022   2.016   2.398 -1.9944 -1.2128 -1.3156
 8552TIP3   OH225619   2.654   5.288   1.551  0.3541 -0.2534 -0.5154
 8552TIP3    H125620   2.716   5.281   1.624  0.9256 -2.6485 -1.1278
 8552TIP3    H225621   2.649   5.381   1.532  1.9250  0.2208  1.1175
 8553TIP3   OH225622   5.578   1.306   4.864 -0.0833 -0.1012 -0.6061
 8553TIP3    H125623   5.556   1.397   4.884  0.3084 -0.0284 -0.4969
 8553TIP3    H225624   5.674   1.304   4.860 -0.0704 -0.5886 -0.2206
 8554TIP3   OH225625   5.477   4.027   2.520 -0.0221  0.0183  0.1451
 8554TIP3    H125626   5.453   4.054   2.609  0.6251  1.2856 -0.0405
 8554TIP3    H225627   5.394   4.008   2.477 -0.2677 -2.6329  1.5838
 8555TIP3   OH225628   1.234   5.262   1.251 -0.5772  0.1028  0.3037
 8555TIP3    H125629   1.301   5.323   1.220 -0.9616  0.0944 -0.5627
 8555TIP3    H225630   1.283   5.186   1.281 -0.2313 -0.5220 -1.6853
 8556TIP3   OH225631   4.699   5.727   4.066 -0.3231 -0.2197 -0.2053
 8556TIP3    H125632   4.762   5.777   4.014 -0.6369  0.3732 -0.0259
 8556TIP3    H225633   4.694   5.774   4.149  0.6332 -1.4891  0.6213
 8557TIP3   OH225634   5.250   3.309   0.080 -0.4144  0.3161 -0.2625
 8557TIP3    H125635   5.278   3.328  -0.010 -0.9598  3.7639  0.1597
 8557TIP3    H225636   5.329   3.323   0.132 -0.3597 -0.6467 -0.0757
 8558TIP3   OH225637   2.320   3.157   5.416 -0.3585  0.3047  0.4975
 8558TIP3    H125638   2.301   3.084   5.358  1.4681  1.9721 -2.4342
 8558TIP3    H225639   2.314   3.120   5.504  2.0274 -3.8023 -0.7995
 8559TIP3   OH225640   4.211   3.596   3.793 -0.1310 -0.5525  0.1381
 8559TIP3    H125641   4.149   3.604   3.720  0.3278 -0.6423 -0.2660
 8559TIP3    H225642   4.290   3.640   3.762  1.4212 -3.7868 -0.9512
 8560TIP3   OH225643   0.857   5.425   0.008  0.0384 -0.0286  0.3485
 8560TIP3    H125644   0.816   5.354   0.057 -1.6365  0.5952 -0.0743
 8560TIP3    H225645   0.950   5.420   0.031 -0.2132 -1.6610  1.1559
 8561TIP3   OH225646   4.879   1.927   0.812 -0.0808  0.1048  0.3641
 8561TIP3    H125647   4.865   2.016   0.846  1.8469  1.0480 -1.1554
 8561TIP3    H225648   4.885   1.938   0.717  2.9902 -1.1580  0.2913
 8562TIP3   OH225649   0.510   4.671   3.950 -0.2676 -0.1496  0.3346
 8562TIP3    H125650   0.456   4.653   3.873 -1.7289  1.9576  0.7776
 8562TIP3    H225651   0.565   4.594   3.959 -0.7380 -0.8779 -2.2297
 8563TIP3   OH225652   4.942   6.218   3.848 -0.2614 -0.0863 -0.1100
 8563TIP3    H125653   4.935   6.304   3.807  1.3212  0.9614  1.6695
 8563TIP3    H225654   4.946   6.156   3.775  0.1395  1.4696 -1.4537
 8564TIP3   OH225655   4.111   3.180   1.810 -0.1882  0.3511 -0.9335
 8564TIP3    H125656   4.115   3.211   1.901 -1.3998  0.9385 -1.0543
 8564TIP3    H225657   4.168   3.240   1.762 -2.2557  2.3163 -1.1076
 8565TIP3   OH225658   4.865   6.600   1.359 -0.5716 -0.5557  0.1811
 8565TIP3    H125659   4.897   6.624   1.272 -2.0912  1.6831  0.1649
 8565TIP3    H225660   4.812   6.675   1.387 -0.6742 -1.4915  2.7713
 8566TIP3   OH225661   5.325   6.659   3.540  0.2801 -0.4439 -0.2206
 8566TIP3    H125662   5.271   6.725   3.585  0.8578 -0.1767  0.0997
 8566TIP3    H225663   5.384   6.711   3.484 -0.1044 -0.7534 -0.9199
 8567TIP3   OH225664   0.147   3.280   5.837  0.2110  0.0058  0.0615
 8567TIP3    H125665   0.132   3.373   5.823  1.1364  0.1441 -0.0704
 8567TIP3    H225666   0.242   3.272   5.848  0.1890 -0.9716 -0.3149
 8568TIP3   OH225667   0.303   5.411   1.299 -0.3557 -0.2673 -0.2342
 8568TIP3    H125668   0.302   5.320   1.329  1.0127 -0.3542 -0.3579
 8568TIP3    H225669   0.295   5.405   1.203 -0.4196 -0.2533 -0.2295
 8569TIP3   OH225670   6.697   1.471   0.560 -0.2129 -0.0038  0.0635
 8569TIP3    H125671   6.689   1.475   0.656 -0.5542 -1.2754  0.0956
 8569TIP3    H225672   6.699   1.563   0.533  1.3994  0.4014  1.4118
 8570TIP3   OH225673   4.407   3.162   2.812 -0.1669  0.1629  0.4461
 8570TIP3    H125674   4.332   3.104   2.825 -0.4094  0.1617 -0.8289
 8570TIP3    H225675   4.444   3.174   2.899 -2.3958  1.1848  1.3233
 8571TIP3   OH225676   6.645   0.486   4.288 -0.4822  0.2073  0.4703
 8571TIP3    H125677   6.604   0.516   4.206 -0.8568  0.7577  0.8532
 8571TIP3    H225678   6.715   0.550   4.303 -2.2545  1.8789  2.1070
 8572TIP3   OH225679   2.752   1.298   0.035  0.5255 -0.6929  0.3613
 8572TIP3    H125680   2.681   1.244  -0.001  0.5877 -0.5060 -0.0532
 8572TIP3    H225681   2.709   1.353   0.101  0.7194 -2.2558  1.8511
 8573TIP3   OH225682   5.716   6.210   4.163 -0.1540 -0.6999  0.0158
 8573TIP3    H125683   5.635   6.202   4.113 -0.2953 -0.3594  0.1884
 8573TIP3    H225684   5.695   6.270   4.234  0.6362  0.5200 -0.7515
 8574TIP3   OH225685   2.324   5.794   1.490 -0.3749 -0.2776  0.6443
 8574TIP3    H125686   2.229   5.808   1.495 -0.7354 -1.2416 -2.0607
 8574TIP3    H225687   2.357   5.869   1.440  0.2931  0.0070  1.4905
 8575TIP3   OH225688   1.069   5.224   0.633  0.0302  0.4427  0.2357
 8575TIP3    H125689   1.150   5.230   0.683  1.2025 -0.7675 -1.4197
 8575TIP3    H225690   1.019   5.301   0.659  0.2136 -0.4823  3.7560
 8576TIP3   OH225691   0.450   3.897   4.113 -0.4912  0.2340  0.1799
 8576TIP3    H125692   0.507   3.872   4.041 -1.0098  0.0993 -0.1936
 8576TIP3    H225693   0.389   3.824   4.122  1.2507 -1.0301  2.5911
 8577TIP3   OH225694   2.702   4.734   4.251  0.5177 -0.0861 -0.1428
 8577TIP3    H125695   2.680   4.655   4.300 -0.9028  1.2673  1.5235
 8577TIP3    H225696   2.630   4.743   4.188 -0.1100  0.6690  0.6759
 8578TIP3   OH225697   3.171   0.510   1.154  0.4446  0.3105  0.3007
 8578TIP3    H125698   3.223   0.444   1.201  0.4999 -1.5545 -2.1263
 8578TIP3    H225699   3.236   0.572   1.121  0.9666 -0.8600 -0.9737
 8579TIP3   OH225700   1.848   6.125   4.234 -0.3384 -0.0393 -0.0845
 8579TIP3    H125701   1.845   6.167   4.320  1.0699  0.3993 -0.2249
 8579TIP3    H225702   1.941   6.107   4.219 -0.4914  0.3733 -1.7420
 8580TIP3   OH225703   5.575   0.834   5.456 -0.0822  0.0016  0.6341
 8580TIP3    H125704   5.514   0.789   5.397 -0.1112  0.1200  0.5738
 8580TIP3    H225705   5.642   0.870   5.398  0.4596 -0.7799  0.7693
 8581TIP3   OH225706   1.819   0.413   4.738 -0.1214 -0.1334 -0.0848
 8581TIP3    H125707   1.779   0.456   4.662 -1.2089 -0.3580  0.3479
 8581TIP3    H225708   1.774   0.329   4.744 -2.6013  1.2576  2.8841
 8582TIP3   OH225709   6.603   6.135   4.392  0.3071  0.0808 -0.3282
 8582TIP3    H125710   6.620   6.111   4.301  1.7121 -0.4423  0.0461
 8582TIP3    H225711   6.623   6.229   4.396 -2.2719  0.7384 -1.1077
 8583TIP3   OH225712   3.401   2.172   0.503  0.0831 -0.0219  0.3570
 8583TIP3    H125713   3.307   2.174   0.520  0.2907 -1.8757  2.0476
 8583TIP3    H225714   3.441   2.209   0.582  0.7977  4.1163 -1.6610
 8584TIP3   OH225715   6.846   5.824   5.108 -0.1271 -0.4211 -0.2645
 8584TIP3    H125716   6.899   5.747   5.086  0.4410  0.2932 -1.4716
 8584TIP3    H225717   6.771   5.788   5.156  0.0670 -1.7485 -0.9133
 8585TIP3   OH225718   0.763   6.468   0.144  0.5445 -0.2948 -0.0783
 8585TIP3    H125719   0.680   6.516   0.136  2.4808  3.1948 -1.7061
 8585TIP3    H225720   0.787   6.477   0.237 -0.4420 -0.5276  0.2087
 8586TIP3   OH225721   6.062   5.067   2.485  0.0030 -0.8131 -0.1884
 8586TIP3    H125722   6.002   4.996   2.505 -0.3257 -0.8123 -1.0999
 8586TIP3    H225723   6.051   5.130   2.556  0.5370 -1.8078  0.8016
 8587TIP3   OH225724   3.954   3.150   0.553 -0.5752 -0.6876 -0.5980
 8587TIP3    H125725   3.904   3.192   0.483  0.8030  2.3177  0.0426
 8587TIP3    H225726   4.042   3.139   0.518  0.2260  1.1704  0.6336
 8588TIP3   OH225727   1.507   0.533   4.394  0.3504 -0.6172  0.1893
 8588TIP3    H125728   1.434   0.594   4.381  1.0393  0.4023  0.9161
 8588TIP3    H225729   1.469   0.458   4.439 -0.8105 -1.4045 -1.9696
 8589TIP3   OH225730   1.515   3.864   1.549  0.0179  0.0965 -0.5522
 8589TIP3    H125731   1.453   3.857   1.477 -1.1087  0.3572  0.3653
 8589TIP3    H225732   1.490   3.794   1.609  1.7447 -0.9463 -0.9727
 8590TIP3   OH225733   6.082   0.886   4.249 -0.6085 -0.4185 -0.0412
 8590TIP3    H125734   6.061   0.794   4.234 -1.2822 -0.5291  1.4174
 8590TIP3    H225735   6.029   0.911   4.324  0.7585  0.7161  0.6034
 8591TIP3   OH225736   6.387   0.419   4.832 -0.0540  0.0400 -0.2243
 8591TIP3    H125737   6.425   0.484   4.772 -0.0168  2.6042  2.3421
 8591TIP3    H225738   6.442   0.424   4.911 -2.0627 -0.6381  1.3018
 8592TIP3   OH225739   2.164   3.661   0.079  0.2313 -0.3549  0.0899
 8592TIP3    H125740   2.221   3.585   0.069  0.1670 -0.1868 -1.9817
 8592TIP3    H225741   2.217   3.736   0.051  0.2851  0.4166  2.0816
 8593TIP3   OH225742   4.983   6.261   3.083  0.5291  0.0040  0.0005
 8593TIP3    H125743   4.954   6.193   3.143 -1.1544  0.4824 -0.2161
 8593TIP3    H225744   5.078   6.261   3.090  0.4108 -0.3855  2.1765
 8594TIP3   OH225745   5.006   0.940   1.009 -0.2412  0.2776 -0.0677
 8594TIP3    H125746   4.917   0.975   1.020 -0.4797 -0.7777  1.7738
 8594TIP3    H225747   5.014   0.874   1.078  1.5473 -0.5390 -1.0038
 8595TIP3   OH225748   6.206   5.660   2.891 -0.5853 -0.1252 -0.3229
 8595TIP3    H125749   6.144   5.701   2.830 -0.3909 -1.1027 -1.2148
 8595TIP3    H225750   6.280   5.720   2.895 -0.5876 -0.0552 -1.0963
 8596TIP3   OH225751   5.470   1.142   1.441 -0.3291  0.0200 -0.3258
 8596TIP3    H125752   5.562   1.169   1.447  0.2072 -2.0327  1.8395
 8596TIP3    H225753   5.421   1.218   1.474  0.4826  1.2851 -1.8554
 8597TIP3   OH225754   2.869   3.975   2.513  0.7291 -0.2248  0.1637
 8597TIP3    H125755   2.874   4.036   2.440  2.0294 -0.1328  0.3060
 8597TIP3    H225756   2.959   3.949   2.529  0.1636 -2.9119 -0.4769
 8598TIP3   OH225757   5.531   5.525   3.552 -0.3380 -0.4873 -0.1818
 8598TIP3    H125758   5.559   5.573   3.474  0.4683  0.5619  0.7293
 8598TIP3    H225759   5.520   5.592   3.619  1.4313 -1.6034  1.3178
 8599TIP3   OH225760   0.134   0.015   0.466  0.0403 -0.4120 -0.3378
 8599TIP3    H125761   0.167   0.102   0.487 -0.6678 -0.4938  1.2912
 8599TIP3    H225762   0.171  -0.042   0.534 -2.5848 -0.6606  1.0300
 8600TIP3   OH225763   2.255   2.355   2.478  0.0208 -0.2836 -0.3036
 8600TIP3    H125764   2.265   2.303   2.398  0.8643  0.3747 -0.6436
 8600TIP3    H225765   2.171   2.400   2.468  0.5502  0.5226 -1.2636
 8601TIP3   OH225766   4.566   2.718   5.068 -0.2751 -0.0849  0.2287
 8601TIP3    H125767   4.481   2.716   5.023 -0.1217  2.9917 -0.4176
 8601TIP3    H225768   4.544   2.714   5.161 -1.1146  0.2282  0.0518
 8602TIP3   OH225769   1.885   4.170   2.646  0.1380 -0.0158  0.3277
 8602TIP3    H125770   1.859   4.227   2.573 -0.8342 -0.3363  0.4164
 8602TIP3    H225771   1.949   4.110   2.608 -1.1815 -0.9079 -0.5567
 8603TIP3   OH225772   2.025   2.135   4.281  0.0502 -0.4808 -0.0147
 8603TIP3    H125773   2.078   2.146   4.360  0.6861  2.6558 -0.7121
 8603TIP3    H225774   1.951   2.082   4.308  0.6990 -0.2220  2.4523
 8604TIP3   OH225775   0.270   4.269   2.506 -0.7054 -0.3607 -0.0899
 8604TIP3    H125776   0.289   4.192   2.561 -1.7242 -0.5515  0.0192
 8604TIP3    H225777   0.257   4.233   2.418  2.3328  0.0909 -0.8308
 8605TIP3   OH225778   6.898   3.127   0.910 -0.0964 -0.6474  0.0417
 8605TIP3    H125779   6.897   3.178   0.829  0.7192 -0.5915  0.0608
 8605TIP3    H225780   6.833   3.059   0.896 -0.7231 -0.0073 -0.2467
 8606TIP3   OH225781   3.284   5.837   1.364 -0.1961  0.4728 -0.2711
 8606TIP3    H125782   3.322   5.848   1.452 -1.3747  1.5960  0.1398
 8606TIP3    H225783   3.333   5.899   1.310  0.6627 -0.3580 -0.4748
 8607TIP3   OH225784   6.744   5.214   3.594  0.3773 -0.0754 -0.2191
 8607TIP3    H125785   6.658   5.210   3.636  0.9294  1.5784  1.2057
 8607TIP3    H225786   6.796   5.148   3.640 -0.1009 -1.0566 -1.0616
 8608TIP3   OH225787   5.666   5.437   3.107  0.0127  0.1672  0.8004
 8608TIP3    H125788   5.696   5.370   3.045 -0.2444 -0.9204  1.8062
 8608TIP3    H225789   5.665   5.518   3.056 -0.3338 -0.7076 -0.6605
 8609TIP3   OH225790   6.591   4.548   1.249 -0.0266 -0.6051  0.1645
 8609TIP3    H125791   6.631   4.461   1.238  0.0797 -0.5982  0.4770
 8609TIP3    H225792   6.564   4.573   1.161  1.5594 -0.1671 -0.2308
 8610TIP3   OH225793   5.665   0.052   0.297  0.4174  0.5088  0.2704
 8610TIP3    H125794   5.585   0.089   0.334  0.1203  0.3425 -0.2038
 8610TIP3    H225795   5.729   0.123   0.303  0.0792  0.8253  0.1267
 8611TIP3   OH225796   2.448   3.807   1.732 -0.1579  0.1912  0.8991
 8611TIP3    H125797   2.477   3.850   1.812  0.6210  0.2710  0.5790
 8611TIP3    H225798   2.524   3.755   1.704 -0.1854  0.6946 -0.1539
 8612TIP3   OH225799   6.885   3.541   0.936 -0.4316 -0.0894 -0.1949
 8612TIP3    H125800   6.924   3.527   0.850  0.2185  1.4729 -0.2034
 8612TIP3    H225801   6.958   3.529   0.998 -0.1249  1.7626 -0.1283
 8613TIP3   OH225802   1.104   0.593   2.860 -0.1386 -0.3666 -0.3655
 8613TIP3    H125803   1.039   0.599   2.790 -0.2241 -1.2011 -0.3661
 8613TIP3    H225804   1.053   0.603   2.941 -0.0310  0.6628 -0.4068
 8614TIP3   OH225805   0.581   1.463   1.182  0.8466  0.2932 -0.5652
 8614TIP3    H125806   0.573   1.553   1.150  0.6799  0.6876  0.5387
 8614TIP3    H225807   0.651   1.466   1.247  0.5813 -0.2900 -0.2409
 8615TIP3   OH225808   6.636   3.248   0.636 -0.0941 -0.4247  0.4068
 8615TIP3    H125809   6.626   3.335   0.675  0.4152 -0.2352  0.1117
 8615TIP3    H225810   6.605   3.188   0.704  0.1080 -0.0511  0.8312
 8616TIP3   OH225811   6.060   4.337   5.080  0.3880 -0.3730 -0.7354
 8616TIP3    H125812   5.996   4.407   5.067  0.2205 -0.4883 -0.5427
 8616TIP3    H225813   6.022   4.282   5.148 -0.0977 -1.3931 -1.8083
 8617TIP3   OH225814   2.648   3.280   2.903 -0.7377 -0.4946 -0.3604
 8617TIP3    H125815   2.669   3.222   2.976  1.7367  0.5388 -0.1520
 8617TIP3    H225816   2.582   3.232   2.852 -0.1513 -2.6517  0.8037
 8618TIP3   OH225817   2.111   2.734   5.062 -0.4698 -0.1729  0.2016
 8618TIP3    H125818   2.189   2.679   5.069  0.0801  0.6412  0.7913
 8618TIP3    H225819   2.066   2.722   5.146 -2.5205 -2.7949 -1.1404
 8619TIP3   OH225820   2.802   0.869   0.291  0.5831 -0.0218 -0.7124
 8619TIP3    H125821   2.729   0.844   0.347 -1.2584  0.1006 -2.9206
 8619TIP3    H225822   2.802   0.965   0.294 -0.3494  0.0401 -1.8311
 8620TIP3   OH225823   2.083   6.347   1.491 -0.0787 -0.2414  0.4106
 8620TIP3    H125824   2.010   6.390   1.535 -0.4922 -0.5987  0.0830
 8620TIP3    H225825   2.119   6.287   1.557 -1.7454 -2.0260 -0.1874
 8621TIP3   OH225826   5.362   0.339   1.417 -0.0480  0.8347 -0.3901
 8621TIP3    H125827   5.354   0.253   1.458 -1.1166  1.1966  0.2051
 8621TIP3    H225828   5.446   0.336   1.372  1.0065  0.2742  1.4906
 8622TIP3   OH225829   1.941   4.617   5.079  0.4225  0.1789  0.1010
 8622TIP3    H125830   1.875   4.548   5.071 -1.0276  1.4821  0.2112
 8622TIP3    H225831   1.903   4.691   5.032  1.8242  0.9793  0.1878
 8623TIP3   OH225832   1.545   0.712   0.562  0.2136 -0.4010  0.0996
 8623TIP3    H125833   1.579   0.669   0.640  1.1221  1.4548  0.7728
 8623TIP3    H225834   1.479   0.772   0.594 -0.0346 -0.2509 -0.6646
 8624TIP3   OH225835   2.557   6.451   1.197 -0.2139  0.0302 -0.2712
 8624TIP3    H125836   2.598   6.380   1.147  1.1631  1.5860 -1.4461
 8624TIP3    H225837   2.630   6.495   1.240 -0.8886  1.4493 -0.5200
 8625TIP3   OH225838   6.673   2.713   1.793 -0.0459 -0.5443  0.6354
 8625TIP3    H125839   6.753   2.735   1.841 -0.2027  0.1449  0.5954
 8625TIP3    H225840   6.619   2.666   1.857 -0.0124 -0.1425  0.9690
 8626TIP3   OH225841   3.437   1.581   0.042  0.4478  0.2209  0.0348
 8626TIP3    H125842   3.399   1.540  -0.036  0.7321  0.2295 -0.1084
 8626TIP3    H225843   3.531   1.574   0.030  0.4945 -0.4089  0.7186
 8627TIP3   OH225844   5.170   1.566   2.252  0.0275  0.1331 -0.3277
 8627TIP3    H125845   5.098   1.520   2.209 -0.7857  0.6965  0.3923
 8627TIP3    H225846   5.193   1.637   2.192 -0.4705  0.3490 -0.2656
 8628TIP3   OH225847   0.078   2.699   1.400  0.3418  0.5838 -0.0275
 8628TIP3    H125848   0.165   2.712   1.363  0.4354 -1.0938 -0.4734
 8628TIP3    H225849   0.065   2.604   1.397 -0.7220  0.6239  1.8148
 8629TIP3   OH225850   6.052   5.552   5.601  0.3380 -0.7200  0.2675
 8629TIP3    H125851   6.109   5.544   5.677 -0.4771 -1.3685  0.8365
 8629TIP3    H225852   5.969   5.584   5.637  0.3772  0.3785 -0.5628
 8630TIP3   OH225853   6.702   2.941   3.249 -0.2420  0.0020  0.2709
 8630TIP3    H125854   6.733   2.956   3.339  1.4642  1.0141 -0.4469
 8630TIP3    H225855   6.640   3.012   3.233 -1.9370 -1.1975  1.2153
 8631TIP3   OH225856   0.824   3.975   3.619 -0.0261 -0.6441 -0.5166
 8631TIP3    H125857   0.783   4.057   3.645 -1.1893 -1.6090  0.9194
 8631TIP3    H225858   0.893   3.961   3.684 -0.2577 -1.1015 -0.3618
 8632TIP3   OH225859   5.819   2.917   4.804  0.1950 -0.2403  0.1327
 8632TIP3    H125860   5.735   2.900   4.761 -0.4519  2.0327  0.3545
 8632TIP3    H225861   5.798   2.917   4.898  1.2003 -3.1391  0.4508
 8633TIP3   OH225862  -0.004   1.602   4.963  0.0083 -0.0300  0.0421
 8633TIP3    H125863   0.060   1.662   5.001 -0.2807 -0.1934  0.8030
 8633TIP3    H225864   0.038   1.570   4.883  1.1918 -0.6916  0.8874
 8634TIP3   OH225865   2.526   5.108   4.229 -0.0401 -0.0987 -0.2895
 8634TIP3    H125866   2.535   5.145   4.318 -1.0278  1.1900 -0.6870
 8634TIP3    H225867   2.432   5.104   4.215  0.0666  2.1667 -2.2233
 8635TIP3   OH225868   3.338   4.468   4.335 -0.3225  0.6609  0.0466
 8635TIP3    H125869   3.260   4.477   4.281 -0.4848  0.4239  0.2390
 8635TIP3    H225870   3.411   4.462   4.272 -0.2298  2.7988 -0.1219
 8636TIP3   OH225871   0.750   1.937   4.442 -0.2660 -1.2285  0.0300
 8636TIP3    H125872   0.731   1.921   4.350 -2.4445 -2.0182  0.5470
 8636TIP3    H225873   0.844   1.951   4.445 -0.2497 -0.3157 -2.4143
 8637TIP3   OH225874   2.923   5.852   1.884  0.1394  0.2812  0.0181
 8637TIP3    H125875   2.931   5.909   1.808  0.8139  1.0535  0.6594
 8637TIP3    H225876   2.832   5.863   1.913  0.2485  0.9726  0.0985
 8638TIP3   OH225877   1.276   3.656   1.937  0.3045  0.5482 -0.2104
 8638TIP3    H125878   1.236   3.742   1.949 -0.0344  0.4371 -0.5349
 8638TIP3    H225879   1.214   3.595   1.976  0.3191  0.4065 -0.4087
 8639TIP3   OH225880   6.519   5.457   3.738 -0.0762  0.2972 -0.1026
 8639TIP3    H125881   6.557   5.481   3.822 -0.6337 -1.2745  0.6456
 8639TIP3    H225882   6.430   5.494   3.741 -0.7504 -1.2817  0.8250
 8640TIP3   OH225883   0.438   1.421   3.210  0.4826  0.4890 -0.2964
 8640TIP3    H125884   0.498   1.347   3.221 -1.6972 -1.4516 -0.7391
 8640TIP3    H225885   0.385   1.422   3.289  0.4372  1.5646 -0.3256
 8641TIP3   OH225886   0.846   4.321   5.326 -0.1092 -0.0523  0.6872
 8641TIP3    H125887   0.777   4.316   5.392 -1.6900 -0.4511 -0.9029
 8641TIP3    H225888   0.823   4.397   5.273  1.2656  0.4092  0.7201
 8642TIP3   OH225889   5.507   0.121   2.393 -0.4247 -0.2844  0.0843
 8642TIP3    H125890   5.573   0.115   2.324 -1.0997  0.1964 -0.6281
 8642TIP3    H225891   5.549   0.085   2.471  0.8398  0.5003 -0.2208
 8643TIP3   OH225892   1.939   1.319   3.853  0.0715 -0.1706  0.6228
 8643TIP3    H125893   2.009   1.292   3.793  0.2645 -0.3665  0.9319
 8643TIP3    H225894   1.958   1.410   3.873 -0.0618 -0.0706  0.2898
 8644TIP3   OH225895   4.181   4.153   4.209 -0.2633  0.8332 -0.1654
 8644TIP3    H125896   4.228   4.236   4.201  0.6462  0.2700 -1.0586
 8644TIP3    H225897   4.185   4.116   4.121 -1.9811  0.5292 -0.1354
 8645TIP3   OH225898   5.488   0.192   4.341  0.2231 -0.0381 -0.4148
 8645TIP3    H125899   5.540   0.216   4.265  0.8758  1.9394  0.5859
 8645TIP3    H225900   5.552   0.164   4.407  0.0626  1.8889  0.6371
 8646TIP3   OH225901   2.224   0.153   4.587  0.0237 -0.5345  0.1712
 8646TIP3    H125902   2.210   0.198   4.503 -2.4321 -0.0424  0.7629
 8646TIP3    H225903   2.220   0.060   4.566 -0.6048 -0.4131 -0.2558
 8647TIP3   OH225904   2.636   2.583   4.991 -0.3872 -0.1837 -0.0436
 8647TIP3    H125905   2.678   2.536   5.063  0.1785 -0.7217 -0.7078
 8647TIP3    H225906   2.620   2.671   5.025 -2.1351 -1.0439  1.4814
 8648TIP3   OH225907   1.156   1.020   0.183  0.5571  0.5584 -0.1895
 8648TIP3    H125908   1.127   1.060   0.265 -0.4024  0.2879 -0.3841
 8648TIP3    H225909   1.082   0.967   0.154  1.1086  0.1567 -0.9204
 8649TIP3   OH225910   3.876   1.019   1.925  0.5203  0.0512 -0.1341
 8649TIP3    H125911   3.905   0.932   1.898 -2.2964 -0.3317 -2.3624
 8649TIP3    H225912   3.879   1.017   2.021  0.6489 -2.4516 -0.1326
 8650TIP3   OH225913   3.579   1.558   2.897  0.0370 -0.3087 -0.2278
 8650TIP3    H125914   3.649   1.622   2.885  1.4188 -1.2622  2.0208
 8650TIP3    H225915   3.518   1.601   2.957  0.3646 -0.6317  0.3484
 8651TIP3   OH225916   4.106   6.298   1.583 -0.1815 -0.0293 -0.3879
 8651TIP3    H125917   4.024   6.254   1.605  0.2112 -1.3712 -1.4392
 8651TIP3    H225918   4.091   6.338   1.498 -0.3658  1.5165  0.3313
 8652TIP3   OH225919   6.073   1.410   1.713 -0.1775  0.2239 -0.2583
 8652TIP3    H125920   6.126   1.365   1.779  1.1265 -1.2260 -2.1721
 8652TIP3    H225921   6.131   1.478   1.678  0.5105 -1.3087 -2.2992
 8653TIP3   OH225922   7.011   5.350   1.936  0.0166  0.0985  0.1537
 8653TIP3    H125923   6.917   5.368   1.934  0.0157  0.1104  0.2588
 8653TIP3    H225924   7.047   5.418   1.993 -0.1284 -0.8429  1.4118
 8654TIP3   OH225925   2.651   5.716   0.491  0.0428  0.1170 -0.6766
 8654TIP3    H125926   2.684   5.798   0.454  1.0550 -0.3489 -0.8610
 8654TIP3    H225927   2.644   5.658   0.415  1.7865 -0.7347 -0.2486
 8655TIP3   OH225928   3.288   4.802   0.372 -0.1230  0.1646  0.6314
 8655TIP3    H125929   3.200   4.835   0.354  0.2233  0.6085 -0.3179
 8655TIP3    H225930   3.284   4.709   0.349  0.0025  0.4727 -0.6825
 8656TIP3   OH225931   1.624   4.559   4.814  0.0073 -0.2976  0.2951
 8656TIP3    H125932   1.717   4.578   4.803 -0.4410  0.7597 -2.3666
 8656TIP3    H225933   1.581   4.644   4.810 -1.0263 -0.5572  3.4265
 8657TIP3   OH225934   1.418   5.169   4.915 -0.2539  0.5484  0.1207
 8657TIP3    H125935   1.447   5.247   4.963 -0.6642 -0.4121  2.0432
 8657TIP3    H225936   1.396   5.106   4.984 -2.4072 -0.3822 -1.3388
 8658TIP3   OH225937   0.568   1.962   0.422 -0.1606  0.6564  0.0546
 8658TIP3    H125938   0.657   1.985   0.449 -0.0594 -0.1493  0.4408
 8658TIP3    H225939   0.517   1.967   0.502  0.0679 -1.3999  0.3770
 8659TIP3   OH225940   2.218   2.839   4.313  0.7069  0.5244  0.1340
 8659TIP3    H125941   2.242   2.747   4.307  0.5443  0.5759 -2.0427
 8659TIP3    H225942   2.174   2.858   4.230 -0.6005  2.1958  1.1290
 8660TIP3   OH225943   4.600   4.755   1.556 -0.4205  0.0379 -0.1218
 8660TIP3    H125944   4.567   4.666   1.548 -2.0576  0.6276 -0.3716
 8660TIP3    H225945   4.533   4.809   1.515  0.2400  1.4442  0.5748
 8661TIP3   OH225946   4.830   2.873   2.728  0.7041 -0.3352  0.0947
 8661TIP3    H125947   4.924   2.874   2.713  0.7318  1.6268  0.2546
 8661TIP3    H225948   4.794   2.837   2.647  1.4908  0.6341 -0.7143
 8662TIP3   OH225949   5.683   5.964   3.744 -0.6994 -0.2631 -0.4532
 8662TIP3    H125950   5.707   6.057   3.751 -0.1047 -0.4032 -0.5724
 8662TIP3    H225951   5.702   5.928   3.830  0.8780 -0.6736 -0.9300
 8663TIP3   OH225952   2.583   3.770   3.653 -0.2074 -0.6021  0.0001
 8663TIP3    H125953   2.618   3.805   3.734 -2.7726 -2.6018  2.1606
 8663TIP3    H225954   2.628   3.686   3.641  0.8779  0.1241 -1.2731
 8664TIP3   OH225955   3.156   3.193   0.977  0.7064 -0.1189 -0.3334
 8664TIP3    H125956   3.170   3.100   0.996 -0.1356 -0.3856 -0.9541
 8664TIP3    H225957   3.071   3.196   0.933  0.5203  0.9986  0.0574
 8665TIP3   OH225958   3.295   0.219   2.108  0.1021 -0.7419  0.1326
 8665TIP3    H125959   3.383   0.210   2.071  1.3203  2.7089  1.7706
 8665TIP3    H225960   3.309   0.212   2.203 -1.2582  0.5358  0.4586
 8666TIP3   OH225961   3.253   5.086   4.846  0.1446  0.3410 -1.0305
 8666TIP3    H125962   3.305   5.087   4.927  0.3793 -1.6184 -1.0935
 8666TIP3    H225963   3.163   5.098   4.875  0.4792  2.6313 -0.8036
 8667TIP3   OH225964   0.449   2.482   4.841 -0.6745 -0.4106 -0.2222
 8667TIP3    H125965   0.456   2.474   4.746  0.7184  2.5147 -0.4527
 8667TIP3    H225966   0.521   2.428   4.875  1.8033  2.0895 -1.1343
 8668TIP3   OH225967   4.841   4.593   1.997  0.8872 -0.4762  0.2882
 8668TIP3    H125968   4.922   4.552   2.027  1.0137  0.0490  0.6822
 8668TIP3    H225969   4.854   4.687   2.013  1.0234 -0.1406 -1.5562
 8669TIP3   OH225970   4.773   5.726   5.284 -0.1733 -0.3442 -0.0275
 8669TIP3    H125971   4.730   5.794   5.336 -1.1468 -1.4526  0.6752
 8669TIP3    H225972   4.849   5.700   5.337 -0.4101 -0.5343  0.2279
 8670TIP3   OH225973   1.980   5.094   2.173  0.0181 -0.7106  0.4518
 8670TIP3    H125974   1.911   5.065   2.113 -0.4927  0.5155  0.4160
 8670TIP3    H225975   2.045   5.134   2.116  0.8700 -1.9986  0.4705
 8671TIP3   OH225976   1.127   0.406   1.478  0.0631 -0.1697 -0.2158
 8671TIP3    H125977   1.040   0.444   1.463 -0.4208 -0.8636  0.7490
 8671TIP3    H225978   1.122   0.320   1.437 -0.1567 -0.7421  0.9953
 8672TIP3   OH225979   4.130   6.332   1.314  0.1425  0.3458  0.5007
 8672TIP3    H125980   4.154   6.397   1.248  3.0713 -0.5107  0.5550
 8672TIP3    H225981   4.083   6.264   1.266  0.2635  0.7955 -0.2623
 8673TIP3   OH225982   1.205   4.507   1.483 -0.3347  0.2617  0.3920
 8673TIP3    H125983   1.119   4.486   1.519 -1.2920  0.8635 -1.4099
 8673TIP3    H225984   1.224   4.595   1.517 -1.0743  0.6849 -0.2447
 8674TIP3   OH225985   4.349   1.092   4.909  0.2989  0.8181 -0.1519
 8674TIP3    H125986   4.301   1.010   4.923 -0.6393  1.3169 -0.3858
 8674TIP3    H225987   4.441   1.068   4.922  0.0988 -0.4103 -0.7979
 8675TIP3   OH225988   6.801   2.405   0.641 -0.1543  0.1886 -0.3204
 8675TIP3    H125989   6.792   2.386   0.734 -0.7630 -1.3394 -0.6596
 8675TIP3    H225990   6.829   2.322   0.602  3.8147  1.6417 -1.0645
 8676TIP3   OH225991   0.273   0.645   1.178  0.0853  0.3491 -0.5932
 8676TIP3    H125992   0.325   0.693   1.243 -0.7649 -0.3271  0.6471
 8676TIP3    H225993   0.337   0.601   1.123  0.8634 -0.4699  0.8963
 8677TIP3   OH225994   1.503   4.025   0.650  0.2229 -0.2250 -0.8989
 8677TIP3    H125995   1.412   4.052   0.659 -0.0801 -1.6612  1.1916
 8677TIP3    H225996   1.498   3.934   0.620  0.7891 -1.3058  1.9944
 8678TIP3   OH225997   0.389   4.627   0.931  0.3947  0.1503  0.2569
 8678TIP3    H125998   0.371   4.721   0.931  0.1141  0.0973  0.1744
 8678TIP3    H225999   0.450   4.614   0.858 -1.5011 -0.0855 -1.3757
 8679TIP3   OH226000   0.884   0.210   1.574 -0.2022  0.0291  0.3735
 8679TIP3    H126001   0.935   0.278   1.616 -1.1083 -0.1472  1.8339
 8679TIP3    H226002   0.795   0.223   1.607 -0.7471 -0.7561 -0.7162
 8680TIP3   OH226003   4.017   4.887   2.332 -0.2989 -0.0384  0.3250
 8680TIP3    H126004   3.990   4.850   2.248  0.3597  0.8370 -0.2839
 8680TIP3    H226005   3.977   4.829   2.397 -2.5092  0.4460 -0.5385
 8681TIP3   OH226006   6.417   6.761   0.731 -0.1340 -0.1509  0.0173
 8681TIP3    H126007   6.399   6.722   0.645 -1.9077  0.4656  0.0684
 8681TIP3    H226008   6.437   6.686   0.787 -0.3357 -0.6811 -0.6083
 8682TIP3   OH226009   2.277   2.157   2.261 -0.2277 -0.1534 -0.3220
 8682TIP3    H126010   2.345   2.225   2.260 -1.2723  0.9057 -1.1806
 8682TIP3    H226011   2.311   2.089   2.203 -0.4454  0.9358 -1.7676
 8683TIP3   OH226012   6.580   1.496   5.237 -0.0659 -0.1554  0.1721
 8683TIP3    H126013   6.543   1.489   5.149  0.3679 -0.5190  0.0093
 8683TIP3    H226014   6.650   1.561   5.228  2.3146 -2.6069 -0.6231
 8684TIP3   OH226015   0.836   6.709   4.250 -0.4693  0.0590 -0.3830
 8684TIP3    H126016   0.748   6.695   4.285  0.1982  1.0270  1.9074
 8684TIP3    H226017   0.857   6.629   4.202 -2.0635 -0.7435  0.2147
 8685TIP3   OH226018   2.573   2.906   5.630 -0.7581  0.2563  0.0773
 8685TIP3    H126019   2.553   2.850   5.705 -0.3333  1.6944  1.3109
 8685TIP3    H226020   2.488   2.938   5.600 -0.8925  0.1475  0.3402
 8686TIP3   OH226021   1.412   1.497   5.208  0.2063  0.5997  0.2062
 8686TIP3    H126022   1.441   1.410   5.233 -0.9229  0.0365 -0.3340
 8686TIP3    H226023   1.389   1.540   5.290 -0.4603 -0.0930  0.3954
 8687TIP3   OH226024   5.180   6.680   3.890  0.8911 -0.7959 -0.0062
 8687TIP3    H126025   5.176   6.713   3.980 -2.0548  1.6328 -0.8516
 8687TIP3    H226026   5.126   6.601   3.891 -0.8897  0.3597  0.0553
 8688TIP3   OH226027   4.317   3.160   1.055  0.3163  0.6311  0.2131
 8688TIP3    H126028   4.294   3.114   0.975  2.0200  0.7144 -0.3679
 8688TIP3    H226029   4.315   3.093   1.123  1.0056  0.0704 -0.3053
 8689TIP3   OH226030   2.777   0.329   3.338 -0.1364 -0.2927  0.1143
 8689TIP3    H126031   2.692   0.310   3.379 -1.4443 -2.4647 -3.2488
 8689TIP3    H226032   2.802   0.248   3.295  2.8871  0.8003 -0.4114
 8690TIP3   OH226033   3.206   0.136   1.115 -0.2333 -0.7011 -0.0285
 8690TIP3    H126034   3.205   0.052   1.160 -0.1726 -2.5898 -3.2283
 8690TIP3    H226035   3.145   0.124   1.042  0.3245  1.7912 -1.0017
 8691TIP3   OH226036   5.551   5.452   0.897  0.1312  0.5160  0.4855
 8691TIP3    H126037   5.513   5.452   0.809 -0.1895  1.0300  0.6220
 8691TIP3    H226038   5.562   5.359   0.918 -2.2391  0.2509  0.9349
 8692TIP3   OH226039   1.207   5.556   1.422 -0.6319  0.2594  0.3438
 8692TIP3    H126040   1.229   5.507   1.343 -2.9100 -1.7526  0.8342
 8692TIP3    H226041   1.214   5.648   1.396  0.9354 -0.3085 -1.4778
 8693TIP3   OH226042   3.882   4.863   0.069  0.4188 -0.5935  0.3930
 8693TIP3    H126043   3.942   4.926   0.029 -0.2950 -0.5305 -0.6162
 8693TIP3    H226044   3.887   4.786   0.013  1.4412 -1.5474  1.7370
 8694TIP3   OH226045   1.850   1.904   4.308 -0.0710 -0.2510 -0.2184
 8694TIP3    H126046   1.893   1.841   4.366 -0.3463 -1.0035 -0.8198
 8694TIP3    H226047   1.825   1.853   4.232 -1.7106  0.2480 -0.0498
 8695TIP3   OH226048   2.531   5.384   5.315  0.3031 -0.2066 -0.1581
 8695TIP3    H126049   2.580   5.427   5.384 -1.8753  1.5410  0.3988
 8695TIP3    H226050   2.559   5.428   5.234  0.1175  0.3124  0.0637
 8696TIP3   OH226051   5.789   2.200   0.420  0.3524 -0.5095  0.5067
 8696TIP3    H126052   5.801   2.290   0.388 -1.6013 -0.7742 -1.1986
 8696TIP3    H226053   5.695   2.195   0.440  0.5620 -1.9949  1.2207
 8697TIP3   OH226054   3.011   2.009   0.847  0.2633 -0.0769  0.6446
 8697TIP3    H126055   2.920   1.982   0.864 -0.3325  1.7097  0.5806
 8697TIP3    H226056   3.050   2.016   0.934  0.4972 -1.3354  0.6457
 8698TIP3   OH226057   5.076   5.081   1.485  0.2893 -0.8079 -0.2754
 8698TIP3    H126058   5.123   5.149   1.437 -1.0169  0.5231  0.2621
 8698TIP3    H226059   5.004   5.127   1.528 -0.2930 -2.4435  0.5880
 8699TIP3   OH226060   4.090   1.748   4.184  0.1300  0.4654 -0.0014
 8699TIP3    H126061   3.996   1.734   4.170  0.0451  1.5898 -0.6675
 8699TIP3    H226062   4.120   1.668   4.228 -0.8007 -0.6578 -1.3136
 8700TIP3   OH226063   6.021   1.306   0.236  0.1655 -0.9670 -0.3485
 8700TIP3    H126064   5.938   1.258   0.232  1.3931 -3.1529 -1.2730
 8700TIP3    H226065   6.033   1.341   0.148  0.3578 -0.8633 -0.2807
 8701TIP3   OH226066   0.844   4.430   2.321  0.0596  0.0360 -0.2110
 8701TIP3    H126067   0.933   4.445   2.351 -0.9707 -0.2808  3.5194
 8701TIP3    H226068   0.806   4.518   2.313  0.8964  0.2488 -2.9709
 8702TIP3   OH226069   2.882   2.519   3.870  0.0280  0.5747 -0.8610
 8702TIP3    H126070   2.828   2.565   3.934  0.2567  2.3775 -1.9108
 8702TIP3    H226071   2.825   2.448   3.838  0.0264 -0.5840  1.4966
 8703TIP3   OH226072   1.123   4.764   4.024 -0.0584  0.1676 -0.2758
 8703TIP3    H126073   1.144   4.682   3.980  0.7273  0.3698 -0.2856
 8703TIP3    H226074   1.027   4.767   4.025 -0.1868 -1.7828  1.6445
 8704TIP3   OH226075   0.262   0.702   0.465 -0.1218  0.0275 -0.4031
 8704TIP3    H126076   0.344   0.656   0.482 -1.4964 -2.4347  0.0051
 8704TIP3    H226077   0.258   0.711   0.370  1.4891  1.9676 -0.3378
 8705TIP3   OH226078   3.542   4.458   4.955 -0.4096  0.2953 -0.2850
 8705TIP3    H126079   3.466   4.399   4.960 -0.6507  0.1821 -3.2460
 8705TIP3    H226080   3.505   4.546   4.967 -1.2570  0.3197 -2.5581
 8706TIP3   OH226081   1.695   6.215   2.475 -0.5312  0.2415 -0.6130
 8706TIP3    H126082   1.784   6.214   2.440 -0.7703 -0.8117 -1.2355
 8706TIP3    H226083   1.639   6.195   2.400 -1.3075  0.9258 -0.2390
 8707TIP3   OH226084   6.299   2.940   0.852  0.1209  0.4491 -0.1552
 8707TIP3    H126085   6.311   2.848   0.827 -2.0173  0.3992 -1.2404
 8707TIP3    H226086   6.253   2.936   0.936 -1.1380  0.4690 -0.8194
 8708TIP3   OH226087   0.753   2.453   2.386  0.5683 -0.3743 -0.3909
 8708TIP3    H126088   0.827   2.499   2.344 -0.7290  1.6578 -0.6053
 8708TIP3    H226089   0.751   2.489   2.475  1.0498 -1.9426  0.2786
 8709TIP3   OH226090   0.835   2.039   0.478 -0.0993 -0.4683 -0.6407
 8709TIP3    H126091   0.882   2.123   0.474 -0.9918  0.0141 -1.6829
 8709TIP3    H226092   0.879   1.984   0.414 -1.5495  0.3487 -2.4457
 8710TIP3   OH226093   2.566   0.477   1.474  0.0903 -0.2546  0.1154
 8710TIP3    H126094   2.474   0.450   1.473 -0.6679  2.1414 -0.6223
 8710TIP3    H226095   2.592   0.473   1.382 -0.0386  1.3681 -0.0127
 8711TIP3   OH226096   5.388   2.002   4.791 -0.2751 -0.1538  0.1792
 8711TIP3    H126097   5.367   1.936   4.725  0.0686 -0.0727 -0.0139
 8711TIP3    H226098   5.305   2.021   4.833 -0.3950 -0.6339  0.1649
 8712TIP3   OH226099   5.513   1.319   5.459 -0.3997  0.2579  0.4224
 8712TIP3    H126100   5.580   1.376   5.423 -1.3186  0.3161 -1.2979
 8712TIP3    H226101   5.559   1.237   5.478 -0.1956 -0.5470 -2.9673
 8713TIP3   OH226102   0.304   2.340   4.340 -0.2391 -0.9920 -0.6077
 8713TIP3    H126103   0.229   2.379   4.295  0.3188 -0.3546 -1.0014
 8713TIP3    H226104   0.379   2.360   4.284  0.3373 -0.9643  0.1567
 8714TIP3   OH226105   3.804   6.667   5.348  0.3286 -0.4554 -0.3542
 8714TIP3    H126106   3.881   6.707   5.307  0.0202 -0.0806 -0.5779
 8714TIP3    H226107   3.730   6.717   5.312  0.0851  0.3011  1.1373
 8715TIP3   OH226108   0.116   6.096   1.937  1.6499  0.2731  1.0866
 8715TIP3    H126109   0.053   6.135   1.877  0.1102 -2.8270  0.4551
 8715TIP3    H226110   0.195   6.148   1.926  0.6251  1.4474 -1.6735
 8716TIP3   OH226111   4.981   5.498   0.556  0.4618 -0.1130 -0.3073
 8716TIP3    H126112   4.970   5.468   0.465  1.6715 -0.3247 -0.3932
 8716TIP3    H226113   4.894   5.528   0.581 -0.5366 -2.4702 -0.6640
 8717TIP3   OH226114   4.908   1.363   4.333  0.3256 -0.0257  0.3552
 8717TIP3    H126115   4.900   1.277   4.374  0.5062 -1.0239 -1.5749
 8717TIP3    H226116   4.999   1.389   4.349  0.4124 -0.4230  0.5162
 8718TIP3   OH226117   0.330   6.089   2.223 -0.0870 -0.0844 -0.3090
 8718TIP3    H126118   0.355   6.178   2.248  0.0196 -0.0701 -0.4641
 8718TIP3    H226119   0.397   6.062   2.160  0.2863 -0.5394  0.2696
 8719TIP3   OH226120   3.879   2.023   4.063 -0.6521  0.0566 -0.2708
 8719TIP3    H126121   3.868   1.928   4.054  1.7547 -0.4267  1.0849
 8719TIP3    H226122   3.792   2.055   4.088 -1.8150 -1.5706 -1.8841
 8720TIP3   OH226123   6.347   3.399   3.073 -0.1480  0.0061  0.2219
 8720TIP3    H126124   6.384   3.481   3.043  1.5331 -0.7995  0.0078
 8720TIP3    H226125   6.351   3.404   3.169  0.4690 -0.0424  0.2022
 8721TIP3   OH226126   7.140   5.493   2.883  0.0183 -0.6982  0.0302
 8721TIP3    H126127   7.167   5.557   2.948  2.6142  1.1313 -2.5785
 8721TIP3    H226128   7.132   5.411   2.932  0.0928  0.8685  2.8872
 8722TIP3   OH226129   3.438   4.346   1.892 -0.4132 -0.1170 -0.0490
 8722TIP3    H126130   3.531   4.363   1.904 -0.5443 -0.2501  1.4372
 8722TIP3    H226131   3.426   4.254   1.917 -0.9678 -0.0464 -0.0323
 8723TIP3   OH226132   4.930   4.392   5.420 -0.7438  0.1429 -0.2835
 8723TIP3    H126133   4.894   4.376   5.507 -1.0766  0.2241 -0.4037
 8723TIP3    H226134   5.018   4.426   5.436 -0.6781 -0.1669  0.0098
 8724TIP3   OH226135   2.618   3.968   3.968  0.0647 -0.5045  0.0915
 8724TIP3    H126136   2.598   4.057   3.938 -0.1668 -0.3325  0.7401
 8724TIP3    H226137   2.532   3.932   3.992  0.2120 -0.7501  0.2484
 8725TIP3   OH226138   5.543   0.373   2.933  0.3813 -0.4303  0.5687
 8725TIP3    H126139   5.513   0.463   2.927 -2.7325 -1.4562 -1.9998
 8725TIP3    H226140   5.525   0.348   3.024 -0.6452  0.9414  0.7683
 8726TIP3   OH226141   5.188   1.695   1.453 -0.2132  0.5499  0.5519
 8726TIP3    H126142   5.137   1.682   1.533 -1.7239  0.5991 -0.3587
 8726TIP3    H226143   5.249   1.766   1.474 -0.8214  0.7892  1.5426
 8727TIP3   OH226144   5.198   0.432   3.893 -0.2754  0.1452 -0.0701
 8727TIP3    H126145   5.264   0.497   3.871 -0.0166  0.1223  0.6069
 8727TIP3    H226146   5.162   0.462   3.977  1.2258 -1.5901  1.2969
 8728TIP3   OH226147   0.431   5.827   5.507 -0.3055  0.2169 -0.0573
 8728TIP3    H126148   0.478   5.817   5.590 -1.7297  0.0246  0.7818
 8728TIP3    H226149   0.344   5.858   5.534 -0.8363  0.0161 -1.4761
 8729TIP3   OH226150   3.916   0.419   2.895 -0.0215 -0.0634  0.0772
 8729TIP3    H126151   3.957   0.394   2.979  0.3729  0.3186  0.0037
 8729TIP3    H226152   3.825   0.391   2.904  0.2269 -0.8243  0.2924
 8730TIP3   OH226153   4.287   6.743   0.897  0.6337 -0.2394  0.1615
 8730TIP3    H126154   4.204   6.699   0.881  0.8395 -0.6221  0.1445
 8730TIP3    H226155   4.331   6.744   0.812  0.9056 -0.5791  0.2950
 8731TIP3   OH226156   2.378   6.734   2.442 -0.3029  0.9002 -0.3706
 8731TIP3    H126157   2.458   6.745   2.391  0.2906  1.4415  0.6351
 8731TIP3    H226158   2.340   6.822   2.446 -0.3103  0.8776  0.1428
 8732TIP3   OH226159   6.964   6.468   4.992 -0.3008  0.3308 -0.0311
 8732TIP3    H126160   6.936   6.556   5.015 -0.5377  0.5738 -1.1677
 8732TIP3    H226161   6.947   6.416   5.070 -0.8526  1.1433  0.4021
 8733TIP3   OH226162   6.350   4.074   5.702 -0.1169  0.4623 -0.2647
 8733TIP3    H126163   6.312   4.052   5.787  0.1632 -1.9603 -0.6948
 8733TIP3    H226164   6.281   4.122   5.657 -1.6002 -1.2145  0.0982
 8734TIP3   OH226165   2.277   6.221   0.638  0.3208  0.1090  0.6710
 8734TIP3    H126166   2.357   6.221   0.584  0.7717  1.0237  1.3151
 8734TIP3    H226167   2.238   6.306   0.622 -0.7004 -0.4444  0.1404
 8735TIP3   OH226168   2.932   2.921   3.349 -0.0751 -0.1509 -0.3348
 8735TIP3    H126169   3.012   2.967   3.375  0.7014 -2.8273  2.7123
 8735TIP3    H226170   2.953   2.882   3.264  0.8083  1.3437 -0.8457
 8736TIP3   OH226171   5.515   4.087   5.612 -0.1888 -0.1313 -0.0689
 8736TIP3    H126172   5.470   4.114   5.693  0.5211 -1.3841  0.7812
 8736TIP3    H226173   5.582   4.025   5.642  1.0498  0.4859 -1.4788
 8737TIP3   OH226174   7.027   0.101   2.626 -0.0906  0.6823 -0.0110
 8737TIP3    H126175   6.999   0.190   2.606 -2.3407 -0.0519 -0.3965
 8737TIP3    H226176   7.114   0.112   2.665  1.1994  2.7678 -3.0620
 8738TIP3   OH226177   2.754   4.533   3.687  0.1529  0.5132  0.8095
 8738TIP3    H126178   2.838   4.488   3.688 -0.3748 -0.4896  1.0378
 8738TIP3    H226179   2.760   4.597   3.758  0.4732 -0.0019  1.2497
 8739TIP3   OH226180   2.615   0.181   5.808 -0.3985  0.3202 -0.0799
 8739TIP3    H126181   2.584   0.110   5.752  1.2044  0.7441 -1.5963
 8739TIP3    H226182   2.573   0.260   5.772 -0.4189  0.4217  0.1653
 8740TIP3   OH226183   0.449   1.604   5.462 -0.1694 -0.0181  0.1178
 8740TIP3    H126184   0.370   1.583   5.512  0.3531  0.1046  1.0074
 8740TIP3    H226185   0.487   1.519   5.440 -0.6476 -0.0806 -0.4757
 8741TIP3   OH226186   5.125   6.450   4.468 -0.2031  0.2174 -0.3461
 8741TIP3    H126187   5.054   6.444   4.403 -0.7103  0.2686  0.1965
 8741TIP3    H226188   5.080   6.461   4.552  0.4509  0.2211  0.0097
 8742TIP3   OH226189   0.631   0.268   1.648  0.5828  0.0705  0.0371
 8742TIP3    H126190   0.546   0.231   1.623  0.4641  0.0054  0.5398
 8742TIP3    H226191   0.609   0.338   1.710  0.8485  0.5756 -0.4229
 8743TIP3   OH226192   4.306   2.345   4.030 -0.7207  0.2619 -0.2821
 8743TIP3    H126193   4.210   2.341   4.032 -0.7922 -0.6797 -2.6672
 8743TIP3    H226194   4.327   2.435   4.052 -2.0579  0.2209  1.4090
 8744TIP3   OH226195   1.590   6.422   2.145 -0.2681  0.5047  0.2628
 8744TIP3    H126196   1.639   6.363   2.087  0.4771  0.7824  0.5953
 8744TIP3    H226197   1.605   6.509   2.109  0.8299  0.7681  1.2740
 8745TIP3   OH226198   7.125   3.066   3.237  0.2517  0.1276 -0.0371
 8745TIP3    H126199   7.143   3.155   3.206 -0.5090 -0.3547 -2.0265
 8745TIP3    H226200   7.082   3.024   3.163 -0.0996 -1.6767  1.1460
 8746TIP3   OH226201   4.655   4.862   5.685  0.0352 -0.3722  0.0072
 8746TIP3    H126202   4.562   4.879   5.701 -0.0994  0.4022 -1.4270
 8746TIP3    H226203   4.658   4.772   5.654  0.0738 -1.2087  2.2592
 8747TIP3   OH226204   0.440   6.410   4.170  0.3871  0.3995 -0.3243
 8747TIP3    H126205   0.418   6.328   4.126 -0.0826 -0.1877  0.9289
 8747TIP3    H226206   0.384   6.476   4.128 -0.7324 -0.3110 -0.0049
 8748TIP3   OH226207   3.099   3.566   4.235 -0.2436 -0.5278 -0.0334
 8748TIP3    H126208   3.036   3.569   4.164 -0.5862  2.9755  0.1972
 8748TIP3    H226209   3.184   3.578   4.192 -0.2473 -0.4185 -0.0114
 8749TIP3   OH226210   1.530   6.484   0.140  0.0731  0.1161 -0.4704
 8749TIP3    H126211   1.530   6.564   0.192  1.6583 -0.8226  1.0996
 8749TIP3    H226212   1.615   6.443   0.158 -0.4560 -1.6440 -1.6512
 8750TIP3   OH226213   1.814   6.695   0.411  0.1661 -0.3318  0.3131
 8750TIP3    H126214   1.900   6.737   0.399  0.0523 -0.0725  0.3889
 8750TIP3    H226215   1.818   6.657   0.498  1.0144 -2.2681 -0.5173
 8751TIP3   OH226216   6.708   1.080   4.164 -0.5484  0.5973  0.0894
 8751TIP3    H126217   6.681   1.079   4.072 -0.5255 -1.1941  0.0716
 8751TIP3    H226218   6.793   1.037   4.164 -1.4840 -1.3951  1.1788
 8752TIP3   OH226219   6.066   0.473   2.097  0.3467 -0.4079  0.2154
 8752TIP3    H126220   6.106   0.530   2.032 -2.6092  1.8934  0.2098
 8752TIP3    H226221   6.047   0.392   2.049  1.0862  0.0335 -0.8562
 8753TIP3   OH226222   2.852   3.384   1.511 -0.2687 -0.6750 -0.7732
 8753TIP3    H126223   2.769   3.337   1.510  0.0288 -1.2194 -0.5753
 8753TIP3    H226224   2.836   3.464   1.461 -0.9075 -0.7767 -0.7354
 8754TIP3   OH226225   0.512   4.575   1.775  0.1038  0.0829  0.0849
 8754TIP3    H126226   0.469   4.559   1.859  1.8404 -0.3476  0.9566
 8754TIP3    H226227   0.472   4.513   1.714 -0.0051 -0.8024  1.0310
 8755TIP3   OH226228   3.003   4.337   4.408  0.0084 -0.1560  0.1430
 8755TIP3    H126229   3.078   4.356   4.465  0.3269 -0.4252 -0.1846
 8755TIP3    H226230   3.001   4.411   4.347 -0.5830  0.3420  0.7538
 8756TIP3   OH226231   2.332   4.555   4.384  0.2852 -0.5115 -0.4334
 8756TIP3    H126232   2.299   4.610   4.313  0.0090 -0.6769 -0.4359
 8756TIP3    H226233   2.300   4.598   4.464 -0.3849 -0.9553 -0.4546
 8757TIP3   OH226234   6.778   0.084   0.068 -0.4029  0.1602  0.7804
 8757TIP3    H126235   6.687   0.059   0.054  0.2932 -2.7969  0.7997
 8757TIP3    H226236   6.828   0.006   0.043  1.9990  0.9755  2.6717
 8758TIP3   OH226237   3.288   2.684   0.700 -0.0577  0.8856  0.4576
 8758TIP3    H126238   3.277   2.704   0.607 -1.5934  0.8552  0.6059
 8758TIP3    H226239   3.291   2.770   0.743 -0.4615  0.8931  0.4780
 8759TIP3   OH226240   3.851   6.407   4.978 -0.2677 -0.9466  0.1895
 8759TIP3    H126241   3.924   6.380   5.033 -0.5339 -1.7776  0.1491
 8759TIP3    H226242   3.855   6.503   4.978  1.1166 -0.9869 -0.2238
 8760TIP3   OH226243   2.465   2.400   1.692 -0.3023  0.0949  0.3473
 8760TIP3    H126244   2.457   2.469   1.758 -2.1278  0.7769 -0.5109
 8760TIP3    H226245   2.524   2.436   1.626  0.2520  0.0526  0.8119
 8761TIP3   OH226246   5.772   1.913   0.777  0.4992 -0.4505 -0.5967
 8761TIP3    H126247   5.695   1.895   0.724  1.4098 -1.0698 -1.7680
 8761TIP3    H226248   5.823   1.976   0.725 -0.4905  2.1847  1.4084
 8762TIP3   OH226249   6.533   1.080   4.569  0.4183 -0.6348 -0.6282
 8762TIP3    H126250   6.453   1.092   4.619  1.5640 -1.0858  1.4370
 8762TIP3    H226251   6.541   0.986   4.558 -0.0935 -0.5195 -2.1970
 8763TIP3   OH226252   0.483   2.860   3.451  0.1079 -0.3803  0.1568
 8763TIP3    H126253   0.415   2.842   3.515 -1.2463  0.1755 -1.0735
 8763TIP3    H226254   0.546   2.788   3.461  0.3552  0.0706  2.5868
 8764TIP3   OH226255   5.452   1.291   3.926  0.1747 -0.7199  0.6397
 8764TIP3    H126256   5.466   1.196   3.922  0.5595 -0.7105  1.5522
 8764TIP3    H226257   5.532   1.328   3.888 -0.4663 -0.7673 -0.7952
 8765TIP3   OH226258   6.588   6.642   4.078  0.8657 -0.2559 -0.3603
 8765TIP3    H126259   6.532   6.673   4.007  0.5785  0.0546  0.0008
 8765TIP3    H226260   6.562   6.550   4.090 -2.7278  0.9107  2.7031
 8766TIP3   OH226261   4.092   2.565   3.640 -0.2972 -0.3623  0.2876
 8766TIP3    H126262   4.020   2.625   3.659 -0.5282 -0.5263 -0.0596
 8766TIP3    H226263   4.169   2.607   3.679 -0.4032  0.2983 -0.1892
 8767TIP3   OH226264   3.839   2.123   2.787 -0.1159 -0.1716  0.1797
 8767TIP3    H126265   3.933   2.109   2.779 -0.2308 -0.2104 -1.4616
 8767TIP3    H226266   3.802   2.035   2.798 -0.0760 -0.3056 -0.7176
 8768TIP3   OH226267   0.058   1.075   2.093  0.2084  0.0483  0.2388
 8768TIP3    H126268   0.050   1.170   2.103 -1.0385 -0.1901  2.0487
 8768TIP3    H226269   0.144   1.054   2.127  0.2093  0.4625  0.4975
 8769TIP3   OH226270   3.862   2.412   2.008  0.0196 -0.0443  0.5754
 8769TIP3    H126271   3.879   2.322   2.037  0.1617  0.4313  2.0878
 8769TIP3    H226272   3.868   2.409   1.913 -0.2743 -1.6919  0.5897
 8770TIP3   OH226273   4.739   3.251   1.501  0.1972 -0.2253  0.1611
 8770TIP3    H126274   4.695   3.263   1.585 -0.2443 -1.1858  0.0854
 8770TIP3    H226275   4.769   3.160   1.502  0.5542 -0.1287 -0.5521
 8771TIP3   OH226276   4.565   1.779   1.861  0.0621 -0.2227  0.6762
 8771TIP3    H126277   4.584   1.868   1.889 -0.8461  0.2254 -0.0775
 8771TIP3    H226278   4.469   1.776   1.852  0.1234 -1.0972  0.1268
 8772TIP3   OH226279   3.475   0.199   1.088  0.8157  0.4701 -0.3643
 8772TIP3    H126280   3.384   0.205   1.060  0.9688 -0.6003 -1.1629
 8772TIP3    H226281   3.476   0.126   1.151  0.5112  2.6970  2.4215
 8773TIP3   OH226282   2.629   1.658   3.349  0.0170  0.3589 -0.7180
 8773TIP3    H126283   2.533   1.664   3.350  0.0433  0.7649 -0.3982
 8773TIP3    H226284   2.659   1.749   3.344  0.3808  0.2011 -1.6106
 8774TIP3   OH226285   3.490   3.417   1.513 -0.4066  0.3062 -0.1130
 8774TIP3    H126286   3.546   3.404   1.437 -0.1433 -0.5612  0.2222
 8774TIP3    H226287   3.400   3.416   1.478 -0.2949 -0.2549 -0.3895
 8775TIP3   OH226288   2.827   1.345   3.893 -0.1797  0.3294  0.2196
 8775TIP3    H126289   2.751   1.402   3.907 -1.4819 -1.5858  1.3894
 8775TIP3    H226290   2.807   1.300   3.811 -0.2116 -0.0410  0.4312
 8776TIP3   OH226291   5.632   3.240   2.202  0.2298  0.3395  0.0137
 8776TIP3    H126292   5.655   3.170   2.140  0.6929 -0.9494  1.5773
 8776TIP3    H226293   5.686   3.314   2.175  1.2430 -0.5464 -0.4571
 8777TIP3   OH226294   4.244   2.622   4.505 -0.7325 -0.4124 -0.1086
 8777TIP3    H126295   4.306   2.680   4.550 -1.6445 -0.0389  0.7030
 8777TIP3    H226296   4.241   2.656   4.416  0.5232 -0.6882 -0.2735
 8778TIP3   OH226297   6.019   2.805   0.114 -0.1070  0.7322 -0.0550
 8778TIP3    H126298   6.052   2.895   0.110 -0.4045  0.8178 -0.6607
 8778TIP3    H226299   5.955   2.806   0.185  1.5012  0.4548  1.4611
 8779TIP3   OH226300   6.060   4.076   5.329  0.7360  0.1041 -0.4448
 8779TIP3    H126301   5.975   4.097   5.291  0.7149  0.4055 -0.2412
 8779TIP3    H226302   6.074   3.983   5.310  0.3329  0.0403 -0.4229
 8780TIP3   OH226303   4.403   4.424   3.219  0.2771 -0.3837  0.3703
 8780TIP3    H126304   4.366   4.453   3.136 -0.5368  2.8990  1.7350
 8780TIP3    H226305   4.327   4.404   3.274  0.5777  1.3089  1.5047
 8781TIP3   OH226306   3.029   5.997   0.704  0.0171 -0.3757 -1.4114
 8781TIP3    H126307   3.061   6.022   0.791 -1.8888 -0.1314 -0.7432
 8781TIP3    H226308   3.091   5.930   0.675  1.9006  0.9908 -0.7962
 8782TIP3   OH226309   4.827   5.071   5.654 -0.0642  0.0378 -0.4829
 8782TIP3    H126310   4.781   5.108   5.580 -2.4041  0.4694  1.0748
 8782TIP3    H226311   4.778   4.991   5.675  0.9854 -0.4635  0.1451
 8783TIP3   OH226312   4.103   2.796   5.625  0.1392  0.2318 -0.0820
 8783TIP3    H126313   4.094   2.889   5.603 -0.1857  0.1788 -0.1809
 8783TIP3    H226314   4.074   2.790   5.716  2.8352  0.6923  0.9068
 8784TIP3   OH226315   0.443   1.670   3.759  0.4784 -0.3472  0.1537
 8784TIP3    H126316   0.525   1.686   3.713  1.4290 -2.4910  0.9895
 8784TIP3    H226317   0.428   1.749   3.811  2.4756 -0.2369  0.6268
 8785TIP3   OH226318   2.120   4.835   5.448  0.1203  0.1039 -0.3625
 8785TIP3    H126319   2.099   4.787   5.528 -1.5566 -0.2001 -0.9317
 8785TIP3    H226320   2.180   4.778   5.400  0.3895 -0.1343  0.2506
 8786TIP3   OH226321   6.394   5.437   3.212 -0.1195  0.2464  0.4682
 8786TIP3    H126322   6.356   5.381   3.280 -1.2003 -0.9200 -1.0358
 8786TIP3    H226323   6.459   5.489   3.258 -0.5666 -0.7503  2.3313
 8787TIP3   OH226324   4.025   3.842   4.413  0.4465 -0.3921 -0.3593
 8787TIP3    H126325   4.116   3.857   4.387  0.2054  1.8198 -0.0706
 8787TIP3    H226326   4.027   3.840   4.509  0.0680  0.7924 -0.3095
 8788TIP3   OH226327   1.986   4.413   2.208  0.1393 -0.3601 -0.0955
 8788TIP3    H126328   2.035   4.495   2.216  1.3871 -1.1432  0.6747
 8788TIP3    H226329   1.999   4.387   2.116  1.7894 -0.8939  0.2533
 8789TIP3   OH226330   7.058   2.763   2.138 -0.1713  0.1665  0.3674
 8789TIP3    H126331   7.093   2.680   2.104 -0.1721  0.2588  0.1406
 8789TIP3    H226332   7.126   2.795   2.198 -0.3225 -0.1708  0.7274
 8790TIP3   OH226333   2.612   6.381   3.316 -0.0827  0.3389 -0.1949
 8790TIP3    H126334   2.640   6.300   3.360 -2.4923 -0.8929 -0.7913
 8790TIP3    H226335   2.542   6.416   3.371 -0.9331  0.5238 -1.3522
 8791TIP3   OH226336   3.049   1.260   0.397  0.1170  0.3078  0.1331
 8791TIP3    H126337   3.086   1.172   0.407  0.7259  0.6814  1.2789
 8791TIP3    H226338   3.121   1.319   0.415 -0.5502  1.0450  0.4287
 8792TIP3   OH226339   2.869   4.053   3.770  0.8951 -0.3370 -0.6267
 8792TIP3    H126340   2.796   4.034   3.711 -0.8574  1.9958  0.6047
 8792TIP3    H226341   2.927   4.108   3.717  0.6864 -0.4430 -0.9737
 8793TIP3   OH226342   4.399   0.527   5.440 -0.2456  0.1792  0.6088
 8793TIP3    H126343   4.349   0.506   5.361  0.7388  0.1346 -0.0104
 8793TIP3    H226344   4.487   0.496   5.422  0.3742  1.5558  1.1052
 8794TIP3   OH226345   1.954   6.427   5.613  0.0514  0.3200 -0.1175
 8794TIP3    H126346   1.965   6.485   5.537  0.6912  0.2279 -0.1001
 8794TIP3    H226347   1.926   6.344   5.576 -2.0559  0.9567 -0.0504
 8795TIP3   OH226348   1.712   4.424   3.935  0.1670  0.3286 -0.3869
 8795TIP3    H126349   1.617   4.424   3.922  0.5578  2.4211 -5.3941
 8795TIP3    H226350   1.741   4.341   3.898  0.4178  0.6373 -0.8887
 8796TIP3   OH226351   7.168   4.701   2.724 -1.0109  0.3352  0.2420
 8796TIP3    H126352   7.222   4.674   2.799  1.1285  1.4861 -0.8166
 8796TIP3    H226353   7.123   4.621   2.698  0.7933 -0.9007  0.7099
 8797TIP3   OH226354   0.401   6.621   1.888  0.9436  0.4785 -0.2025
 8797TIP3    H126355   0.322   6.580   1.922  1.3003 -1.6413 -1.7210
 8797TIP3    H226356   0.400   6.709   1.926 -2.3949  0.7353 -0.5383
 8798TIP3   OH226357   4.193   1.654   4.574  0.3310  0.2699 -0.2003
 8798TIP3    H126358   4.227   1.637   4.486 -0.9048  2.2053 -1.0922
 8798TIP3    H226359   4.106   1.691   4.560  0.4966  1.5397  1.8028
 8799TIP3   OH226360   4.350   0.678   4.231  0.2454 -0.4902 -0.4810
 8799TIP3    H126361   4.389   0.642   4.311  0.1615  0.0788 -0.1771
 8799TIP3    H226362   4.425   0.706   4.179  0.3397 -1.5782 -0.9628
 8800TIP3   OH226363   3.138   0.802   3.519 -0.6817  0.1989  0.2669
 8800TIP3    H126364   3.091   0.762   3.445  1.4559 -0.5554 -0.7575
 8800TIP3    H226365   3.142   0.733   3.585  1.0229 -0.5887 -0.6055
 8801TIP3   OH226366   3.029   3.226   0.412  0.2116 -0.5157 -0.2362
 8801TIP3    H126367   3.061   3.188   0.494  1.2144  0.5274 -0.1266
 8801TIP3    H226368   3.046   3.320   0.420 -0.1889 -0.3200 -1.4135
 8802TIP3   OH226369   2.634   6.461   2.159  0.5191  0.0427  0.4206
 8802TIP3    H126370   2.661   6.553   2.162 -0.1326  0.2259  0.8831
 8802TIP3    H226371   2.550   6.462   2.112  2.4838 -0.8318 -3.5884
 8803TIP3   OH226372   1.200   2.133   1.836 -0.0744  0.5209  0.4683
 8803TIP3    H126373   1.172   2.064   1.777  0.9113 -0.4021  1.0318
 8803TIP3    H226374   1.295   2.135   1.828 -0.0853  1.9933  0.2896
 8804TIP3   OH226375   7.104   5.975   3.150 -0.6750 -0.0109 -0.4586
 8804TIP3    H126376   7.152   5.902   3.188  0.0565  0.8834  0.4055
 8804TIP3    H226377   7.014   5.944   3.141 -0.4828 -0.8308  0.3947
 8805TIP3   OH226378   4.227   3.099   3.683 -0.4294  0.4042 -0.0379
 8805TIP3    H126379   4.221   3.008   3.711  2.4632  0.2668  0.4374
 8805TIP3    H226380   4.277   3.143   3.751  0.6015  1.7124 -1.5531
 8806TIP3   OH226381   2.203   4.622   4.984 -0.4738 -0.4588 -0.0316
 8806TIP3    H126382   2.120   4.649   5.024 -1.5925 -0.8945 -1.9045
 8806TIP3    H226383   2.232   4.698   4.934  1.4245  0.4214  2.2573
 8807TIP3   OH226384   0.946   5.113   2.671  0.0167  0.1927 -0.1304
 8807TIP3    H126385   0.957   5.018   2.674  2.1262  0.3350 -1.1977
 8807TIP3    H226386   0.898   5.129   2.589 -0.5390  0.0547  0.1621
 8808TIP3   OH226387   3.208   4.677   0.660 -0.5144  0.4654 -0.1447
 8808TIP3    H126388   3.259   4.732   0.601 -1.5945  1.7507  0.0612
 8808TIP3    H226389   3.244   4.695   0.747 -0.0682 -0.1052 -0.2038
 8809TIP3   OH226390   2.462   6.659   3.148 -0.0168 -0.4590  0.2367
 8809TIP3    H126391   2.546   6.705   3.156  0.6611 -1.5311 -0.4845
 8809TIP3    H226392   2.443   6.660   3.054 -1.7237  1.3076  0.5309
 8810TIP3   OH226393   0.074   2.541   2.097  0.0013 -0.0658 -0.2811
 8810TIP3    H126394   0.113   2.624   2.124  0.5988 -0.3262 -0.3270
 8810TIP3    H226395   0.106   2.478   2.162  2.9005 -1.0725 -2.4748
 8811TIP3   OH226396   1.189   2.707   5.686 -0.4846  0.3997  0.0377
 8811TIP3    H126397   1.174   2.676   5.776  0.5322 -0.5630 -0.0987
 8811TIP3    H226398   1.242   2.638   5.646  2.8892  2.7453  0.0506
 8812TIP3   OH226399   0.111   0.931   3.899  0.0727  0.4381  0.1354
 8812TIP3    H126400   0.139   0.857   3.844 -0.7401 -1.6033  2.2806
 8812TIP3    H226401   0.191   0.962   3.940  0.2890  0.0635  0.0034
 8813TIP3   OH226402   5.055   0.072   4.283 -0.0074  0.1230 -1.0263
 8813TIP3    H126403   5.024   0.014   4.353  3.1267 -1.3772 -0.6980
 8813TIP3    H226404   5.067   0.156   4.326 -0.1103 -0.2434 -0.2571
 8814TIP3   OH226405   1.179   1.283   4.784  0.4255 -0.4483  0.0636
 8814TIP3    H126406   1.263   1.238   4.787 -0.6436 -2.4911  1.9955
 8814TIP3    H226407   1.165   1.314   4.873 -0.5142  0.5923 -0.4211
 8815TIP3   OH226408   6.155   1.306   4.780  0.2883  0.1210 -0.0568
 8815TIP3    H126409   6.226   1.370   4.780  1.3501 -0.9388 -2.0780
 8815TIP3    H226410   6.093   1.338   4.715 -0.7492  0.6600  1.1711
 8816TIP3   OH226411   3.661   6.188   4.706  0.4519 -0.4057 -0.3427
 8816TIP3    H126412   3.681   6.174   4.798  0.3246  0.3405 -0.2013
 8816TIP3    H226413   3.716   6.124   4.660  1.2277 -0.1342  0.1925
 8817TIP3   OH226414   5.250   3.620   4.421 -0.2757  0.1042 -0.2789
 8817TIP3    H126415   5.194   3.697   4.409  0.7218  1.5912  3.3762
 8817TIP3    H226416   5.333   3.645   4.381 -0.1801  0.6573  0.2548
 8818TIP3   OH226417   2.154   4.506   2.690 -0.2023  0.2160 -0.6716
 8818TIP3    H126418   2.238   4.547   2.708  0.1263 -0.8486  0.3088
 8818TIP3    H226419   2.104   4.573   2.643  1.1274  0.9072 -1.1263
 8819TIP3   OH226420   4.560   4.719   4.948  0.8302 -0.0796  0.0702
 8819TIP3    H126421   4.649   4.684   4.958  0.6699  0.0011  2.5265
 8819TIP3    H226422   4.543   4.715   4.854  2.6040 -2.1266 -0.2515
 8820TIP3   OH226423   5.256   6.201   3.003  0.9188  0.4264  0.0846
 8820TIP3    H126424   5.199   6.133   2.967  0.6194  0.4543  0.5045
 8820TIP3    H226425   5.270   6.261   2.929 -0.2385  0.8404  0.1873
 8821TIP3   OH226426   2.908   2.312   2.939 -0.0142 -0.1961 -0.5197
 8821TIP3    H126427   2.846   2.313   2.866  0.8556 -0.0663 -1.2715
 8821TIP3    H226428   2.994   2.299   2.898  0.6032  0.8598  0.3765
 8822TIP3   OH226429   0.158   5.990   4.540 -0.0345 -0.0677  0.2691
 8822TIP3    H126430   0.236   5.979   4.596  0.1280 -1.1750 -0.1335
 8822TIP3    H226431   0.090   5.939   4.584 -1.1875  2.5514  1.7235
 8823TIP3   OH226432   4.635   5.071   3.937 -0.1027  0.4808  0.7225
 8823TIP3    H126433   4.586   5.048   3.858  0.2754  0.5064  0.4826
 8823TIP3    H226434   4.668   5.159   3.920  1.4744 -0.1852  0.1738
 8824TIP3   OH226435   2.439   1.828   1.742  0.6603 -0.2005 -0.0535
 8824TIP3    H126436   2.524   1.799   1.709  1.0280  1.1403 -0.3402
 8824TIP3    H226437   2.413   1.898   1.682 -1.1630 -1.2903 -0.6223
 8825TIP3   OH226438   6.010   1.917   2.601  0.4987  0.6128 -0.1378
 8825TIP3    H126439   6.087   1.968   2.624  0.8359  0.1416 -0.2088
 8825TIP3    H226440   5.963   1.971   2.537  0.6259  1.0151  0.1032
 8826TIP3   OH226441   5.579   0.443  -0.006  0.1164  0.8197 -0.5673
 8826TIP3    H126442   5.654   0.430  -0.063  0.0946  0.7467 -0.5797
 8826TIP3    H226443   5.615   0.436   0.083 -0.2956 -1.9742 -0.5141
 8827TIP3   OH226444   4.689   1.285   3.593  0.3356 -0.3824 -0.1624
 8827TIP3    H126445   4.777   1.267   3.559  1.4022  3.3682  0.0933
 8827TIP3    H226446   4.684   1.237   3.675  0.7014 -3.4632 -1.8177
 8828TIP3   OH226447   2.594   5.565   0.274 -0.3498  0.1448  0.3379
 8828TIP3    H126448   2.565   5.589   0.186 -0.6493 -0.3160  0.3023
 8828TIP3    H226449   2.634   5.479   0.263 -3.5638 -1.6419  1.1489
 8829TIP3   OH226450   4.075   4.102   1.037  0.3843  0.5693 -0.5161
 8829TIP3    H126451   4.124   4.036   1.086  2.4581  0.7350 -2.2008
 8829TIP3    H226452   3.999   4.055   1.002  0.2501 -0.1546  0.7056
 8830TIP3   OH226453   1.811   2.789   1.508 -0.4299  0.0498 -0.7899
 8830TIP3    H126454   1.777   2.700   1.516  0.4504 -0.3367 -1.2439
 8830TIP3    H226455   1.739   2.845   1.538 -0.4935 -0.8602  0.8623
 8831TIP3   OH226456   0.867   1.111  -0.004 -0.2743  0.1269  0.1911
 8831TIP3    H126457   0.857   1.107   0.091  0.8027 -0.3837  0.3018
 8831TIP3    H226458   0.851   1.203  -0.026  0.4615  0.4631  0.9964
 8832TIP3   OH226459   2.952   3.235   3.346 -0.1134 -0.1610  0.1574
 8832TIP3    H126460   2.882   3.187   3.390  0.1022  0.1145  0.8172
 8832TIP3    H226461   3.032   3.189   3.372 -0.0235 -0.2757 -0.3250
 8833TIP3   OH226462   2.312   3.420   0.439  0.8268 -0.4791 -0.1505
 8833TIP3    H126463   2.371   3.399   0.366 -0.4930 -0.1142 -1.3571
 8833TIP3    H226464   2.240   3.357   0.430 -0.7551  1.3649 -0.8882
 8834TIP3   OH226465   0.432   5.526   3.171  0.0867 -0.0291 -0.1862
 8834TIP3    H126466   0.423   5.484   3.086  1.8170 -1.1012  0.1270
 8834TIP3    H226467   0.480   5.463   3.225  0.6616  1.3795  1.0274
 8835TIP3   OH226468   5.921   5.792   2.087 -0.1413  0.2453  0.6146
 8835TIP3    H126469   5.891   5.882   2.074 -0.3796 -0.1459 -2.0618
 8835TIP3    H226470   5.851   5.738   2.051  1.2767 -0.8815 -0.5822
 8836TIP3   OH226471   5.749   4.782   0.004  0.3163  0.1599 -0.0541
 8836TIP3    H126472   5.704   4.709   0.046  1.0360  0.4080  1.1813
 8836TIP3    H226473   5.683   4.851  -0.003  0.6499  0.8097  2.4708
 8837TIP3   OH226474   1.883   2.781   0.676  0.4219  0.2694  0.2098
 8837TIP3    H126475   1.823   2.723   0.629 -0.7084  0.8352  0.9247
 8837TIP3    H226476   1.827   2.842   0.723  1.5887  2.1356 -0.6965
 8838TIP3   OH226477   2.305   2.074   5.785 -0.3729  0.1579  0.9188
 8838TIP3    H126478   2.286   2.099   5.694 -0.5164  0.1326  0.9413
 8838TIP3    H226479   2.398   2.094   5.796  0.1429 -1.6477  0.1829
 8839TIP3   OH226480   5.798   1.072   0.862 -0.0418  0.6693 -0.0221
 8839TIP3    H126481   5.772   1.143   0.803  0.5468  1.6044  0.8217
 8839TIP3    H226482   5.875   1.034   0.819  0.2221  1.1687 -0.0002
 8840TIP3   OH226483   0.686   3.956   1.577  0.6750 -0.0212 -0.4723
 8840TIP3    H126484   0.594   3.946   1.552 -0.0815  3.9087  0.0794
 8840TIP3    H226485   0.735   3.948   1.495 -0.3236 -0.4351 -1.0469
 8841TIP3   OH226486   2.669   1.824   1.170  0.0939  0.0558  0.5291
 8841TIP3    H126487   2.720   1.744   1.173 -1.2458 -0.8047  1.6514
 8841TIP3    H226488   2.592   1.806   1.224 -2.2113  0.6867 -2.2471
 8842TIP3   OH226489   5.840   2.663   2.465 -0.4952  0.4267 -0.1521
 8842TIP3    H126490   5.934   2.653   2.479 -0.0787  2.2217 -1.3129
 8842TIP3    H226491   5.827   2.640   2.373 -0.8314  2.1354 -0.5526
 8843TIP3   OH226492   0.291   2.587   1.867 -0.2113 -0.0787 -0.6643
 8843TIP3    H126493   0.235   2.657   1.901  0.3350  0.1194 -0.1494
 8843TIP3    H226494   0.325   2.621   1.784 -0.8340 -0.1925 -0.9682
 8844TIP3   OH226495   4.044   5.802   5.116  0.3500 -0.1662  0.1150
 8844TIP3    H126496   4.074   5.892   5.098  0.1109 -0.1499 -0.2067
 8844TIP3    H226497   3.952   5.802   5.091  0.5131 -0.6807 -0.5066
 8845TIP3   OH226498   1.487   5.758   3.080 -0.2711  0.0809 -0.0098
 8845TIP3    H126499   1.413   5.726   3.029 -0.4291 -0.8441  0.7623
 8845TIP3    H226500   1.482   5.853   3.073 -0.9686 -0.0035 -0.7508
 8846TIP3   OH226501   3.722   4.791   0.292 -0.4919  0.1963  0.6439
 8846TIP3    H126502   3.685   4.703   0.287  2.3495 -1.0445 -0.2345
 8846TIP3    H226503   3.752   4.809   0.203  0.7705  1.2108  1.2520
 8847TIP3   OH226504   2.752   5.134   0.583  0.3893  0.0182  0.3244
 8847TIP3    H126505   2.749   5.198   0.654  0.4348  0.0707  0.2796
 8847TIP3    H226506   2.835   5.152   0.538  0.7050 -0.4879  0.6921
 8848TIP3   OH226507   4.284   2.868   2.627  0.2162 -0.5334 -0.1540
 8848TIP3    H126508   4.274   2.943   2.568  0.0484 -0.3726  0.0739
 8848TIP3    H226509   4.268   2.791   2.572 -1.0986 -0.3397 -0.0683
 8849TIP3   OH226510   1.198   3.238   2.961  0.0731  0.0151  0.4279
 8849TIP3    H126511   1.173   3.182   2.887  0.8623  0.4793 -0.2025
 8849TIP3    H226512   1.145   3.317   2.950 -0.3052 -0.1893  0.7506
 8850TIP3   OH226513   4.290   1.789   1.812 -0.1367  0.2297 -0.5226
 8850TIP3    H126514   4.227   1.860   1.819 -0.3945 -0.0199 -0.3261
 8850TIP3    H226515   4.250   1.727   1.751 -0.1420  0.0096 -0.2979
 8851TIP3   OH226516   6.589   0.302   1.867  0.3119 -0.9166  0.3888
 8851TIP3    H126517   6.535   0.290   1.946 -0.7068  1.2868  0.1146
 8851TIP3    H226518   6.679   0.291   1.897 -0.1468 -2.0188  1.4374
 8852TIP3   OH226519   3.852   3.501   4.863 -0.0786 -0.3294 -0.3504
 8852TIP3    H126520   3.793   3.566   4.825 -0.1952 -0.3887 -0.2710
 8852TIP3    H226521   3.829   3.419   4.819 -2.4512 -1.1183  2.0791
 8853TIP3   OH226522   4.813   4.000   1.725  0.4349 -0.0744 -0.6363
 8853TIP3    H126523   4.838   3.934   1.660  0.1003 -0.5074 -0.3253
 8853TIP3    H226524   4.717   4.005   1.718  0.4234  0.0753 -0.3634
 8854TIP3   OH226525   2.754   3.100   5.591 -0.2619  0.2161 -0.3932
 8854TIP3    H126526   2.693   3.145   5.533 -0.6748 -1.3230 -1.2148
 8854TIP3    H226527   2.703   3.028   5.629  0.2652  0.6303  1.1655
 8855TIP3   OH226528   5.187   3.801   1.802  0.0524  0.4088 -0.1204
 8855TIP3    H126529   5.197   3.714   1.840 -1.0214 -0.2342 -1.2316
 8855TIP3    H226530   5.232   3.797   1.718  0.5767  1.1510  0.1132
 8856TIP3   OH226531   3.863   2.888   0.560 -0.1127 -0.4924 -0.0464
 8856TIP3    H126532   3.885   2.980   0.576 -0.3944 -0.6202  1.2455
 8856TIP3    H226533   3.869   2.847   0.647 -0.0530 -1.6840 -0.5895
 8857TIP3   OH226534   6.567   0.828   3.933  0.4274  0.1101 -0.2000
 8857TIP3    H126535   6.624   0.905   3.936 -0.8320  1.0374  1.1423
 8857TIP3    H226536   6.493   0.855   3.878 -0.2011  0.0027  0.5806
 8858TIP3   OH226537   1.938   1.031   3.827 -0.3951  0.5343  0.6108
 8858TIP3    H126538   2.033   1.033   3.816 -0.1559 -2.5026  1.3564
 8858TIP3    H226539   1.925   0.989   3.912 -2.2709 -5.6634 -2.1620
 8859TIP3   OH226540   0.399   2.528   5.307  0.1927 -0.2443  0.1590
 8859TIP3    H126541   0.376   2.479   5.228  0.1917 -1.8912  1.1431
 8859TIP3    H226542   0.323   2.583   5.324 -0.5173 -1.1538 -0.0257
 8860TIP3   OH226543   1.911   1.641   1.078 -0.5449 -0.1605  0.0009
 8860TIP3    H126544   1.900   1.557   1.033 -0.9153  0.2962 -0.7916
 8860TIP3    H226545   1.826   1.685   1.067 -0.7412 -0.1462  1.3985
 8861TIP3   OH226546   3.368   1.621   1.425 -0.8355 -0.0959  0.5092
 8861TIP3    H126547   3.341   1.696   1.373 -2.3730 -0.5749  0.5738
 8861TIP3    H226548   3.287   1.585   1.459 -0.0077 -0.9124  1.7059
 8862TIP3   OH226549   0.299   4.205   3.569  0.5723 -0.1385 -0.0618
 8862TIP3    H126550   0.226   4.163   3.613  0.3144  0.7405  0.3698
 8862TIP3    H226551   0.334   4.266   3.633  1.2976 -0.1027 -0.4811
 8863TIP3   OH226552   0.531   1.634   0.729 -0.5329 -0.0126  0.2132
 8863TIP3    H126553   0.588   1.686   0.785 -0.0017 -0.1702 -0.1671
 8863TIP3    H226554   0.448   1.629   0.776 -0.7589  1.5809  0.0441
 8864TIP3   OH226555   4.414   0.025   4.551 -0.0248  0.2456 -0.5064
 8864TIP3    H126556   4.334   0.061   4.590  1.1702  0.9044  1.4809
 8864TIP3    H226557   4.415   0.059   4.462 -0.8208  2.1263  0.1544
 8865TIP3   OH226558   6.721   5.852   1.822  0.6642  0.0539  0.4052
 8865TIP3    H126559   6.630   5.871   1.845  0.3125 -1.3111  0.2112
 8865TIP3    H226560   6.753   5.934   1.785 -0.6777  0.3762 -0.1116
 8866TIP3   OH226561   6.578   5.741   0.633  0.1634 -0.0187  0.2492
 8866TIP3    H126562   6.666   5.771   0.657  0.9949 -1.9720 -0.1195
 8866TIP3    H226563   6.584   5.646   0.637 -1.2142 -0.2916 -2.1784
 8867TIP3   OH226564   3.269   6.134   5.392 -0.4883 -0.8776  0.2654
 8867TIP3    H126565   3.276   6.040   5.375  0.9447 -0.6579 -0.4523
 8867TIP3    H226566   3.313   6.175   5.318 -0.1972  0.3309  1.0860
 8868TIP3   OH226567   4.834   4.699   1.293 -0.2506 -0.7163 -0.0033
 8868TIP3    H126568   4.822   4.736   1.381  0.8582 -0.0676 -0.1036
 8868TIP3    H226569   4.887   4.621   1.307  1.5497  0.3921 -0.2255
 8869TIP3   OH226570   5.120   5.021   4.148 -0.0326  0.1569 -0.0474
 8869TIP3    H126571   5.152   5.074   4.221  0.9456  0.0067 -0.3453
 8869TIP3    H226572   5.097   4.937   4.187  0.2982  0.1431  0.1205
 8870TIP3   OH226573   5.951   6.122   0.961 -0.7432 -0.0504 -0.3531
 8870TIP3    H126574   5.921   6.181   0.891 -0.0064 -0.6179 -1.1761
 8870TIP3    H226575   6.025   6.075   0.922 -1.5789 -1.8425  0.1269
 8871TIP3   OH226576   6.594   3.100   2.267 -0.0763 -0.3987  0.8385
 8871TIP3    H126577   6.536   3.027   2.287  1.5100 -2.3910 -1.3200
 8871TIP3    H226578   6.682   3.064   2.277  0.7615  1.0517 -0.7759
 8872TIP3   OH226579   1.154   6.123   4.657  0.0825 -0.0870 -0.1228
 8872TIP3    H126580   1.131   6.081   4.574  1.4176 -0.2717 -0.4252
 8872TIP3    H226581   1.249   6.124   4.658  0.0898  1.9039  0.4261
 8873TIP3   OH226582   1.498   4.891   0.765  0.2902 -0.2402 -0.1466
 8873TIP3    H126583   1.500   4.978   0.806 -0.3984  0.6044 -1.7902
 8873TIP3    H226584   1.588   4.875   0.738  0.3335  0.1971 -0.2694
 8874TIP3   OH226585   1.301   1.447   2.999 -0.8620  0.4414 -0.7047
 8874TIP3    H126586   1.296   1.357   2.967 -1.0845  0.2587 -0.1790
 8874TIP3    H226587   1.212   1.482   2.986 -1.3255 -0.0528  0.8563
 8875TIP3   OH226588   0.879   6.682   1.841 -0.2172  0.4159  0.3810
 8875TIP3    H126589   0.803   6.658   1.788  0.8068 -2.1937 -0.0027
 8875TIP3    H226590   0.841   6.708   1.925 -1.5884 -0.1628 -0.0281
 8876TIP3   OH226591   5.991   2.884   4.149 -0.2319  0.5044  0.1057
 8876TIP3    H126592   6.043   2.941   4.206 -1.3560  2.3283 -0.6029
 8876TIP3    H226593   5.901   2.909   4.166 -0.6402  0.6331 -1.9819
 8877TIP3   OH226594   5.856   1.280   4.854 -0.3880  0.8617  0.7398
 8877TIP3    H126595   5.825   1.241   4.772  0.7963 -0.4025  0.8657
 8877TIP3    H226596   5.943   1.242   4.868  0.0588  2.1986  1.8220
 8878TIP3   OH226597   3.548   5.945   0.932 -0.1193  0.0202 -0.5003
 8878TIP3    H126598   3.639   5.974   0.924  0.2775 -1.2279 -0.8455
 8878TIP3    H226599   3.543   5.868   0.875 -1.1456 -0.4841  0.2424
 8879TIP3   OH226600   4.758   1.683   5.657 -0.3361  0.8736 -0.0739
 8879TIP3    H126601   4.827   1.636   5.704  1.2409  2.0112 -1.1506
 8879TIP3    H226602   4.803   1.725   5.584 -2.0699  2.1976 -0.4475
 8880TIP3   OH226603   3.441   2.984   1.576  0.2063 -0.2851  0.1204
 8880TIP3    H126604   3.499   3.044   1.529  0.8749 -1.7936 -1.0538
 8880TIP3    H226605   3.499   2.920   1.616 -0.4574  0.1503  1.9054
 8881TIP3   OH226606   6.782   0.998   1.882 -0.0712  0.3995  0.4907
 8881TIP3    H126607   6.801   0.934   1.950 -1.3584 -0.6359 -0.0778
 8881TIP3    H226608   6.761   1.079   1.929  0.1787  0.0093  1.2755
 8882TIP3   OH226609   2.952   5.654   0.064 -0.1262  0.7605  0.1945
 8882TIP3    H126610   2.955   5.641   0.159  2.1511 -1.3101 -0.0582
 8882TIP3    H226611   2.912   5.740   0.053  0.0582  1.3144  3.0578
 8883TIP3   OH226612   3.564   0.671   1.673 -0.0042 -0.5702 -0.2717
 8883TIP3    H126613   3.511   0.711   1.743  0.8585  0.8504 -0.3882
 8883TIP3    H226614   3.523   0.586   1.658 -0.6975 -0.5818  1.4087
 8884TIP3   OH226615   3.921   1.407   5.324  0.6392  0.2950  0.5684
 8884TIP3    H126616   3.990   1.403   5.390  0.1008 -0.5071  1.0907
 8884TIP3    H226617   3.951   1.347   5.255 -0.3115 -1.4152  1.5722
 8885TIP3   OH226618   5.221   6.307   3.292  0.4012  0.1206 -0.0164
 8885TIP3    H126619   5.196   6.238   3.353 -1.0486  0.0178 -0.6998
 8885TIP3    H226620   5.256   6.260   3.216 -0.0336  0.1589 -0.2410
 8886TIP3   OH226621   2.025   5.523   5.633 -0.0925 -0.3026 -0.2062
 8886TIP3    H126622   1.996   5.533   5.542 -0.1439 -2.2550 -0.4506
 8886TIP3    H226623   1.944   5.525   5.684 -0.0824  0.5705 -0.2066
 8887TIP3   OH226624   0.735   4.693   1.496  0.2051 -0.2914 -0.6752
 8887TIP3    H126625   0.718   4.752   1.423  1.0998 -0.9640 -1.4662
 8887TIP3    H226626   0.778   4.748   1.562  0.8212  0.0023 -1.3065
 8888TIP3   OH226627   1.269   3.902   5.162 -0.2513 -0.2962  0.2216
 8888TIP3    H126628   1.321   3.861   5.092 -0.5046 -1.2968  0.6068
 8888TIP3    H226629   1.180   3.870   5.149 -0.3104 -0.4578  0.9774
 8889TIP3   OH226630   4.206   1.904   5.715 -0.2344  0.2151  0.0790
 8889TIP3    H126631   4.268   1.883   5.786  0.0010 -1.0513 -0.4729
 8889TIP3    H226632   4.249   1.974   5.666 -0.3816  1.0832  1.1486
 8890TIP3   OH226633   3.703   4.419   5.795  0.1634  0.4038  0.2091
 8890TIP3    H126634   3.676   4.331   5.767  1.1569 -0.2061  1.0850
 8890TIP3    H226635   3.670   4.426   5.885 -1.5267  1.6812 -0.4449
 8891TIP3   OH226636   4.109   2.328   4.812 -0.4615 -0.2328  0.0082
 8891TIP3    H126637   4.149   2.286   4.889 -1.5328  0.1783  0.8215
 8891TIP3    H226638   4.027   2.280   4.799  0.2117 -1.0293 -1.5989
 8892TIP3   OH226639   7.174   0.051   0.243 -0.0229  0.2863 -0.1127
 8892TIP3    H126640   7.099   0.004   0.280  0.1062 -0.2061 -0.4862
 8892TIP3    H226641   7.247   0.029   0.301  0.4697 -1.5021 -1.3622
 8893TIP3   OH226642   2.866   3.642   5.722  0.4720  0.0757 -0.5571
 8893TIP3    H126643   2.956   3.673   5.735  0.9476 -1.4876  0.0771
 8893TIP3    H226644   2.873   3.571   5.659  0.0600 -1.6220  1.2047
 8894TIP3   OH226645   5.356   0.697   4.068  0.8113 -0.2704 -0.5683
 8894TIP3    H126646   5.419   0.692   4.140  0.6697  1.5903 -0.2470
 8894TIP3    H226647   5.407   0.680   3.990  1.8856  1.6682 -0.3566
 8895TIP3   OH226648   6.132   3.143   0.409 -0.0925  0.1020  0.3455
 8895TIP3    H126649   6.104   3.068   0.462 -2.3513 -2.0481 -3.3406
 8895TIP3    H226650   6.061   3.206   0.417 -0.2197 -0.0275  0.2481
 8896TIP3   OH226651   2.579   5.549   1.636 -0.5412  0.0285 -0.1656
 8896TIP3    H126652   2.587   5.632   1.684  1.9142 -0.7212  0.8950
 8896TIP3    H226653   2.506   5.504   1.677  0.8430 -0.1470  2.2592
 8897TIP3   OH226654   6.145   5.288   1.415  0.0096 -0.1723 -0.0751
 8897TIP3    H126655   6.053   5.271   1.438 -0.0406  2.0974  1.7920
 8897TIP3    H226656   6.140   5.331   1.330 -0.7564  0.6039  0.3408
 8898TIP3   OH226657   3.087   2.640   0.467  0.1305 -0.4177  0.1854
 8898TIP3    H126658   3.130   2.613   0.386 -0.9705  1.0197 -0.9130
 8898TIP3    H226659   3.037   2.563   0.494 -0.4617 -0.5417 -1.1728
 8899TIP3   OH226660   2.855   6.539   0.398  0.3821  0.0841 -0.3611
 8899TIP3    H126661   2.950   6.533   0.403  0.3368  0.3562  1.3783
 8899TIP3    H226662   2.831   6.599   0.468 -1.1470 -0.7904 -0.0964
 8900TIP3   OH226663   5.327   5.774   4.433  0.2079 -0.4554 -0.6818
 8900TIP3    H126664   5.417   5.777   4.464 -0.0743 -0.5323  0.1688
 8900TIP3    H226665   5.274   5.801   4.508 -0.6067 -2.1531 -0.5745
 8901TIP3   OH226666   2.644   6.634   5.047 -0.1251  0.2344 -0.1766
 8901TIP3    H126667   2.584   6.585   4.991 -0.2092  0.1828 -0.0404
 8901TIP3    H226668   2.731   6.607   5.018 -0.1536  0.8933 -0.9030
 8902TIP3   OH226669   6.884   0.638   4.238 -0.6277  0.0576  0.0092
 8902TIP3    H126670   6.902   0.732   4.239  3.4000 -0.5415 -0.0069
 8902TIP3    H226671   6.901   0.612   4.148 -0.9527 -0.8452  0.1983
 8903TIP3   OH226672   1.439   0.319   0.769 -0.1223  0.8331 -0.0425
 8903TIP3    H126673   1.428   0.348   0.679  0.2216  1.9746  0.2740
 8903TIP3    H226674   1.354   0.281   0.792 -0.9934  2.6611 -0.0937
 8904TIP3   OH226675   2.764   4.577   4.938 -0.4471  0.0263  0.8844
 8904TIP3    H126676   2.810   4.660   4.927  0.6092 -0.3044  2.4179
 8904TIP3    H226677   2.834   4.511   4.940 -1.1316 -0.7123  1.2739
 8905TIP3   OH226678   0.441   6.491   1.258 -0.1585  0.0425 -0.2900
 8905TIP3    H126679   0.390   6.502   1.339  0.4053 -1.5919  0.3311
 8905TIP3    H226680   0.483   6.576   1.244 -0.8662  0.5753  0.7224
 8906TIP3   OH226681   6.482   4.206   4.826  0.0511 -0.7064  0.4830
 8906TIP3    H126682   6.494   4.300   4.844  1.7702 -1.0069  1.1369
 8906TIP3    H226683   6.392   4.188   4.854  0.3126  0.3714  2.1989
 8907TIP3   OH226684   2.677   3.548   2.586  0.0736  0.1636  0.3960
 8907TIP3    H126685   2.664   3.591   2.671  3.2168 -0.4177  1.3090
 8907TIP3    H226686   2.601   3.574   2.534 -0.1986  3.4677  2.1849
 8908TIP3   OH226687   6.611   0.425   3.784 -0.3754  0.2119 -0.0518
 8908TIP3    H126688   6.636   0.517   3.774  0.9858 -0.1999 -0.5608
 8908TIP3    H226689   6.619   0.388   3.696  1.3806 -0.9352  0.5397
 8909TIP3   OH226690   7.200   1.911   0.449 -0.1325  0.0636 -0.4778
 8909TIP3    H126691   7.184   1.934   0.541  1.7121 -2.0540  0.4598
 8909TIP3    H226692   7.219   1.995   0.407 -0.8341  1.0686  1.0959
 8910TIP3   OH226693   6.120   3.020   2.820  0.4503 -0.6873  0.3703
 8910TIP3    H126694   6.084   2.964   2.751  0.2692 -0.5842  0.3792
 8910TIP3    H226695   6.066   3.099   2.816 -1.0746 -1.5540  2.1305
 8911TIP3   OH226696   2.055   4.274   5.151 -0.0879 -0.1347 -0.6922
 8911TIP3    H126697   1.982   4.294   5.093 -0.0571 -0.6564 -0.9122
 8911TIP3    H226698   2.119   4.343   5.134 -1.8533  2.3720  1.9126
 8912TIP3   OH226699   3.642   2.368   3.723  0.5288 -0.6455  0.1121
 8912TIP3    H126700   3.556   2.325   3.716  0.7782 -1.5119  1.7516
 8912TIP3    H226701   3.704   2.296   3.712  1.0408 -0.1093 -0.5155
 8913TIP3   OH226702   1.159   1.786   5.443 -0.5827 -0.2436  0.5931
 8913TIP3    H126703   1.167   1.821   5.531  0.0710  0.1447  0.3928
 8913TIP3    H226704   1.074   1.817   5.411  0.4093  2.1451  0.0258
 8914TIP3   OH226705   4.179   0.807   4.022 -0.2728  0.9259 -0.8743
 8914TIP3    H126706   4.222   0.781   4.104 -0.1037 -2.0843 -1.8214
 8914TIP3    H226707   4.184   0.903   4.022  2.4476  0.8923  1.1684
 8915TIP3   OH226708   3.963   6.770   0.948  0.3788 -0.4842 -0.2114
 8915TIP3    H126709   3.935   6.764   0.856  0.6294  4.1185 -0.8133
 8915TIP3    H226710   3.885   6.802   0.994  0.6613 -1.4345  0.9628
 8916TIP3   OH226711   6.961   4.633   1.049 -0.5457  0.0861  0.4090
 8916TIP3    H126712   6.961   4.562   0.984 -0.2510  1.7949 -1.5738
 8916TIP3    H226713   7.011   4.597   1.123  0.6825 -1.3525 -1.0321
 8917TIP3   OH226714   3.802   3.424   2.875  0.1195 -0.0153  0.1420
 8917TIP3    H126715   3.865   3.368   2.919  0.0522  0.9273  1.4958
 8917TIP3    H226716   3.795   3.502   2.931 -0.1188  1.1540 -1.4370
 8918TIP3   OH226717   3.172   6.036   2.668 -0.0613  0.6429  0.2279
 8918TIP3    H126718   3.243   5.988   2.710 -0.7864 -0.0128  0.7370
 8918TIP3    H226719   3.169   6.002   2.579  0.5489  0.9964  0.0689
 8919TIP3   OH226720   6.915   1.654   4.172  0.1792 -0.3825  0.2431
 8919TIP3    H126721   6.855   1.727   4.181  1.3868  0.8160 -1.0591
 8919TIP3    H226722   6.862   1.577   4.193 -1.3829  0.7476  0.6303
 8920TIP3   OH226723   6.798   2.919   2.819 -0.0684 -0.5784 -0.0198
 8920TIP3    H126724   6.765   2.838   2.780 -1.0682  0.1988 -0.8420
 8920TIP3    H226725   6.720   2.974   2.828  0.7494  0.6828 -0.4341
 8921TIP3   OH226726   6.661   4.174   0.633  0.1280  0.0215  0.3221
 8921TIP3    H126727   6.740   4.181   0.579  1.0546 -1.8677  1.3318
 8921TIP3    H226728   6.611   4.103   0.593 -0.5319  0.4743  0.3347
 8922TIP3   OH226729   0.098   4.335   1.085 -0.0635  0.1224 -0.6847
 8922TIP3    H126730   0.119   4.298   0.999  1.9921 -0.1034 -0.1506
 8922TIP3    H226731   0.177   4.383   1.110 -1.0830  1.2452  0.5468
 8923TIP3   OH226732   6.913   5.933   1.131 -0.3321  0.3088 -0.2787
 8923TIP3    H126733   6.958   5.959   1.211 -1.6698 -1.0851  0.9749
 8923TIP3    H226734   6.970   5.965   1.061  1.5076  0.4780  1.2067
 8924TIP3   OH226735   2.470   2.733   4.187  0.4735  0.4792 -0.0988
 8924TIP3    H126736   2.505   2.753   4.274  1.7606  0.5632 -0.6077
 8924TIP3    H226737   2.450   2.819   4.150 -0.0695  0.4437  0.1110
 8925TIP3   OH226738   6.737   5.972   3.662 -0.2858 -0.3194  0.2547
 8925TIP3    H126739   6.700   5.893   3.700 -0.2313 -0.6558 -0.3889
 8925TIP3    H226740   6.827   5.975   3.695 -0.1691 -0.7266 -0.0258
 8926TIP3   OH226741   2.325   5.207   2.187 -0.4857  0.2775 -0.4072
 8926TIP3    H126742   2.362   5.202   2.099 -0.9145 -1.2001 -0.5439
 8926TIP3    H226743   2.400   5.218   2.245 -0.3166  2.8249 -1.0301
 8927TIP3   OH226744   2.652   2.916   2.878  0.0477  0.5585 -0.1105
 8927TIP3    H126745   2.690   2.836   2.841 -2.1856 -0.9097  0.5591
 8927TIP3    H226746   2.628   2.892   2.968 -1.2937  1.7470 -0.1112
 8928TIP3   OH226747   3.152   4.882   0.043  0.6212  0.4261 -0.1413
 8928TIP3    H126748   3.170   4.798  -0.000  0.7019  0.0086  0.6881
 8928TIP3    H226749   3.127   4.940  -0.029 -0.4199 -0.5733 -0.6295
 8929TIP3   OH226750   3.992   4.840   1.397 -0.6461  0.6540  0.1101
 8929TIP3    H126751   4.000   4.758   1.446 -0.3017  0.2151 -0.6673
 8929TIP3    H226752   3.914   4.828   1.343 -0.4453  0.7334 -0.1986
 8930TIP3   OH226753   2.335   2.981   4.523  0.7379  0.0579 -0.2964
 8930TIP3    H126754   2.282   2.921   4.471  0.5622  0.2826 -0.3817
 8930TIP3    H226755   2.276   3.011   4.593  0.2378  1.5249 -1.2963
 8931TIP3   OH226756   6.080   3.017   1.645 -0.0133 -0.2574  0.5696
 8931TIP3    H126757   6.058   2.928   1.673  0.0376 -0.0762  1.2059
 8931TIP3    H226758   5.997   3.054   1.615  0.0870 -0.7419 -0.3620
 8932TIP3   OH226759   2.286   5.211   5.249  0.2851 -0.4374 -0.1137
 8932TIP3    H126760   2.375   5.237   5.271 -0.3385  0.8725  1.0438
 8932TIP3    H226761   2.258   5.157   5.323  0.0458 -0.6442 -0.3543
 8933TIP3   OH226762   0.419   4.282   1.700 -0.2492  0.8945  0.1991
 8933TIP3    H126763   0.371   4.218   1.752  1.1726 -0.7384 -0.4173
 8933TIP3    H226764   0.511   4.268   1.724  0.1620  2.2773 -0.4501
 8934TIP3   OH226765   1.319   6.437   4.869 -0.4469  0.2873  0.0616
 8934TIP3    H126766   1.307   6.490   4.790  0.9629  0.4506 -0.0666
 8934TIP3    H226767   1.292   6.349   4.842  0.1368  0.3129 -0.6492
 8935TIP3   OH226768   2.530   2.682   0.915 -0.0915 -0.5451  0.3412
 8935TIP3    H126769   2.514   2.711   0.825  0.0469 -2.7910 -0.4659
 8935TIP3    H226770   2.623   2.660   0.917 -0.4454 -2.1382  0.4963
 8936TIP3   OH226771   4.979   4.064   3.250 -0.1301 -0.5224 -0.6159
 8936TIP3    H126772   4.936   4.115   3.318 -0.9747  1.7262 -2.6961
 8936TIP3    H226773   5.072   4.070   3.269 -0.3417  0.2848  0.1855
 8937TIP3   OH226774   1.689   2.431   4.915  0.2369  0.5216  0.4336
 8937TIP3    H126775   1.685   2.522   4.946  0.6429 -0.0863  2.4130
 8937TIP3    H226776   1.698   2.379   4.995  2.4417 -1.1184 -0.7915
 8938TIP3   OH226777   6.199   1.397   2.520  0.2229 -0.1252  0.0103
 8938TIP3    H126778   6.148   1.474   2.541  0.6788  0.5648 -1.2801
 8938TIP3    H226779   6.134   1.331   2.496 -0.1551 -0.0720  0.8511
 8939TIP3   OH226780   0.500   2.082   4.523  0.1689 -0.2176  0.8277
 8939TIP3    H126781   0.496   2.134   4.443  0.5289 -0.0138  0.9432
 8939TIP3    H226782   0.554   2.007   4.500  1.2615  0.4337  1.2140
 8940TIP3   OH226783   4.023   4.257   4.940 -0.0713 -0.2298 -0.2185
 8940TIP3    H126784   3.962   4.325   4.969  0.1541 -0.2209  0.2419
 8940TIP3    H226785   3.967   4.193   4.896 -0.2627  0.3365 -0.8148
 8941TIP3   OH226786   3.871   0.698   3.584 -0.0335 -0.6688  0.1582
 8941TIP3    H126787   3.864   0.691   3.679  0.3277  1.2696  0.3604
 8941TIP3    H226788   3.900   0.788   3.568 -3.6128  0.3055 -1.9292
 8942TIP3   OH226789   7.038   0.366   1.340  0.5273 -0.0992  0.6010
 8942TIP3    H126790   6.954   0.384   1.297  0.5261 -0.7449  0.3187
 8942TIP3    H226791   7.101   0.419   1.291  0.5237 -0.8150 -0.2041
 8943TIP3   OH226792   6.029   0.806   1.031  0.1459  0.3248 -0.2219
 8943TIP3    H126793   6.082   0.726   1.039  0.0943  0.4013  1.1599
 8943TIP3    H226794   6.094   0.875   1.015  0.2311  0.0755 -0.9797
 8944TIP3   OH226795   3.263   6.274   1.733 -0.0763 -0.0688 -0.1172
 8944TIP3    H126796   3.220   6.360   1.732 -0.0965 -0.0723 -1.6901
 8944TIP3    H226797   3.292   6.263   1.824 -0.2541  1.5062  0.1631
 8945TIP3   OH226798   0.033   2.652   0.107  0.1434  0.8771  0.1475
 8945TIP3    H126799  -0.055   2.681   0.085  0.1765  0.3616 -0.7235
 8945TIP3    H226800   0.075   2.728   0.148 -0.0994  1.7213 -1.1321
 8946TIP3   OH226801   0.267   4.164   0.415 -0.1069  0.3048 -0.9945
 8946TIP3    H126802   0.319   4.184   0.337 -1.5102  0.2703 -1.9861
 8946TIP3    H226803   0.183   4.207   0.399 -1.5476 -2.3016 -0.9931
 8947TIP3   OH226804   6.517   3.925   4.775  0.3993 -0.7382  0.3715
 8947TIP3    H126805   6.594   3.874   4.800  1.1508  0.6890  1.1201
 8947TIP3    H226806   6.520   4.001   4.832 -1.5896 -0.6425  0.4066
 8948TIP3   OH226807   3.479   0.109   1.703  0.6087  0.5373 -0.2428
 8948TIP3    H126808   3.432   0.043   1.652  2.1211 -0.8560  0.0786
 8948TIP3    H226809   3.411   0.152   1.755 -0.5871  0.1515 -1.4271
 8949TIP3   OH226810   0.424   6.431   3.827  0.0976 -0.3210  0.2976
 8949TIP3    H126811   0.403   6.385   3.746 -1.4505 -0.4528  0.7472
 8949TIP3    H226812   0.467   6.364   3.882  0.6730 -0.3678 -0.2006
 8950TIP3   OH226813   4.429   3.185   0.692 -0.0558  0.0680 -0.3822
 8950TIP3    H126814   4.365   3.222   0.752  1.6338  0.3693  1.3310
 8950TIP3    H226815   4.419   3.090   0.701  0.1255  0.1131  0.3271
 8951TIP3   OH226816   7.169   0.939   0.045  0.0280  0.0250 -1.0116
 8951TIP3    H126817   7.142   1.030   0.040 -1.3697 -0.2084  1.0403
 8951TIP3    H226818   7.120   0.895  -0.026 -1.0257  0.5018 -0.5980
 8952TIP3   OH226819   0.833   0.653   1.135 -0.2825  0.0591  0.2472
 8952TIP3    H126820   0.900   0.712   1.168 -1.2906  1.9551 -0.9006
 8952TIP3    H226821   0.776   0.709   1.082 -0.0808 -2.3250 -2.7326
 8953TIP3   OH226822   0.063   0.481   1.187  0.0966 -0.3937  0.6509
 8953TIP3    H126823   0.102   0.410   1.136 -0.0869 -1.1959  1.6051
 8953TIP3    H226824   0.138   0.533   1.216  0.1188  1.0738 -1.8132
 8954TIP3   OH226825   6.683   6.091   5.740 -0.6006  0.1431 -0.3191
 8954TIP3    H126826   6.646   6.030   5.676 -1.6832  1.2785 -0.8267
 8954TIP3    H226827   6.626   6.082   5.816 -0.6689  0.4017 -0.3394
 8955TIP3   OH226828   3.405   1.714   3.069 -0.0684 -0.3991  0.6066
 8955TIP3    H126829   3.369   1.676   3.149 -0.9568  2.1472  1.5172
 8955TIP3    H226830   3.470   1.777   3.100 -0.6994  0.9147 -0.6088
 8956TIP3   OH226831   5.924   0.707   2.744 -0.2648 -0.1024 -0.1960
 8956TIP3    H126832   5.927   0.685   2.651 -1.6090  0.4666 -0.3949
 8956TIP3    H226833   5.898   0.626   2.788 -0.9605 -0.0288 -0.4665
 8957TIP3   OH226834   1.846   5.635   1.677 -0.6475  0.0489 -0.5901
 8957TIP3    H126835   1.863   5.624   1.770 -0.3537 -0.6654 -0.7163
 8957TIP3    H226836   1.754   5.661   1.672 -0.7006 -0.0373 -0.1101
 8958TIP3   OH226837   4.307   5.804   1.078  0.5099 -0.8244 -0.5619
 8958TIP3    H126838   4.347   5.890   1.065 -0.5166 -0.4257 -1.1954
 8958TIP3    H226839   4.282   5.803   1.171 -0.8985  0.2218 -0.8926
 8959TIP3   OH226840   4.270   1.189   3.118 -0.0136  0.1963 -0.3982
 8959TIP3    H126841   4.335   1.226   3.178 -1.0754  2.2342 -0.4265
 8959TIP3    H226842   4.188   1.191   3.167 -0.7610  1.2164 -1.6202
 8960TIP3   OH226843   6.876   1.670   5.342  0.1702  0.0953 -0.4086
 8960TIP3    H126844   6.821   1.748   5.334  2.4720  2.1602  1.8925
 8960TIP3    H226845   6.964   1.700   5.317  1.4617 -1.2347  2.0749
 8961TIP3   OH226846   2.529   6.205   2.157  0.1608  0.1071  0.3284
 8961TIP3    H126847   2.585   6.280   2.179  1.0764 -1.0748  2.2325
 8961TIP3    H226848   2.562   6.175   2.072  0.9468  0.7681  0.3894
 8962TIP3   OH226849   4.881   3.802   2.420  0.6267 -0.5057 -0.2250
 8962TIP3    H126850   4.880   3.707   2.407 -0.2178 -0.4498 -0.5688
 8962TIP3    H226851   4.794   3.823   2.454  1.1499  0.0129  0.8507
 8963TIP3   OH226852   4.731   3.638   1.728  0.0452  0.2112 -0.0343
 8963TIP3    H126853   4.768   3.712   1.776 -2.9707  1.2560  0.9146
 8963TIP3    H226854   4.764   3.561   1.774  0.5078  1.0775  1.1399
 8964TIP3   OH226855   5.837   2.333   1.093  0.0138  0.1815 -0.2853
 8964TIP3    H126856   5.752   2.316   1.135 -0.5023  1.5513 -0.7167
 8964TIP3    H226857   5.884   2.251   1.101 -1.5632 -0.7864 -0.5022
 8965TIP3   OH226858   3.725   3.093   0.141  0.5630  0.4204 -0.3878
 8965TIP3    H126859   3.752   3.097   0.050 -0.5567  0.7496 -0.7183
 8965TIP3    H226860   3.637   3.131   0.142 -0.1910 -1.2374  0.5206
 8966TIP3   OH226861   2.872   3.826   2.183  0.2555  0.5224  0.2122
 8966TIP3    H126862   2.942   3.865   2.235  1.3066 -0.7550 -0.1910
 8966TIP3    H226863   2.893   3.732   2.180 -0.2526  0.4255 -1.7611
 8967TIP3   OH226864   3.657   6.694   2.062  0.4445 -0.5827 -0.1123
 8967TIP3    H126865   3.614   6.776   2.087  0.6431 -1.0325  1.9002
 8967TIP3    H226866   3.750   6.717   2.060  0.3998 -0.4382 -1.0018
 8968TIP3   OH226867   3.039   6.556   5.269 -0.5293 -0.1278 -0.2957
 8968TIP3    H126868   2.999   6.493   5.328 -2.3808  2.2031  1.1507
 8968TIP3    H226869   3.091   6.614   5.326  0.0140  0.4692 -1.3522
 8969TIP3   OH226870   1.350   3.690   3.807  0.5669 -0.3896  0.4770
 8969TIP3    H126871   1.413   3.619   3.820  1.2662  0.5470  2.8548
 8969TIP3    H226872   1.266   3.646   3.797  1.2826 -1.5981 -0.4640
 8970TIP3   OH226873   0.791   0.340   0.221 -0.5007 -0.0582  0.2586
 8970TIP3    H126874   0.852   0.411   0.244 -0.5894  0.1926 -0.2701
 8970TIP3    H226875   0.705   0.383   0.218 -0.4188  0.0415 -1.0922
 8971TIP3   OH226876   4.410   0.171   4.047 -0.1482  0.7083 -0.9196
 8971TIP3    H126877   4.334   0.225   4.027  0.2741  2.5297  1.9145
 8971TIP3    H226878   4.485   0.221   4.014  0.1194  1.0487  0.1829
 8972TIP3   OH226879   5.317   4.682   3.389 -0.3373 -0.7832 -0.2776
 8972TIP3    H126880   5.355   4.621   3.452  0.9444  2.8367  2.8560
 8972TIP3    H226881   5.223   4.680   3.409 -0.0159 -0.0697  1.5652
 8973TIP3   OH226882   5.132   2.064   4.967  0.3159  0.7764 -0.4773
 8973TIP3    H126883   5.134   1.971   4.988 -0.3694  0.8744  0.0807
 8973TIP3    H226884   5.044   2.079   4.933  0.0625  1.4009  0.4017
 8974TIP3   OH226885   5.550   3.820   5.754  0.9715 -0.0818  0.1662
 8974TIP3    H126886   5.470   3.797   5.803  0.0748  2.8925  0.2555
 8974TIP3    H226887   5.538   3.777   5.669 -0.0584 -0.7888  0.6334
 8975TIP3   OH226888   4.589   1.314   5.647 -0.7499  0.1509 -0.1594
 8975TIP3    H126889   4.622   1.378   5.584 -3.0017  0.7279 -0.8381
 8975TIP3    H226890   4.644   1.325   5.724  1.1441  0.4388 -1.4779
 8976TIP3   OH226891   4.797   2.512   5.250  0.5343  0.1995  0.0991
 8976TIP3    H126892   4.815   2.463   5.170 -0.6555 -0.3553  0.1572
 8976TIP3    H226893   4.711   2.482   5.278  0.5804  0.9908  1.1444
 8977TIP3   OH226894   2.423   0.085   2.462 -0.3624 -0.1083 -0.0091
 8977TIP3    H126895   2.444  -0.008   2.450  0.6290  0.2175 -0.9081
 8977TIP3    H226896   2.358   0.104   2.395 -2.3445 -0.6828  1.6512
 8978TIP3   OH226897   3.190   5.966   4.702 -0.1878 -0.0172 -0.1175
 8978TIP3    H126898   3.230   6.051   4.682  0.7739 -0.1113  1.2596
 8978TIP3    H226899   3.139   5.982   4.782 -1.0959 -0.4490 -0.5902
 8979TIP3   OH226900   6.014   4.355   4.683  0.0527  0.4774  0.1534
 8979TIP3    H126901   5.951   4.367   4.754 -0.5439  0.1040 -0.2883
 8979TIP3    H226902   5.980   4.279   4.635  1.4397 -0.4200  0.5275
 8980TIP3   OH226903   1.181   4.278   4.979  0.5404 -0.9023  0.2375
 8980TIP3    H126904   1.193   4.298   5.072  1.8760 -0.7479  0.0407
 8980TIP3    H226905   1.244   4.208   4.961  1.5116  0.2245 -0.9293
 8981TIP3   OH226906   1.900   5.033   5.006 -0.2324  0.3429  0.0633
 8981TIP3    H126907   1.940   5.120   5.001 -1.1724  0.7960  0.3855
 8981TIP3    H226908   1.919   5.002   5.095  0.4409  0.0435 -0.1766
 8982TIP3   OH226909   5.589   6.306   5.256 -0.2309 -0.4311  0.0924
 8982TIP3    H126910   5.553   6.266   5.336 -0.2072 -0.8028 -0.0847
 8982TIP3    H226911   5.648   6.374   5.289 -0.9211  0.0366  0.3904
 8983TIP3   OH226912   4.531   1.774   2.374 -0.2413  0.1340 -0.2339
 8983TIP3    H126913   4.618   1.798   2.405 -0.0216 -0.8915 -0.0084
 8983TIP3    H226914   4.531   1.798   2.282  0.1731  0.4257 -0.1610
 8984TIP3   OH226915   3.378   6.167   2.267  0.2936 -0.6357  0.0507
 8984TIP3    H126916   3.301   6.221   2.282  0.2514 -0.0850 -1.8921
 8984TIP3    H226917   3.452   6.228   2.275  0.3080 -0.4736 -1.1921
 8985TIP3   OH226918   4.716   5.611   1.603 -0.3912  0.3155  0.4311
 8985TIP3    H126919   4.793   5.607   1.660  0.4334  0.7741 -0.6152
 8985TIP3    H226920   4.673   5.526   1.616  0.8010 -0.3345  0.3513
 8986TIP3   OH226921   3.120   5.320   1.788  0.0766  0.5717 -0.1091
 8986TIP3    H126922   3.175   5.393   1.762 -0.2289  0.8652  0.0503
 8986TIP3    H226923   3.152   5.245   1.738 -0.5389  1.1303 -1.3692
 8987TIP3   OH226924   2.094   5.604   0.338  0.4627 -0.1198 -0.0597
 8987TIP3    H126925   2.144   5.528   0.368 -2.2593 -2.1797 -0.2910
 8987TIP3    H226926   2.116   5.613   0.246  1.0237 -0.4505  0.0363
 8988TIP3   OH226927   1.957   5.755   4.816  0.1140  0.0836  0.4158
 8988TIP3    H126928   2.047   5.742   4.786  0.3439  3.3291 -0.6941
 8988TIP3    H226929   1.909   5.777   4.736 -1.4731 -0.6311  1.1458
 8989TIP3   OH226930   0.324   0.856   4.216 -0.2310  0.4196 -0.4461
 8989TIP3    H126931   0.360   0.919   4.153 -0.2905  0.2957 -0.6066
 8989TIP3    H226932   0.242   0.828   4.177 -1.6768  2.3926  0.9797
 8990TIP3   OH226933   5.602   3.189   3.951  0.1797  0.2353  0.1066
 8990TIP3    H126934   5.684   3.187   4.000  0.2072 -1.7239  0.0565
 8990TIP3    H226935   5.591   3.100   3.918 -0.9498  0.9473 -1.6134
 8991TIP3   OH226936   6.580   1.431   5.655 -0.4755 -0.3486 -0.4907
 8991TIP3    H126937   6.639   1.366   5.694  0.8376  0.2198 -1.4415
 8991TIP3    H226938   6.527   1.381   5.593 -0.2736 -0.7094 -0.3783
 8992TIP3   OH226939   2.997   6.224   5.215 -0.0221 -0.0271 -0.3314
 8992TIP3    H126940   3.069   6.211   5.277 -0.2110 -1.1299 -0.3171
 8992TIP3    H226941   2.923   6.253   5.269  0.5119  1.5341 -0.4040
 8993TIP3   OH226942   0.131   3.683   1.307  0.3769  0.2354  0.8810
 8993TIP3    H126943   0.184   3.614   1.267  1.0529  1.0078  0.4187
 8993TIP3    H226944   0.122   3.749   1.238 -3.3267 -0.9519  0.0003
 8994TIP3   OH226945   1.195   5.935   0.921  0.4930  0.0277 -0.2021
 8994TIP3    H126946   1.282   5.973   0.916  0.5703  0.2332  1.8704
 8994TIP3    H226947   1.202   5.851   0.876  2.0204 -0.3657  0.7015
 8995TIP3   OH226948   6.108   0.189   0.678  0.0956 -0.2567  0.2202
 8995TIP3    H126949   6.157   0.268   0.703 -0.7479  0.6964 -1.0406
 8995TIP3    H226950   6.170   0.117   0.693  2.0628  0.9199 -1.6404
 8996TIP3   OH226951   7.061   5.503   4.819 -0.7191 -0.1089 -0.8993
 8996TIP3    H126952   7.017   5.524   4.902  0.8619 -1.9320  0.4870
 8996TIP3    H226953   7.054   5.408   4.812  2.3051 -0.4101 -0.9580
 8997TIP3   OH226954   5.451   0.186   1.175  0.2230  0.1106  0.2885
 8997TIP3    H126955   5.406   0.156   1.096  4.0726 -0.4018 -1.9252
 8997TIP3    H226956   5.480   0.275   1.155 -0.3393  0.7144  1.9404
 8998TIP3   OH226957   6.937   5.308   5.392  0.2229  0.2176  0.0157
 8998TIP3    H126958   6.915   5.278   5.304 -0.9496 -3.5048  1.3380
 8998TIP3    H226959   7.032   5.317   5.392  0.0590  3.2248 -2.2910
 8999TIP3   OH226960   4.601   2.732   1.898 -0.7388 -0.0916 -0.0472
 8999TIP3    H126961   4.551   2.655   1.926 -1.4624  0.6703  0.8297
 8999TIP3    H226962   4.563   2.756   1.813 -0.5901 -0.6255 -0.2652
 9000TIP3   OH226963   2.092   0.971   5.175  0.0207 -0.3870  0.1292
 9000TIP3    H126964   2.140   0.915   5.235 -1.1818 -1.0257  0.5363
 9000TIP3    H226965   2.121   1.059   5.195  0.0173 -0.6392  1.3013
 9001TIP3   OH226966   6.165   0.334   1.211 -0.1466  0.0706 -0.2668
 9001TIP3    H126967   6.202   0.297   1.132  0.6968  0.5531 -0.1024
 9001TIP3    H226968   6.142   0.258   1.265  1.6264 -0.2542  0.0964
 9002TIP3   OH226969   1.369   6.543   3.242  0.2708  0.3675  0.3958
 9002TIP3    H126970   1.348   6.550   3.335  0.0964  1.9986  0.2529
 9002TIP3    H226971   1.414   6.459   3.234  3.0816  1.5355  2.4885
 9003TIP3   OH226972   1.368   6.715   2.171  0.4922  0.4212 -0.0030
 9003TIP3    H126973   1.399   6.729   2.260 -0.3800  2.4378  0.0493
 9003TIP3    H226974   1.418   6.778   2.118  0.2806 -0.0410 -0.7666
 9004TIP3   OH226975   1.477   2.795   5.725 -0.4896 -0.5787 -1.0973
 9004TIP3    H126976   1.383   2.795   5.711 -0.7805 -0.2889  0.6334
 9004TIP3    H226977   1.494   2.716   5.775  0.1393 -0.4723 -1.1350
 9005TIP3   OH226978   4.025   2.460   3.021 -0.2514  0.1596  0.5987
 9005TIP3    H126979   4.040   2.374   3.060 -1.3414  0.1293  0.9522
 9005TIP3    H226980   4.014   2.519   3.095 -1.7061  0.2080  0.3662
 9006TIP3   OH226981   5.939   4.507   5.497  0.4570  0.1319  0.1958
 9006TIP3    H126982   5.986   4.520   5.415  0.0818 -1.2716 -0.2547
 9006TIP3    H226983   6.005   4.522   5.565  0.7881  1.2165 -0.3418
 9007TIP3   OH226984   4.516   0.799   4.731  0.7825 -0.0553 -0.3123
 9007TIP3    H126985   4.549   0.718   4.772 -0.0312  0.8652  2.3512
 9007TIP3    H226986   4.547   0.869   4.788 -1.6617  1.2143 -0.4148
 9008TIP3   OH226987   6.751   0.618   5.191 -0.0545  0.4457  0.3662
 9008TIP3    H126988   6.742   0.713   5.182 -0.3224  0.2911 -1.3431
 9008TIP3    H226989   6.771   0.605   5.284 -0.2030  2.1477  0.6814
 9009TIP3   OH226990   4.670   1.692   0.793 -0.3809  0.2111  0.0974
 9009TIP3    H126991   4.738   1.712   0.857 -0.7605 -0.1436  0.6148
 9009TIP3    H226992   4.717   1.646   0.723  0.0443  0.6597  0.0781
 9010TIP3   OH226993   4.273   1.783   0.878  0.2699  0.2437 -0.1669
 9010TIP3    H126994   4.181   1.784   0.852 -0.1552 -1.1953  1.1301
 9010TIP3    H226995   4.321   1.804   0.798 -1.1870  1.2846 -0.7973
 9011TIP3   OH226996   4.705   0.467   1.649 -0.3206  0.0590 -0.3415
 9011TIP3    H126997   4.676   0.547   1.694 -0.8985 -0.5865  0.4646
 9011TIP3    H226998   4.649   0.398   1.684 -1.0045 -0.4481 -2.3031
 9012TIP3   OH226999   1.854   1.118   1.405 -0.6736  0.1315  0.1514
 9012TIP3    H127000   1.796   1.173   1.458  0.0267  1.6928 -0.6369
 9012TIP3    H227001   1.825   1.133   1.314  0.0911 -0.1269 -0.1445
 9013TIP3   OH227002   6.597   2.038   3.285  0.0363 -0.0958  0.2093
 9013TIP3    H127003   6.671   2.069   3.232 -0.3906 -0.4401 -0.6182
 9013TIP3    H227004   6.586   2.105   3.352  1.8018 -0.5778  1.0510
 9014TIP3   OH227005   3.877   3.911   0.890  0.1933 -0.7452 -1.0557
 9014TIP3    H127006   3.820   3.865   0.952  1.3439 -1.3234 -0.4067
 9014TIP3    H227007   3.817   3.965   0.839 -1.0875 -2.1139 -1.0954
 9015TIP3   OH227008   2.419   5.284   2.576  0.5529  0.0648  0.3510
 9015TIP3    H127009   2.339   5.289   2.524 -0.8873  0.7275  2.5118
 9015TIP3    H227010   2.460   5.370   2.566 -0.8749  0.9836  2.0036
 9016TIP3   OH227011   5.200   5.107   0.587 -0.3341 -0.2578  0.0304
 9016TIP3    H127012   5.281   5.146   0.556 -0.7012  2.1530  1.7974
 9016TIP3    H227013   5.217   5.013   0.589  1.5786 -0.0094 -1.7936
 9017TIP3   OH227014   3.612   0.388   0.142  0.2109  0.1826 -0.3681
 9017TIP3    H127015   3.519   0.385   0.117  0.0882  1.7370 -0.1586
 9017TIP3    H227016   3.612   0.422   0.231  1.0613  1.8849 -0.9888
 9018TIP3   OH227017   4.667   4.820   1.105 -0.0482 -0.4711  0.4056
 9018TIP3    H127018   4.719   4.762   1.161 -0.3577 -0.9856  0.1673
 9018TIP3    H227019   4.732   4.869   1.055  0.2194 -1.3881 -0.1723
 9019TIP3   OH227020   0.684   1.694   5.760 -0.3272 -0.4272 -0.4094
 9019TIP3    H127021   0.646   1.781   5.769 -1.2630 -0.8978  0.4932
 9019TIP3    H227022   0.727   1.694   5.675  1.8592  1.7338  0.5887
 9020TIP3   OH227023   3.317   4.298   4.896 -0.5540  0.0939 -0.5872
 9020TIP3    H127024   3.253   4.271   4.962 -0.9424 -1.7637 -1.6280
 9020TIP3    H227025   3.266   4.310   4.816  0.2693 -0.6596 -1.2547
 9021TIP3   OH227026   6.724   4.242   4.088 -0.2386 -0.7741  0.4620
 9021TIP3    H127027   6.818   4.245   4.074 -0.3572 -0.1272 -0.2247
 9021TIP3    H227028   6.705   4.318   4.142 -0.4931 -0.3740 -0.1865
 9022TIP3   OH227029   0.213   5.877   2.335  0.1679 -1.2323 -0.1749
 9022TIP3    H127030   0.245   5.953   2.287 -1.6781  0.4806  1.1684
 9022TIP3    H227031   0.164   5.827   2.270  0.5431 -0.7614 -0.8360
 9023TIP3   OH227032   2.120   3.426   1.571 -0.0055  0.2151  0.1774
 9023TIP3    H127033   2.032   3.454   1.545 -0.2556 -0.8178 -0.1352
 9023TIP3    H227034   2.155   3.500   1.621 -1.1358  0.5580  0.5001
 9024TIP3   OH227035   0.042   6.232   3.132 -0.2271  0.0854  0.5750
 9024TIP3    H127036   0.106   6.209   3.065 -0.0288  1.0010  0.4333
 9024TIP3    H227037  -0.013   6.155   3.140  0.5110 -0.4926  0.2522
 9025TIP3   OH227038   3.389   6.390   3.259 -0.2190  0.1894  0.3573
 9025TIP3    H127039   3.441   6.319   3.297 -1.6726 -0.6235  0.9203
 9025TIP3    H227040   3.352   6.436   3.335 -0.9411  0.2550 -0.0236
 9026TIP3   OH227041   2.815   1.975   4.716 -0.2530 -0.0437 -0.0110
 9026TIP3    H127042   2.781   1.904   4.770  2.2484 -1.2820  0.0614
 9026TIP3    H227043   2.858   1.931   4.643 -0.5792  1.5038 -1.1908
 9027TIP3   OH227044   5.584   6.197   2.772  0.1532  0.3370 -0.2702
 9027TIP3    H127045   5.668   6.204   2.727  0.6393  1.1654  0.7347
 9027TIP3    H227046   5.558   6.288   2.789 -0.7729  0.0813 -0.2286
 9028TIP3   OH227047   5.398   0.071   4.796 -0.9412 -0.2721  0.2837
 9028TIP3    H127048   5.403   0.032   4.883 -2.2458 -1.1390 -0.0027
 9028TIP3    H227049   5.305   0.071   4.775 -0.6092 -0.4471 -1.2776
 9029TIP3   OH227050   2.623   4.389   2.665  0.2818 -0.2490  0.1884
 9029TIP3    H127051   2.562   4.332   2.618 -1.4283  1.9135 -0.3721
 9029TIP3    H227052   2.652   4.453   2.600 -0.6664  1.6669  1.5477
 9030TIP3   OH227053   0.975   6.483   3.257  0.3423  0.2756  0.5347
 9030TIP3    H127054   1.049   6.433   3.223  0.7544  0.2058  1.4989
 9030TIP3    H227055   0.953   6.439   3.340 -0.3033  0.7431  0.6163
 9031TIP3   OH227056   6.478   0.635   2.077 -0.2357 -0.7062  0.0036
 9031TIP3    H127057   6.538   0.678   2.017  0.3363 -1.6436 -0.1154
 9031TIP3    H227058   6.450   0.704   2.137  1.9703 -0.4744  0.8795
 9032TIP3   OH227059   2.691   4.914   2.368 -0.7309  0.3658 -0.4309
 9032TIP3    H127060   2.735   4.830   2.379 -1.1749  0.3373  1.3867
 9032TIP3    H227061   2.721   4.945   2.282  1.9336 -0.1671  0.2179
 9033TIP3   OH227062   0.300   4.108   2.984  0.0885 -0.2120  0.1815
 9033TIP3    H127063   0.257   4.032   2.945 -1.3351  0.2687  0.7563
 9033TIP3    H227064   0.245   4.131   3.059  2.5209 -0.9038  2.3460
 9034TIP3   OH227065   1.170   0.311   1.031  0.9104 -0.9198  0.5040
 9034TIP3    H127066   1.124   0.332   1.112 -1.4197  1.0041 -1.1847
 9034TIP3    H227067   1.196   0.396   0.995  3.5107 -1.8103  0.0441
 9035TIP3   OH227068   2.143   3.438   4.765 -0.1897  0.4473  0.5995
 9035TIP3    H127069   2.211   3.400   4.709 -1.1881  0.3397 -0.5829
 9035TIP3    H227070   2.140   3.382   4.842  1.2933  0.6628  0.8376
 9036TIP3   OH227071   1.369   2.544   5.579 -0.5202 -0.0835 -0.0190
 9036TIP3    H127072   1.448   2.535   5.525 -2.0405  0.4969 -2.4632
 9036TIP3    H227073   1.364   2.461   5.627  0.8170 -0.6922 -0.8489
 9037TIP3   OH227074   2.508   6.684   0.253  0.2453 -0.2582 -0.0450
 9037TIP3    H127075   2.531   6.683   0.160  1.5175  0.7425  0.2377
 9037TIP3    H227076   2.514   6.592   0.279 -0.6396 -0.6267 -1.0585
 9038TIP3   OH227077   2.286   4.357   4.682  0.1998  0.2624 -0.1920
 9038TIP3    H127078   2.284   4.272   4.639  0.2164 -1.3769  2.7432
 9038TIP3    H227079   2.367   4.357   4.733 -0.5138  1.3932  1.0240
 9039TIP3   OH227080   4.764   0.578   1.384  0.2367  0.5941  0.2748
 9039TIP3    H127081   4.760   0.551   1.475  0.8614 -0.0173  0.1301
 9039TIP3    H227082   4.790   0.670   1.387 -0.7584  0.8728  0.7374
 9040TIP3   OH227083   2.059   5.064   4.491  0.2335 -0.1974  0.5536
 9040TIP3    H127084   2.049   4.971   4.471 -0.7606  0.0338 -0.0945
 9040TIP3    H227085   2.099   5.066   4.578  0.6194 -1.2268  0.4077
 9041TIP3   OH227086   3.040   2.642   1.513 -0.1437  0.3141 -0.1296
 9041TIP3    H127087   3.011   2.732   1.503 -0.9883  0.0415 -0.2537
 9041TIP3    H227088   3.077   2.638   1.601 -0.8237  0.5990  0.1772
 9042TIP3   OH227089   3.172   1.327   5.430  0.1593 -0.0207  0.5959
 9042TIP3    H127090   3.115   1.250   5.438  1.4563 -1.3360 -1.6848
 9042TIP3    H227091   3.238   1.316   5.499  0.1085 -0.7668  0.5350
 9043TIP3   OH227092   6.611   6.220   0.545  0.3697 -0.1441  0.1485
 9043TIP3    H127093   6.584   6.293   0.488  3.2303  0.5976 -0.4081
 9043TIP3    H227094   6.665   6.262   0.612  0.7280 -1.5758  0.7761
 9044TIP3   OH227095   2.166   3.407   5.342 -0.3518 -0.0929  0.1369
 9044TIP3    H127096   2.100   3.385   5.276 -0.9605  0.2809  0.6030
 9044TIP3    H227097   2.215   3.326   5.355 -1.5684 -0.7793  0.7212
 9045TIP3   OH227098   2.191   2.629   1.725  0.2568  0.0939 -0.1214
 9045TIP3    H127099   2.216   2.634   1.817  0.7195  0.3899 -0.2568
 9045TIP3    H227100   2.101   2.661   1.722 -0.1449 -0.9613  0.3755
 9046TIP3   OH227101   5.934   5.290   0.736  0.1356  0.0240  0.0457
 9046TIP3    H127102   5.898   5.272   0.823 -1.6698  2.3620 -0.1158
 9046TIP3    H227103   5.905   5.379   0.716  0.8736 -0.2636 -2.7772
 9047TIP3   OH227104   3.043   2.316   5.342  0.3660  0.3427  0.4523
 9047TIP3    H127105   2.965   2.260   5.337 -0.4415  1.4011  0.7374
 9047TIP3    H227106   3.056   2.347   5.253  1.3100 -0.8985  0.1199
 9048TIP3   OH227107   6.949   4.869   2.731 -0.7935 -0.6906 -0.1278
 9048TIP3    H127108   6.887   4.869   2.804  0.8341  0.2201  1.3398
 9048TIP3    H227109   6.999   4.788   2.742 -0.7826 -0.7325 -0.4667
 9049TIP3   OH227110   0.650   4.241   0.084  0.2547  0.1970 -0.0726
 9049TIP3    H127111   0.666   4.271   0.173 -0.2493  0.7254 -0.1500
 9049TIP3    H227112   0.558   4.264   0.067  0.0614 -0.7698 -0.3885
 9050TIP3   OH227113   1.426   3.095   5.796 -0.0729 -0.0734 -0.2160
 9050TIP3    H127114   1.354   3.150   5.767 -0.3720 -0.0920  0.4740
 9050TIP3    H227115   1.385   3.011   5.816  0.5117 -0.8616 -2.1229
 9051TIP3   OH227116   3.173   4.747   5.801 -0.0083  0.2767 -0.2174
 9051TIP3    H127117   3.248   4.793   5.763  0.6088 -1.2750 -0.9499
 9051TIP3    H227118   3.097   4.785   5.757  0.4912  0.4668 -0.9281
 9052TIP3   OH227119   6.103   0.892   3.294 -0.1912  0.1231  0.6113
 9052TIP3    H127120   6.112   0.833   3.218  2.1824 -0.6180  1.3671
 9052TIP3    H227121   6.182   0.946   3.291 -1.5641  2.2629  0.8570
 9053TIP3   OH227122   6.588   3.277   3.961  0.3993 -0.3297  0.5095
 9053TIP3    H127123   6.616   3.259   4.051  0.6827 -0.4712  0.3970
 9053TIP3    H227124   6.548   3.363   3.965 -0.1712 -0.6076  0.8937
 9054TIP3   OH227125   6.626   6.520   0.799  0.7796  0.2193 -0.5071
 9054TIP3    H127126   6.677   6.450   0.758  1.4735  0.6026 -0.3225
 9054TIP3    H227127   6.685   6.556   0.866 -0.0980  0.0155  0.4076
 9055TIP3   OH227128   4.255   4.226   1.938  0.5444 -0.4126  0.3534
 9055TIP3    H127129   4.194   4.168   1.892 -0.2891  1.3630 -0.9106
 9055TIP3    H227130   4.308   4.167   1.992 -1.6112 -2.1323  0.7506
 9056TIP3   OH227131   5.252   3.983   5.019 -0.1853  0.3562 -0.3289
 9056TIP3    H127132   5.195   3.915   5.055 -0.7606  1.3839  0.7835
 9056TIP3    H227133   5.337   3.941   5.011 -0.4120 -0.3739  0.8178
 9057TIP3   OH227134   5.550   3.217   0.723  0.2823 -0.1128  0.2530
 9057TIP3    H127135   5.605   3.274   0.669  1.3144 -2.5022 -1.4062
 9057TIP3    H227136   5.569   3.244   0.813  0.9735  1.8987 -0.4478
 9058TIP3   OH227137   4.186   5.877   2.144  0.4919  0.1766  0.2846
 9058TIP3    H127138   4.144   5.882   2.059  0.6810  1.2816  0.2417
 9058TIP3    H227139   4.131   5.932   2.201  0.2959 -0.6481  0.9059
 9059TIP3   OH227140   1.463   5.417   1.936 -0.2170  0.0249 -1.1027
 9059TIP3    H127141   1.479   5.379   2.023 -2.2520 -0.9136 -1.0881
 9059TIP3    H227142   1.540   5.390   1.884  1.2498  0.9809  0.4693
 9060TIP3   OH227143   1.265   2.374   3.550 -0.4415 -0.6130 -0.0674
 9060TIP3    H127144   1.337   2.312   3.538  1.1210  1.3424 -1.4047
 9060TIP3    H227145   1.227   2.386   3.463 -0.3177  0.7072  0.0296
 9061TIP3   OH227146   5.216   1.498   2.950  0.7475 -0.5647  0.1851
 9061TIP3    H127147   5.308   1.472   2.955  0.3893 -1.8251  0.7076
 9061TIP3    H227148   5.215   1.572   2.890  2.0388 -0.8204 -0.1852
 9062TIP3   OH227149   0.387   3.958   4.555 -0.2392  0.3334  0.3209
 9062TIP3    H127150   0.468   3.918   4.524 -0.1895  0.9345 -0.3618
 9062TIP3    H227151   0.319   3.926   4.496 -0.0380  2.0083 -0.9050
 9063TIP3   OH227152   5.314   5.034   5.215 -0.3352  0.0380 -0.4774
 9063TIP3    H127153   5.374   4.963   5.191  0.6819  0.9026 -0.5217
 9063TIP3    H227154   5.227   4.998   5.198  0.1720 -1.1298 -0.6910
 9064TIP3   OH227155   0.321   5.270   5.737 -0.1067  0.0018 -0.1520
 9064TIP3    H127156   0.276   5.296   5.818 -1.5176  0.7668 -1.1327
 9064TIP3    H227157   0.270   5.196   5.704 -0.6108  0.7837 -1.2036
 9065TIP3   OH227158   3.284   6.756   4.104  0.1036  0.3062 -0.1023
 9065TIP3    H127159   3.359   6.794   4.058 -0.4915  1.3753 -0.2388
 9065TIP3    H227160   3.228   6.831   4.125 -0.5639 -0.3813  0.6714
 9066TIP3   OH227161   2.932   0.763   2.676  0.1148  0.7209  0.3708
 9066TIP3    H127162   2.858   0.813   2.641 -0.5869 -1.1258 -0.9489
 9066TIP3    H227163   2.892   0.700   2.736  0.6079 -0.2203 -0.2617
 9067TIP3   OH227164   4.175   5.962   3.149  0.0724  0.3034 -0.2252
 9067TIP3    H127165   4.141   5.933   3.233  0.0845  0.7403 -0.0692
 9067TIP3    H227166   4.147   5.894   3.087 -0.4406  0.2751  0.0307
 9068TIP3   OH227167   4.389   2.202   1.288  0.1960 -0.7933 -0.1827
 9068TIP3    H127168   4.350   2.175   1.205 -0.2905  0.0871 -0.2544
 9068TIP3    H227169   4.483   2.191   1.275  0.0914 -1.1071 -0.6866
 9069TIP3   OH227170   1.104   2.949   0.129 -0.7372  0.0261 -0.2446
 9069TIP3    H127171   1.182   2.988   0.089  0.2340 -1.2324  0.3591
 9069TIP3    H227172   1.137   2.903   0.206 -2.0905 -0.5200  0.0329
 9070TIP3   OH227173   1.858   0.091   3.575 -0.1954  0.8832  0.1342
 9070TIP3    H127174   1.855   0.135   3.659  1.0859  1.5668 -0.1655
 9070TIP3    H227175   1.899   0.006   3.594  0.8219  1.3498  0.0842
 9071TIP3   OH227176   0.093   5.527   3.526  0.5569  0.4706  0.5642
 9071TIP3    H127177   0.126   5.469   3.458  1.8621  1.1379  0.6009
 9071TIP3    H227178   0.109   5.480   3.608  0.3542  0.3048  0.5092
 9072TIP3   OH227179   3.498   3.423   4.974 -0.5425  0.0311  0.2329
 9072TIP3    H127180   3.441   3.462   4.907 -2.3536 -1.6896  0.6986
 9072TIP3    H227181   3.547   3.356   4.927 -0.6614 -0.1201  0.3278
 9073TIP3   OH227182   5.951   1.099   2.383  0.1741 -0.1770 -0.5715
 9073TIP3    H127183   5.942   1.110   2.478  0.2524 -1.1258 -0.4382
 9073TIP3    H227184   6.045   1.092   2.368  0.3329  2.1355 -1.0172
 9074TIP3   OH227185   5.891   5.113   5.372  0.0015 -0.9715 -0.5830
 9074TIP3    H127186   5.927   5.025   5.382  0.4215 -0.5969  1.8590
 9074TIP3    H227187   5.830   5.122   5.445 -0.8838  0.3894 -1.4476
 9075TIP3   OH227188   5.937   0.287   4.910  0.1541 -0.6381 -0.3519
 9075TIP3    H127189   5.847   0.288   4.943  0.2104 -2.4749 -0.0375
 9075TIP3    H227190   5.975   0.368   4.943 -1.2313 -0.0533 -0.0920
 9076TIP3   OH227191   2.517   1.577   1.054 -0.0177 -0.4713 -0.3045
 9076TIP3    H127192   2.467   1.497   1.069 -0.9570  0.1910  0.1827
 9076TIP3    H227193   2.538   1.609   1.142 -0.9812  0.6273 -0.4584
 9077TIP3   OH227194   6.740   2.540   3.446 -0.0848  0.3056  0.3755
 9077TIP3    H127195   6.809   2.601   3.422 -0.1750  0.4624  0.5199
 9077TIP3    H227196   6.685   2.587   3.508 -1.3305  0.8039 -1.0527
 9078TIP3   OH227197   0.559   1.053   1.029 -0.7847  0.0441  0.6925
 9078TIP3    H127198   0.593   1.129   0.981 -1.1447  0.1783  0.6510
 9078TIP3    H227199   0.474   1.036   0.989 -0.1848 -1.1552 -0.1597
 9079TIP3   OH227200   6.837   1.555   0.173  0.1567 -0.2297  0.7176
 9079TIP3    H127201   6.776   1.493   0.213  0.6703 -0.7887  0.6499
 9079TIP3    H227202   6.898   1.500   0.124  0.2346  0.3777  0.1259
 9080TIP3   OH227203   6.899   0.357   0.352  0.2344 -0.5345 -0.0127
 9080TIP3    H127204   6.981   0.398   0.325  0.4290 -0.9284 -0.0309
 9080TIP3    H227205   6.875   0.403   0.432  0.3196 -0.2164 -0.1710
 9081TIP3   OH227206   2.377   2.725   1.533 -0.1086  0.3493 -0.5310
 9081TIP3    H127207   2.371   2.639   1.491 -3.0804 -0.1428  0.6918
 9081TIP3    H227208   2.305   2.726   1.596  0.5928  3.3002  0.3536
 9082TIP3   OH227209   1.074   0.723   5.791  0.1064 -0.3356 -0.0273
 9082TIP3    H127210   1.043   0.633   5.779 -0.6857 -0.2274  1.0530
 9082TIP3    H227211   1.099   0.751   5.703 -0.5296 -1.2907 -0.5403
 9083TIP3   OH227212   2.220   6.093   3.660  0.6347  0.1895  0.1511
 9083TIP3    H127213   2.147   6.032   3.675  0.1912  0.5635 -0.4541
 9083TIP3    H227214   2.178   6.178   3.650  1.2918  0.7103  1.5442
 9084TIP3   OH227215   0.193   1.819   3.194 -0.1778  0.6169 -0.3387
 9084TIP3    H127216   0.160   1.822   3.284 -1.1275  0.8157 -0.6745
 9084TIP3    H227217   0.171   1.905   3.157 -1.8212 -0.1956 -1.4128
 9085TIP3   OH227218   2.347   1.556   2.898  0.0367  0.1923 -0.3189
 9085TIP3    H127219   2.383   1.467   2.902 -1.0758 -0.2341  0.9519
 9085TIP3    H227220   2.403   1.607   2.956 -0.7052 -0.2359  0.8207
 9086TIP3   OH227221   6.990   5.259   4.633  0.7755  0.0306  0.0598
 9086TIP3    H127222   7.029   5.279   4.549  0.7670  1.7545  0.4392
 9086TIP3    H227223   7.063   5.262   4.695  0.2076  2.8448  0.7065
 9087TIP3   OH227224   4.037   4.708   2.047  0.3212  0.1957  0.2727
 9087TIP3    H127225   4.117   4.757   2.062  0.2990  0.1167  0.6641
 9087TIP3    H227226   4.066   4.625   2.008  0.3693  0.4560 -0.2477
 9088TIP3   OH227227   4.969   4.757   5.088 -0.8869 -0.0643 -0.1347
 9088TIP3    H127228   5.036   4.689   5.083 -1.4440 -0.6152 -0.3256
 9088TIP3    H227229   4.887   4.711   5.066 -1.1037  0.9466 -1.5550
 9089TIP3   OH227230   6.770   5.031   0.237 -0.4088 -0.6405 -0.2876
 9089TIP3    H127231   6.772   5.115   0.283 -1.2802  0.5650 -2.3300
 9089TIP3    H227232   6.789   4.967   0.305 -0.1707  1.1491  1.4434
 9090TIP3   OH227233   6.495   3.012   5.096 -0.6617  0.1004 -0.2787
 9090TIP3    H127234   6.590   3.002   5.094 -0.3630  1.9888  1.5669
 9090TIP3    H227235   6.473   3.019   5.189 -2.4678  0.8373 -0.7109
 9091TIP3   OH227236   3.979   6.113   2.806 -0.3535 -0.0748  0.5135
 9091TIP3    H127237   3.917   6.133   2.736  0.8651  1.4426 -0.2021
 9091TIP3    H227238   4.035   6.190   2.811  1.7125 -1.5133  0.8657
 9092TIP3   OH227239   3.605   3.500   5.474  0.1915  0.1745 -0.3624
 9092TIP3    H127240   3.614   3.424   5.416 -1.6820 -0.7900  0.5316
 9092TIP3    H227241   3.569   3.464   5.555 -2.3700  2.1953 -0.4921
 9093TIP3   OH227242   6.024   4.795   3.063  0.2858 -0.1194 -0.6441
 9093TIP3    H127243   6.072   4.836   2.991  0.8243 -2.1148 -1.4858
 9093TIP3    H227244   5.941   4.768   3.024  0.1731 -0.3356 -0.2574
 9094TIP3   OH227245   0.552   0.261   3.873 -0.0558  0.3897 -0.1222
 9094TIP3    H127246   0.589   0.340   3.832  1.1367  0.2554  0.6619
 9094TIP3    H227247   0.625   0.222   3.920 -1.5537  1.0220  2.9477
 9095TIP3   OH227248   3.665   1.419   4.733 -0.4086  0.5233 -0.0614
 9095TIP3    H127249   3.655   1.324   4.730 -0.2265  0.3176  2.7712
 9095TIP3    H227250   3.595   1.448   4.791  1.8602  1.5966  2.3130
 9096TIP3   OH227251   3.435   0.481   4.757 -0.7432  0.0513  0.2735
 9096TIP3    H127252   3.461   0.571   4.736 -3.4872  1.8426  3.5461
 9096TIP3    H227253   3.498   0.453   4.824 -1.5832  0.7629  1.4001
 9097TIP3   OH227254   1.904   6.571   5.378  0.1475 -0.5779 -0.9948
 9097TIP3    H127255   1.811   6.553   5.362 -0.3995 -0.4956  1.6578
 9097TIP3    H227256   1.917   6.660   5.344 -0.6620 -0.6908 -1.6370
 9098TIP3   OH227257   4.746   2.928   2.246 -0.3133 -0.1479  0.5499
 9098TIP3    H127258   4.660   2.898   2.219 -0.3361  0.2169  0.1941
 9098TIP3    H227259   4.803   2.905   2.173  0.1489 -1.5304  1.3102
 9099TIP3   OH227260   1.953   6.185   5.484 -0.1354 -0.6371  0.1085
 9099TIP3    H127261   1.965   6.098   5.522  0.9479 -0.0435  1.1840
 9099TIP3    H227262   1.951   6.169   5.390  0.0966 -1.8232  0.2839
 9100TIP3   OH227263   7.041   1.058   0.996  0.8016 -0.9838 -0.0019
 9100TIP3    H127264   7.029   1.058   1.091  0.1580  0.4620 -0.0588
 9100TIP3    H227265   7.119   1.004   0.982  1.7887 -0.0367  1.4826
 9101TIP3   OH227266   5.729   1.240   1.222  0.1175 -0.3185  0.1339
 9101TIP3    H127267   5.762   1.328   1.206  0.1135 -0.4647 -0.7305
 9101TIP3    H227268   5.658   1.229   1.159  0.5569 -1.1750 -0.2322
 9102TIP3   OH227269   4.201   1.781   1.193  0.1301 -0.5861  0.5039
 9102TIP3    H127270   4.221   1.698   1.235  0.9778  0.2104  1.7659
 9102TIP3    H227271   4.213   1.765   1.099 -1.6035 -2.3573  0.5395
 9103TIP3   OH227272   0.283   5.553   1.016  0.0773  0.2476  0.4712
 9103TIP3    H127273   0.297   5.618   1.085 -0.9239  0.5845  0.3766
 9103TIP3    H227274   0.263   5.604   0.938 -0.5386 -0.1664  0.3523
 9104TIP3   OH227275   2.883   5.868   4.715  0.0593  0.3397  0.4710
 9104TIP3    H127276   2.845   5.864   4.627 -2.2523 -0.8121  1.4397
 9104TIP3    H227277   2.872   5.960   4.741  0.6242  0.6573 -0.3430
 9105TIP3   OH227278   4.320   3.185   4.852  0.4541  0.1347 -0.2930
 9105TIP3    H127279   4.398   3.197   4.907  0.3527 -2.5390  0.5566
 9105TIP3    H227280   4.356   3.169   4.765  0.6681  2.5251 -0.7167
 9106TIP3   OH227281   4.347   3.063   1.549 -0.3911  0.0068 -0.1818
 9106TIP3    H127282   4.254   3.048   1.529 -0.3451  0.4327 -0.7161
 9106TIP3    H227283   4.352   3.156   1.570  0.1052  0.2282 -1.2234
 9107TIP3   OH227284   0.440   4.387   4.294  0.0962  0.6995  0.0357
 9107TIP3    H127285   0.431   4.294   4.313 -1.7321  0.8296 -0.0085
 9107TIP3    H227286   0.449   4.428   4.379  0.4095  0.5225  0.0872
 9108TIP3   OH227287   0.225   4.323   2.109  0.5623  0.3770 -0.6712
 9108TIP3    H127288   0.186   4.384   2.171  1.7426  0.5986 -0.1074
 9108TIP3    H227289   0.202   4.357   2.023 -1.1047  0.0633 -0.3791
 9109TIP3   OH227290   0.483   3.150   3.790 -0.2935  0.1972 -0.2427
 9109TIP3    H127291   0.454   3.179   3.877 -5.4866 -0.7418 -1.3294
 9109TIP3    H227292   0.479   3.230   3.736 -0.7304  0.1012 -0.3558
 9110TIP3   OH227293   6.381   1.431   4.743 -0.1596  0.1875  0.0158
 9110TIP3    H127294   6.455   1.418   4.683  0.4080  0.1833  0.6996
 9110TIP3    H227295   6.384   1.524   4.764 -0.1482  0.1234  0.2982
 9111TIP3   OH227296   4.988   4.521   3.152  0.0551 -0.0159 -0.3830
 9111TIP3    H127297   5.061   4.477   3.108 -0.4767 -1.6023  0.2600
 9111TIP3    H227298   4.910   4.484   3.112 -0.4164  1.0308 -0.4551
 9112TIP3   OH227299   5.615   3.318   5.835  0.0311  0.1950 -0.5937
 9112TIP3    H127300   5.695   3.272   5.807 -0.3330 -0.1291 -1.1341
 9112TIP3    H227301   5.546   3.253   5.823 -0.2964  0.4391 -0.0114
 9113TIP3   OH227302   3.385   5.189   3.316  0.2718  0.6354 -0.2407
 9113TIP3    H127303   3.448   5.217   3.382  0.6228 -0.2736 -0.1777
 9113TIP3    H227304   3.300   5.193   3.360  0.2394  2.0563 -0.3867
 9114TIP3   OH227305   0.486   5.419   2.864  0.4125 -0.1284 -0.5731
 9114TIP3    H127306   0.474   5.512   2.843 -0.4709 -0.1326 -0.1474
 9114TIP3    H227307   0.576   5.400   2.840  1.2240  1.3119  1.1061
 9115TIP3   OH227308   7.134   6.485   4.419  0.3481 -0.2400 -0.0179
 9115TIP3    H127309   7.152   6.418   4.354 -2.5038  0.2323 -1.4522
 9115TIP3    H227310   7.116   6.437   4.500  1.3064 -0.9874 -0.2359
 9116TIP3   OH227311   6.407   1.941   1.458  0.5807  0.2079 -0.5219
 9116TIP3    H127312   6.321   1.900   1.446  0.7068  0.0089 -0.7703
 9116TIP3    H227313   6.447   1.891   1.529  1.1217 -0.7609 -1.4687
 9117TIP3   OH227314   4.974   6.326   0.689 -0.4976  0.0328  0.6490
 9117TIP3    H127315   4.975   6.250   0.746 -0.4881 -0.3682  0.1181
 9117TIP3    H227316   5.041   6.308   0.624  1.2978  1.6185  1.9600
 9118TIP3   OH227317   2.472   5.533   2.753 -0.2460  0.1344  0.3893
 9118TIP3    H127318   2.541   5.596   2.730 -0.3396  0.4871  1.0474
 9118TIP3    H227319   2.403   5.587   2.792 -0.9755 -0.1956 -0.4067
 9119TIP3   OH227320   2.967   0.600   5.683  0.4423  0.4492 -0.0644
 9119TIP3    H127321   2.876   0.587   5.707  0.6561 -0.8743  0.1223
 9119TIP3    H227322   3.015   0.592   5.765  0.7853  0.4695 -0.2594
 9120TIP3   OH227323   3.305   6.817   2.579  0.1398 -0.2503 -0.0936
 9120TIP3    H127324   3.282   6.728   2.608  2.2391 -0.4569  1.1598
 9120TIP3    H227325   3.369   6.803   2.510  1.7958  0.2375  1.2911
 9121TIP3   OH227326   4.332   3.561   4.729  0.4835  0.5038 -0.2693
 9121TIP3    H127327   4.389   3.606   4.792 -1.0056  0.2807  1.3455
 9121TIP3    H227328   4.339   3.612   4.649  2.3605  0.8864  0.0878
 9122TIP3   OH227329   6.423   1.563   0.221  0.1510 -0.1974  0.6489
 9122TIP3    H127330   6.383   1.544   0.306  1.8622  0.7836  1.7485
 9122TIP3    H227331   6.497   1.620   0.242  0.7709 -0.1199 -1.4986
 9123TIP3   OH227332   4.517   2.899   1.404  0.0741 -0.0720  0.7323
 9123TIP3    H127333   4.488   2.951   1.479 -0.2839 -1.6488  1.7250
 9123TIP3    H227334   4.610   2.918   1.395  0.1960 -0.1513  1.8112
 9124TIP3   OH227335   1.834   5.820   2.688 -0.3243 -0.2320  0.0241
 9124TIP3    H127336   1.771   5.757   2.723 -0.1589  0.5960  1.9496
 9124TIP3    H227337   1.917   5.772   2.687 -0.7326 -0.9487 -1.3707
 9125TIP3   OH227338   3.559   3.004   3.211 -0.3702 -0.7201  0.1503
 9125TIP3    H127339   3.631   3.058   3.179  0.5487 -0.9363  1.7669
 9125TIP3    H227340   3.502   3.065   3.258 -0.5802 -0.7647 -0.0437
 9126TIP3   OH227341   4.338   2.918   0.699 -0.3250 -0.2122 -0.1692
 9126TIP3    H127342   4.300   2.833   0.723 -1.1679  0.4301  0.8339
 9126TIP3    H227343   4.275   2.982   0.730 -1.2017  0.7563 -3.5620
 9127TIP3   OH227344   2.773   0.840   3.233  0.3138  0.2647  0.1085
 9127TIP3    H127345   2.741   0.829   3.323 -0.9210 -0.6534 -0.4112
 9127TIP3    H227346   2.828   0.764   3.218 -1.2678 -0.7837 -0.6188
 9128TIP3   OH227347   2.409   6.101   2.865  0.3025  0.1350  0.3380
 9128TIP3    H127348   2.401   6.139   2.952  2.5657  1.2214  0.1446
 9128TIP3    H227349   2.503   6.085   2.854  0.4624  2.1586 -2.6952
 9129TIP3   OH227350   2.875   3.662   5.154 -0.7432  0.7551 -0.0683
 9129TIP3    H127351   2.803   3.688   5.096 -1.8877 -0.3202  0.8268
 9129TIP3    H227352   2.863   3.715   5.233 -0.3923  0.7682 -0.0230
 9130TIP3   OH227353   4.007   3.585   4.294  0.4676 -0.5370 -0.6148
 9130TIP3    H127354   4.060   3.619   4.367  1.4516  0.9756 -1.9524
 9130TIP3    H227355   3.918   3.613   4.314  0.7052 -0.2365  0.0548
 9131TIP3   OH227356   5.933   1.932   2.189  0.0051  0.4051 -0.3394
 9131TIP3    H127357   5.947   1.969   2.102  0.1649 -1.1539 -0.9942
 9131TIP3    H227358   5.934   1.837   2.176 -0.8330  0.1490  1.2279
 9132TIP3   OH227359   1.651   2.639   0.842  0.1300 -0.2766 -0.5372
 9132TIP3    H127360   1.626   2.639   0.749  2.8232 -1.0639 -1.3557
 9132TIP3    H227361   1.691   2.725   0.856 -0.7660  0.0532  0.0766
 9133TIP3   OH227362   4.064   6.656   0.246 -0.0447  0.6391 -0.1194
 9133TIP3    H127363   3.973   6.633   0.263  0.4058 -0.1422  1.4458
 9133TIP3    H227364   4.111   6.573   0.253  0.5370  0.5743 -3.3834
 9134TIP3   OH227365   4.512   6.343   0.210  0.4736 -0.1647  0.1699
 9134TIP3    H127366   4.556   6.295   0.280  0.8784  0.6423  0.4796
 9134TIP3    H227367   4.430   6.373   0.249  1.1500  1.1435  0.6299
 9135TIP3   OH227368   2.927   3.741   1.844 -0.0673  0.0576 -0.1203
 9135TIP3    H127369   2.962   3.658   1.875  0.0362  0.3445  0.5373
 9135TIP3    H227370   2.886   3.781   1.921  4.5301  3.1149  1.1275
 9136TIP3   OH227371   0.867   6.229   4.171  0.3041 -0.6887  0.5855
 9136TIP3    H127372   0.892   6.219   4.080  1.3045 -0.8518  0.8652
 9136TIP3    H227373   0.847   6.141   4.201 -0.7823 -0.5374  0.3187
 9137TIP3   OH227374   4.819   5.252   2.243 -0.2130 -0.0256 -0.4622
 9137TIP3    H127375   4.871   5.296   2.176  0.1899 -0.0582 -0.1757
 9137TIP3    H227376   4.730   5.282   2.228 -0.1113  0.0348 -0.9568
 9138TIP3   OH227377   1.911   4.197   1.262  0.1865  0.1398  0.2676
 9138TIP3    H127378   1.919   4.285   1.226  0.0986 -0.6858 -1.9409
 9138TIP3    H227379   1.986   4.149   1.225  0.1342 -0.7632  1.2735
 9139TIP3   OH227380   2.770   4.934   0.978  0.1702 -0.0102  0.5814
 9139TIP3    H127381   2.766   4.839   0.981 -0.0424 -0.1736 -2.5447
 9139TIP3    H227382   2.851   4.954   0.931  0.2442  1.4016  1.2184
 9140TIP3   OH227383   3.919   2.456   3.378 -0.4476 -0.0109  0.0495
 9140TIP3    H127384   3.852   2.512   3.340  0.8255  0.6267 -1.3998
 9140TIP3    H227385   3.940   2.496   3.462 -0.6159  0.8356 -0.2995
 9141TIP3   OH227386   2.709   1.121   1.086 -0.3841  0.0305 -0.1662
 9141TIP3    H127387   2.670   1.122   0.998 -0.7535 -2.7063 -0.1015
 9141TIP3    H227388   2.635   1.106   1.145  0.0144  0.7298  0.5304
 9142TIP3   OH227389   4.224   3.742   5.019  0.1089  0.1299 -0.3033
 9142TIP3    H127390   4.129   3.751   5.009  0.0424  0.9949  0.9064
 9142TIP3    H227391   4.240   3.648   5.007 -0.9924 -0.1367  0.1385
 9143TIP3   OH227392   7.158   1.951   4.793 -0.0289 -0.3530 -0.3250
 9143TIP3    H127393   7.249   1.950   4.763  0.8777  2.3366  1.8884
 9143TIP3    H227394   7.112   2.001   4.726  0.0549 -1.8247 -1.5179
 9144TIP3   OH227395   5.925   6.432   3.639  0.1288  0.5639 -0.0303
 9144TIP3    H127396   5.959   6.517   3.610 -0.9204  1.0564  0.1631
 9144TIP3    H227397   5.831   6.437   3.625 -0.0358 -0.3011  0.6660
 9145TIP3   OH227398   0.413   0.900   3.618 -0.0656 -0.1867  0.2299
 9145TIP3    H127399   0.325   0.864   3.606  0.3118 -1.7760  1.8074
 9145TIP3    H227400   0.429   0.894   3.712  1.5875  0.4619  0.0316
 9146TIP3   OH227401   5.271   1.998   1.709 -0.2145 -0.3256  0.0594
 9146TIP3    H127402   5.362   1.968   1.711 -0.0343  0.1741  2.4765
 9146TIP3    H227403   5.235   1.971   1.794 -1.3086  2.4174  0.5699
 9147TIP3   OH227404   6.711   5.518   0.707 -0.7156  0.0961  0.1633
 9147TIP3    H127405   6.710   5.430   0.746 -0.3645 -0.6678 -1.4591
 9147TIP3    H227406   6.785   5.562   0.749 -1.3505 -0.1019  1.5397
 9148TIP3   OH227407   1.940   0.049   0.342 -0.1109  0.0904  0.2405
 9148TIP3    H127408   2.027   0.084   0.362  0.2764 -0.6201 -0.1578
 9148TIP3    H227409   1.887   0.071   0.419  0.4445  0.4317  0.5354
 9149TIP3   OH227410   1.025   1.105   4.657  0.0848 -0.2062 -0.0532
 9149TIP3    H127411   0.940   1.145   4.645 -0.9557 -2.3419 -0.2726
 9149TIP3    H227412   1.080   1.175   4.693 -1.5262  1.4142 -0.6081
 9150TIP3   OH227413   4.290   1.284   5.709  0.1147 -0.0067  0.8895
 9150TIP3    H127414   4.381   1.293   5.683 -0.7160  0.8904 -2.1311
 9150TIP3    H227415   4.264   1.372   5.737 -0.7361  0.7162 -1.9161
 9151TIP3   OH227416   2.390   3.783   3.899 -0.1305  0.7141 -0.0003
 9151TIP3    H127417   2.314   3.812   3.949 -0.2112  1.9272 -0.8004
 9151TIP3    H227418   2.354   3.737   3.824 -0.0409  0.3999  0.1456
 9152TIP3   OH227419   4.839   6.154   2.092  0.2502 -0.1879 -0.0885
 9152TIP3    H127420   4.903   6.220   2.118 -1.1684  1.0628  0.4073
 9152TIP3    H227421   4.800   6.125   2.175  0.0467 -0.7944 -0.3946
 9153TIP3   OH227422   7.237   2.971   5.177 -0.0668 -0.4668  0.0108
 9153TIP3    H127423   7.170   2.904   5.192  0.2706 -0.4856  1.5607
 9153TIP3    H227424   7.188   3.049   5.154 -0.5317 -0.8656 -0.3869
 9154TIP3   OH227425   6.235   1.982   1.975  0.2031  0.9804 -0.3382
 9154TIP3    H127426   6.318   1.975   2.022 -0.0964  2.0143  0.3694
 9154TIP3    H227427   6.216   1.892   1.948  0.8520  0.4934  0.7246
 9155TIP3   OH227428   6.461   4.977   2.959  0.1041  0.1353  0.0296
 9155TIP3    H127429   6.402   5.046   2.929 -0.5299 -0.3084  0.2309
 9155TIP3    H227430   6.505   5.014   3.036 -2.9693 -0.8996  2.5190
 9156TIP3   OH227431   1.923   5.953   3.657 -0.0258  0.0734 -0.3126
 9156TIP3    H127432   1.857   6.002   3.608  1.1052  0.0000 -1.9830
 9156TIP3    H227433   1.985   5.922   3.591  0.6432 -1.5218  0.9730
 9157TIP3   OH227434   2.720   5.646   4.849 -0.1989  0.8236  0.2900
 9157TIP3    H127435   2.738   5.723   4.793  1.4356 -0.1004 -0.5399
 9157TIP3    H227436   2.691   5.684   4.932  2.4602  2.4995  0.5981
 9158TIP3   OH227437   2.900   0.817   1.590  0.0626 -0.3969 -0.2090
 9158TIP3    H127438   2.970   0.788   1.531  1.1137  0.6947  0.4622
 9158TIP3    H227439   2.841   0.742   1.595  1.6647 -1.7139 -0.0826
 9159TIP3   OH227440   2.120   0.428   4.360 -0.2261  0.4873 -0.6341
 9159TIP3    H127441   2.127   0.482   4.439  0.1011 -0.8550  0.2998
 9159TIP3    H227442   2.039   0.378   4.373  0.7433 -1.0603 -0.2514
 9160TIP3   OH227443   3.387   2.139   3.705 -0.4116  0.6479 -0.2570
 9160TIP3    H127444   3.330   2.086   3.760  1.8176 -1.3220  0.3766
 9160TIP3    H227445   3.355   2.124   3.616 -0.3293 -1.2381 -0.0155
 9161TIP3   OH227446   3.718   0.313   3.258 -0.0424 -0.1633  0.1673
 9161TIP3    H127447   3.811   0.299   3.239 -0.1920 -1.3883  0.2212
 9161TIP3    H227448   3.682   0.352   3.178  0.3878 -0.3208 -0.1044
 9162TIP3   OH227449   6.345   2.964   2.964  0.2851 -0.2788  0.0500
 9162TIP3    H127450   6.421   2.940   2.911 -0.0539 -0.6793 -0.2602
 9162TIP3    H227451   6.276   2.982   2.901 -0.3827 -1.6486  0.3527
 9163TIP3   OH227452   1.403   3.266   3.675  0.0828  0.0404  0.1588
 9163TIP3    H127453   1.467   3.237   3.740  1.7004  1.2720 -0.8034
 9163TIP3    H227454   1.456   3.304   3.605 -1.5756 -1.6288 -2.1166
 9164TIP3   OH227455   3.754   6.060   2.249  0.2104 -0.1364  0.4626
 9164TIP3    H127456   3.666   6.023   2.257  0.0507  0.4624  1.6067
 9164TIP3    H227457   3.741   6.155   2.252  0.6558  0.0919 -1.9849
 9165TIP3   OH227458   0.268   0.156   5.519 -0.4369  0.2063  0.1364
 9165TIP3    H127459   0.190   0.101   5.516 -1.3980  1.2641  2.8025
 9165TIP3    H227460   0.338   0.098   5.548 -0.5415 -0.4439 -0.8973
 9166TIP3   OH227461   2.197   5.527   5.012 -0.4250  0.5965  0.2649
 9166TIP3    H127462   2.245   5.603   5.048  3.1440 -0.5301 -1.6403
 9166TIP3    H227463   2.185   5.548   4.920 -1.1874 -0.3279  0.1455
 9167TIP3   OH227464   4.299   4.556   5.302 -0.2535  0.1447  0.3784
 9167TIP3    H127465   4.212   4.524   5.327 -0.3901 -0.6845 -1.0920
 9167TIP3    H227466   4.297   4.559   5.207  1.3704  0.0449  0.3209
 9168TIP3   OH227467   6.858   0.115   3.493  0.3629  0.2661  0.5023
 9168TIP3    H127468   6.877   0.060   3.569  0.7843  0.2883  0.4132
 9168TIP3    H227469   6.792   0.065   3.444 -1.8407  1.3934  2.1661
 9169TIP3   OH227470   0.560   4.919   4.081 -0.2439  0.3799  0.0113
 9169TIP3    H127471   0.521   4.837   4.051 -0.5672  0.7865 -0.6840
 9169TIP3    H227472   0.621   4.944   4.011 -1.2968  1.5399 -0.5435
 9170TIP3   OH227473   1.748   3.672   5.892  0.2971 -0.4173  0.2511
 9170TIP3    H127474   1.779   3.680   5.802 -0.7352  1.1997 -0.0210
 9170TIP3    H227475   1.728   3.579   5.903 -0.1533 -0.5560 -1.4182
 9171TIP3   OH227476   0.371   4.957   1.866 -0.6178  0.2744  0.4799
 9171TIP3    H127477   0.454   4.941   1.821 -0.6036  0.5192  0.4193
 9171TIP3    H227478   0.380   4.909   1.949 -0.4081  0.3192  0.4833
 9172TIP3   OH227479   2.658   6.283   4.631 -0.3103  0.4304 -0.5557
 9172TIP3    H127480   2.658   6.203   4.579 -0.2484 -0.7983  1.2662
 9172TIP3    H227481   2.643   6.353   4.567 -0.4971 -1.0287 -2.1694
 9173TIP3   OH227482   1.102   5.059   3.898  0.3057 -0.2103 -0.4854
 9173TIP3    H127483   1.058   5.117   3.836  0.3000 -1.0529 -1.2898
 9173TIP3    H227484   1.193   5.057   3.869  0.1564 -1.1663 -0.9054
 9174TIP3   OH227485   5.028   2.853   1.705  0.3807 -0.3214 -0.7031
 9174TIP3    H127486   4.947   2.836   1.658  0.1043 -0.9959 -0.0172
 9174TIP3    H227487   5.096   2.814   1.651  0.4853  1.6472 -2.0976
 9175TIP3   OH227488   3.482   0.070   2.973  0.1060  0.5348  0.4645
 9175TIP3    H127489   3.428  -0.002   3.006  0.8052 -0.3759 -0.3441
 9175TIP3    H227490   3.555   0.076   3.035 -0.2965  1.0177  0.9113
 9176TIP3   OH227491   6.311   1.191   5.269  0.4149  0.4053  0.1054
 9176TIP3    H127492   6.326   1.149   5.184  0.1682  0.2291  0.1474
 9176TIP3    H227493   6.256   1.267   5.249  1.4576  1.1334 -0.0671
 9177TIP3   OH227494   1.839   4.156   1.741  0.0828  0.1105 -0.0677
 9177TIP3    H127495   1.794   4.190   1.663  0.6803 -1.4399 -1.1384
 9177TIP3    H227496   1.926   4.194   1.737 -1.1467  3.7647  2.4399
 9178TIP3   OH227497   6.180   3.450   4.119  0.3796 -0.3831  0.4591
 9178TIP3    H127498   6.272   3.449   4.094  0.2451 -0.4531 -0.0423
 9178TIP3    H227499   6.176   3.401   4.201  0.9214  0.3694  0.9558
 9179TIP3   OH227500   1.658   4.386   1.517  0.4408 -0.5714  0.1581
 9179TIP3    H127501   1.593   4.427   1.460  0.7873 -0.4700 -0.1707
 9179TIP3    H227502   1.627   4.296   1.528 -1.0025  0.0687  1.9017
 9180TIP3   OH227503   2.851   0.617   0.070 -0.4474 -0.1850  0.6626
 9180TIP3    H127504   2.884   0.538   0.028 -0.9969  0.4796 -1.1492
 9180TIP3    H227505   2.756   0.613   0.058 -0.4153  1.2089 -0.4507
 9181TIP3   OH227506   5.909   5.275   4.523  0.0495 -0.2198  0.2130
 9181TIP3    H127507   5.995   5.278   4.565 -0.5389 -0.0172  1.4549
 9181TIP3    H227508   5.848   5.262   4.596 -1.0996  1.1008 -0.4782
 9182TIP3   OH227509   5.937   6.470   2.686 -0.4574 -0.6366  0.3787
 9182TIP3    H127510   5.914   6.382   2.715 -3.1662  0.2203  1.0954
 9182TIP3    H227511   5.856   6.519   2.692  0.7101  1.6396 -1.1564
 9183TIP3   OH227512   4.354   3.118   2.273 -0.3947  0.4525 -0.0174
 9183TIP3    H127513   4.375   3.205   2.239  0.4170  0.5779  0.7630
 9183TIP3    H227514   4.326   3.068   2.196 -0.6633  1.3398 -0.5062
 9184TIP3   OH227515   7.095   4.526   1.522 -0.0090  0.0738  0.7804
 9184TIP3    H127516   7.128   4.612   1.496 -2.6240  1.1835  0.7724
 9184TIP3    H227517   7.053   4.492   1.442 -0.3665 -0.4891  1.2016
 9185TIP3   OH227518   4.904   6.496   2.953  0.5273  0.5024 -0.0220
 9185TIP3    H127519   4.992   6.510   2.919  0.7970  0.0360  0.4741
 9185TIP3    H227520   4.908   6.412   2.998 -0.7520 -0.6959 -1.9601
 9186TIP3   OH227521   1.769   5.016   2.955 -0.1030 -0.4026 -0.0688
 9186TIP3    H127522   1.734   5.105   2.960  0.2696 -0.1521 -1.5430
 9186TIP3    H227523   1.744   4.985   2.868 -1.1431 -2.1576  0.7969
 9187TIP3   OH227524   5.974   1.214   5.299  0.3167  0.3642 -0.3089
 9187TIP3    H127525   5.900   1.274   5.313  0.2313  0.2864 -0.4326
 9187TIP3    H227526   6.035   1.236   5.370  1.2599  2.0927 -1.5598
 9188TIP3   OH227527   3.405   6.753   3.412 -0.6843 -0.2864  0.5182
 9188TIP3    H127528   3.447   6.816   3.354 -1.1376 -0.7545 -0.3490
 9188TIP3    H227529   3.316   6.786   3.423 -0.4008  0.1664  1.5226
 9189TIP3   OH227530   6.692   4.577   0.220  0.1644 -0.4487  0.1660
 9189TIP3    H127531   6.763   4.642   0.211 -1.2223  1.1195  0.0196
 9189TIP3    H227532   6.734   4.501   0.259  1.4073  1.4238  2.7490
 9190TIP3   OH227533   3.723   3.730   1.025  0.2016 -0.4668 -0.0115
 9190TIP3    H127534   3.775   3.713   1.104  1.3520  0.3599 -0.5535
 9190TIP3    H227535   3.724   3.647   0.977  1.7092 -0.2637 -0.3775
 9191TIP3   OH227536   3.628   4.107   3.195  0.6220  0.2402  0.1600
 9191TIP3    H127537   3.540   4.101   3.233  0.2570 -0.4104 -0.7188
 9191TIP3    H227538   3.680   4.045   3.245  0.1979 -0.4649 -0.2526
 9192TIP3   OH227539   5.996   2.203   0.878  0.2540 -0.1160  0.2474
 9192TIP3    H127540   5.921   2.205   0.818 -0.3513  0.5653  0.9944
 9192TIP3    H227541   6.041   2.286   0.862  1.5805 -1.0373 -1.0567
 9193TIP3   OH227542   3.074   4.713   2.125  0.0678  0.0099  0.0820
 9193TIP3    H127543   3.065   4.767   2.202 -1.1100  0.4639 -0.3504
 9193TIP3    H227544   3.032   4.630   2.148  1.0656 -0.4167  0.4316
 9194TIP3   OH227545   6.264   2.745   2.742 -0.1770  0.1029  0.0744
 9194TIP3    H127546   6.216   2.701   2.812 -0.2621 -1.0062 -0.6631
 9194TIP3    H227547   6.201   2.807   2.705  0.0110  1.0481  1.2597
 9195TIP3   OH227548   5.263   1.486   0.223  0.0427 -0.6572  0.2722
 9195TIP3    H127549   5.236   1.460   0.135  0.0688 -2.6595  0.8032
 9195TIP3    H227550   5.195   1.546   0.253 -1.5398 -2.2237 -0.0497
 9196TIP3   OH227551   0.332   0.607   2.897 -0.3478 -0.2485  0.2653
 9196TIP3    H127552   0.420   0.644   2.906  0.0640 -0.9595 -0.6242
 9196TIP3    H227553   0.283   0.674   2.847 -0.3922  0.2473  0.9567
 9197TIP3   OH227554   1.567   2.476   3.589 -0.3565  0.6831 -0.2074
 9197TIP3    H127555   1.500   2.542   3.568  0.7532  1.6387 -0.8498
 9197TIP3    H227556   1.585   2.489   3.682 -1.4201  0.0699  0.0979
 9198TIP3   OH227557   4.416   6.343   2.449 -0.0251  0.2409 -0.4557
 9198TIP3    H127558   4.367   6.379   2.523 -0.3556  2.0314 -1.4930
 9198TIP3    H227559   4.498   6.312   2.487 -0.4246  0.6028  0.7449
 9199TIP3   OH227560   6.754   4.939   1.841  0.0909 -0.3118  0.3202
 9199TIP3    H127561   6.690   4.919   1.909 -0.0994 -0.1265  0.1932
 9199TIP3    H227562   6.703   4.958   1.763  0.2441  1.0653  0.5270
 9200TIP3   OH227563   6.998   0.773   2.233 -0.2488  0.2200  0.3784
 9200TIP3    H127564   7.089   0.789   2.258  0.1264  0.2681 -0.9357
 9200TIP3    H227565   6.975   0.692   2.280  1.1846 -0.9892 -0.8999
 9201TIP3   OH227566   0.851   3.046   3.832  0.0931 -0.6537 -0.5447
 9201TIP3    H127567   0.835   3.139   3.818  1.1239 -0.5320 -1.0886
 9201TIP3    H227568   0.906   3.020   3.757  1.0694 -1.3453  0.3812
 9202TIP3   OH227569   5.280   2.185   3.655 -0.7117  0.1951  0.0984
 9202TIP3    H127570   5.281   2.168   3.561 -1.6627  0.8655 -0.0482
 9202TIP3    H227571   5.371   2.206   3.676 -0.3292 -0.7611 -0.5040
 9203TIP3   OH227572   5.304   5.951   1.396  0.3627 -0.4637  0.4211
 9203TIP3    H127573   5.278   5.913   1.312  0.7071 -0.3217  0.2478
 9203TIP3    H227574   5.257   6.035   1.400  0.1856 -0.5630  0.4668
 9204TIP3   OH227575   5.961   4.985   3.910 -0.5966  0.0494 -0.1411
 9204TIP3    H127576   5.984   4.893   3.917  0.3459  0.1846 -1.1564
 9204TIP3    H227577   5.993   5.012   3.824  0.0377  1.5705  0.5316
 9205TIP3   OH227578   6.230   4.875   3.226  0.2945  0.1285  0.3450
 9205TIP3    H127579   6.163   4.855   3.161  1.9454 -0.4804 -1.2470
 9205TIP3    H227580   6.271   4.956   3.194  0.7932  0.1044  0.9071
 9206TIP3   OH227581   1.909   5.053   0.584 -0.1253 -0.1533 -0.5121
 9206TIP3    H127582   1.977   5.050   0.651 -0.9921 -1.5088  0.3489
 9206TIP3    H227583   1.848   5.120   0.614 -0.0461 -0.1213 -0.4235
 9207TIP3   OH227584   1.607   5.755   0.263  0.0941 -0.0317 -0.2099
 9207TIP3    H127585   1.518   5.726   0.247 -0.1038  0.6038 -0.2903
 9207TIP3    H227586   1.661   5.677   0.251 -0.6102 -0.8155  1.5242
 9208TIP3   OH227587   3.336   3.397   5.231  0.2137 -0.2881 -0.2108
 9208TIP3    H127588   3.368   3.363   5.315 -0.1374 -0.3786 -0.1122
 9208TIP3    H227589   3.400   3.366   5.167  0.0959 -0.8358 -0.0706
 9209TIP3   OH227590   3.771   2.520   4.834  0.2621  0.2838 -0.5570
 9209TIP3    H127591   3.678   2.523   4.857 -0.1169 -1.0409 -1.7577
 9209TIP3    H227592   3.802   2.436   4.869  0.5169 -0.1531 -1.7842
 9210TIP3   OH227593   5.953   3.284   0.567 -0.7121 -0.4279  1.1853
 9210TIP3    H127594   5.887   3.353   0.577 -1.2269 -0.8244  0.5783
 9210TIP3    H227595   6.034   3.324   0.599 -1.2032  0.1262  1.7751
 9211TIP3   OH227596   1.146   2.907   1.781 -0.0237  0.2450 -0.6341
 9211TIP3    H127597   1.189   2.992   1.773 -0.0498  0.3299  0.0699
 9211TIP3    H227598   1.073   2.922   1.841 -1.2392  0.1678 -2.0241
 9212TIP3   OH227599   7.169   6.759   0.200 -0.3798 -0.0489 -0.3539
 9212TIP3    H127600   7.089   6.708   0.189  0.0582 -0.5575 -1.3981
 9212TIP3    H227601   7.155   6.839   0.150 -0.1192 -0.2828 -0.8052
 9213TIP3   OH227602   6.612   6.617   0.335 -0.7259  0.0495 -0.6090
 9213TIP3    H127603   6.524   6.634   0.370  0.9701  2.8937  3.1236
 9213TIP3    H227604   6.639   6.701   0.298  1.1346 -0.0626  0.3767
 9214TIP3   OH227605   2.390   3.575   3.341  0.0702 -0.3848 -0.4932
 9214TIP3    H127606   2.315   3.624   3.308  0.4465  0.5210 -0.0383
 9214TIP3    H227607   2.466   3.617   3.300  0.4994  0.3704  1.0323
 9215TIP3   OH227608   3.036   4.999   3.805 -0.6089  0.6459 -0.2660
 9215TIP3    H127609   3.125   4.973   3.827 -0.3847  2.4626  1.2201
 9215TIP3    H227610   3.041   5.094   3.791 -1.9778  0.5155 -2.0396
 9216TIP3   OH227611   3.377   3.744   2.028 -1.0124 -0.3105  0.0541
 9216TIP3    H127612   3.448   3.749   2.092 -0.1444 -2.0925 -0.6886
 9216TIP3    H227613   3.318   3.677   2.063 -1.4105 -0.0947 -0.1996
 9217TIP3   OH227614   1.475   4.088   5.498  0.1767  0.6061 -0.8011
 9217TIP3    H127615   1.464   3.997   5.526  0.6532 -0.5532 -3.9384
 9217TIP3    H227616   1.554   4.118   5.544 -1.2370  0.3058  2.0329
 9218TIP3   OH227617   1.116   2.083   5.141  0.2373 -0.6008 -0.0162
 9218TIP3    H127618   1.026   2.108   5.119  0.9134 -0.0082 -2.4070
 9218TIP3    H227619   1.158   2.164   5.168  0.1164 -0.8643  1.0209
 9219TIP3   OH227620   4.098   2.525   2.669  0.5978  0.2396  0.0591
 9219TIP3    H127621   4.124   2.563   2.753  0.1165 -1.1966  0.8901
 9219TIP3    H227622   4.015   2.481   2.686  1.0610 -1.0707 -0.8644
 9220TIP3   OH227623   2.972   0.671   4.137  0.1449  0.0532 -0.1010
 9220TIP3    H127624   2.921   0.601   4.177  2.1568 -0.6563  1.3440
 9220TIP3    H227625   2.940   0.751   4.179 -0.8680 -0.1738 -0.4070
 9221TIP3   OH227626   3.263   4.190   2.931  0.0907 -0.2181  0.0013
 9221TIP3    H127627   3.194   4.127   2.913 -1.3422  1.2704  0.0462
 9221TIP3    H227628   3.259   4.205   3.025  0.0496  0.3412 -0.0853
 9222TIP3   OH227629   2.317   0.498   3.736 -0.0655  0.2797  0.0625
 9222TIP3    H127630   2.393   0.516   3.792  0.3839  1.6450 -0.9265
 9222TIP3    H227631   2.353   0.494   3.647 -1.3250  2.9433 -0.6849
 9223TIP3   OH227632   4.575   6.080   1.373 -0.6738  0.1599  0.1838
 9223TIP3    H127633   4.515   6.146   1.408 -1.9250 -1.5121  1.3535
 9223TIP3    H227634   4.581   6.014   1.442 -0.2678 -1.4483 -1.3117
 9224TIP3   OH227635   2.482   1.087   2.106  0.2892 -0.0408  0.1078
 9224TIP3    H127636   2.451   1.163   2.155  1.3597  0.1296  0.5707
 9224TIP3    H227637   2.410   1.025   2.110 -0.1090  0.4453  0.8630
 9225TIP3   OH227638   1.426   4.117   4.924  0.6820  0.4448  0.0609
 9225TIP3    H127639   1.456   4.142   4.836  1.9744  0.4791  0.5006
 9225TIP3    H227640   1.495   4.059   4.957  0.3993  0.7601  1.2196
 9226TIP3   OH227641   6.998   0.314   3.793 -0.0372  0.1960 -0.4451
 9226TIP3    H127642   7.003   0.407   3.773 -2.4386  0.1664 -1.5232
 9226TIP3    H227643   7.079   0.277   3.757  1.1682  1.8829  0.4050
 9227TIP3   OH227644   0.636   2.077   1.552  0.2080 -0.1094  0.3390
 9227TIP3    H127645   0.715   2.033   1.582  0.8766  1.4977  1.0690
 9227TIP3    H227646   0.566   2.044   1.608  0.8093  0.2178  1.2995
 9228TIP3   OH227647   5.414   0.131   0.338 -0.2003  0.0596 -0.5667
 9228TIP3    H127648   5.346   0.101   0.278  1.9952 -1.7594 -2.3200
 9228TIP3    H227649   5.422   0.224   0.320 -1.9685  0.2709 -0.5066
 9229TIP3   OH227650   1.410   3.886   1.014 -0.0261  0.3884 -0.1509
 9229TIP3    H127651   1.435   3.823   0.946  0.3515 -0.6201  0.8915
 9229TIP3    H227652   1.322   3.859   1.040 -0.9570  1.9467 -1.5460
 9230TIP3   OH227653   7.140   2.082   3.814 -0.2828 -0.2286 -0.2298
 9230TIP3    H127654   7.084   2.150   3.849  1.5273  0.2402  1.9959
 9230TIP3    H227655   7.181   2.042   3.891  1.7757 -1.0950 -1.6686
 9231TIP3   OH227656   3.536   5.161   3.082 -0.4046 -0.0290  0.1385
 9231TIP3    H127657   3.489   5.140   3.163 -2.1563  0.8075 -0.5875
 9231TIP3    H227658   3.533   5.257   3.077 -0.4029 -0.0749 -0.9460
 9232TIP3   OH227659   0.398   4.122   4.287  0.4461 -0.2310  0.1190
 9232TIP3    H127660   0.393   4.050   4.225  1.2145  0.0457 -0.2739
 9232TIP3    H227661   0.464   4.095   4.351  0.5001 -0.0162  0.1569
 9233TIP3   OH227662   3.048   0.983   0.636 -0.1941 -0.1465  0.1103
 9233TIP3    H127663   3.141   1.005   0.643  0.0882 -1.6926  2.3247
 9233TIP3    H227664   3.003   1.067   0.646  0.9154  0.6717 -1.3080
 9234TIP3   OH227665   4.733   1.180   0.392  0.3950 -0.3550 -0.5149
 9234TIP3    H127666   4.774   1.161   0.308 -0.4345  0.5374 -1.1394
 9234TIP3    H227667   4.805   1.211   0.448  0.9227 -0.8233 -0.9195
 9235TIP3   OH227668   3.938   1.101   0.952 -0.0850  0.1073 -0.2893
 9235TIP3    H127669   4.026   1.107   0.990 -0.1833 -0.8033  0.1039
 9235TIP3    H227670   3.948   1.139   0.864  0.5665  0.5290 -0.0485
 9236TIP3   OH227671   0.244   5.522   3.855  0.4509  0.2998 -0.5130
 9236TIP3    H127672   0.263   5.460   3.926  0.3866  0.8234 -0.0315
 9236TIP3    H227673   0.306   5.594   3.869  0.7380  0.2022 -1.2553
 9237TIP3   OH227674   5.862   4.916   1.595 -0.5857 -0.2883  0.3623
 9237TIP3    H127675   5.877   4.957   1.510 -1.6029 -0.5209  0.0542
 9237TIP3    H227676   5.887   4.983   1.659  0.0391 -0.0571 -0.1144
 9238TIP3   OH227677   7.038   1.100   5.597 -0.2261 -0.2274  0.7604
 9238TIP3    H127678   7.061   1.192   5.583 -0.2393 -0.1085  1.4867
 9238TIP3    H227679   7.008   1.097   5.688 -1.2686 -0.7356  0.4167
 9239TIP3   OH227680   2.215   5.818   0.482  0.0703 -0.8744  0.0749
 9239TIP3    H127681   2.145   5.834   0.545  0.5398  0.4195  0.3095
 9239TIP3    H227682   2.185   5.744   0.431 -1.3301 -0.5432  0.3733
 9240TIP3   OH227683   3.803   4.582   4.759 -0.3437 -0.7985 -0.2146
 9240TIP3    H127684   3.734   4.519   4.739  0.8752 -2.1212 -0.3970
 9240TIP3    H227685   3.759   4.667   4.754 -2.2660 -1.6451  1.0605
 9241TIP3   OH227686   2.462   0.728   4.206  0.5192 -0.0270 -0.6375
 9241TIP3    H127687   2.445   0.729   4.300 -1.5840 -1.4876 -0.9329
 9241TIP3    H227688   2.508   0.810   4.189 -2.0957  2.0108  1.1886
 9242TIP3   OH227689   2.616   3.977   3.086 -0.0331  0.3139 -0.5206
 9242TIP3    H127690   2.707   4.007   3.094 -0.7029  2.2229  1.1820
 9242TIP3    H227691   2.584   4.019   3.006  0.4414  0.0873 -0.8303
 9243TIP3   OH227692   2.084   3.245   2.774  0.4127 -0.1383 -0.6539
 9243TIP3    H127693   2.137   3.194   2.712  1.7082  1.3607 -0.8426
 9243TIP3    H227694   2.148   3.285   2.833 -0.4760  1.7842 -0.9227
 9244TIP3   OH227695   0.027   5.624   4.024 -0.7574  0.1759  0.5084
 9244TIP3    H127696   0.067   5.635   4.110 -1.1539  0.0606  0.7106
 9244TIP3    H227697   0.093   5.656   3.962  0.7505 -2.4567  0.6209
 9245TIP3   OH227698   0.807   5.168   1.132  0.0369 -0.1561  0.3754
 9245TIP3    H127699   0.859   5.133   1.060  0.4816 -0.0995  0.6682
 9245TIP3    H227700   0.858   5.150   1.210 -0.1821  0.2860  0.6242
 9246TIP3   OH227701   6.046   0.920   0.637 -0.1010 -0.2703  0.0416
 9246TIP3    H127702   6.094   0.899   0.717  0.9152  0.0414 -0.4753
 9246TIP3    H227703   6.049   1.015   0.631 -0.4691 -0.2709 -0.1843
 9247TIP3   OH227704   0.524   5.211   1.494  0.2629 -0.0207 -0.2331
 9247TIP3    H127705   0.428   5.211   1.498  0.2767  0.9200  0.4221
 9247TIP3    H227706   0.544   5.218   1.400 -0.2612 -2.4290 -0.6049
 9248TIP3   OH227707   2.620   5.465   2.413 -0.3011 -0.2705 -0.1055
 9248TIP3    H127708   2.620   5.550   2.456 -2.6616 -0.1671 -0.2200
 9248TIP3    H227709   2.679   5.411   2.465 -2.3471  0.1060  2.8023
 9249TIP3   OH227710   1.756   1.158   3.611  0.4692  0.3256  0.3805
 9249TIP3    H127711   1.695   1.222   3.573  1.9362  1.3952 -0.2892
 9249TIP3    H227712   1.737   1.076   3.564  0.1810  0.8757 -0.4893
 9250TIP3   OH227713   2.177   1.965   2.760  0.5058  0.4626 -0.5272
 9250TIP3    H127714   2.121   2.039   2.738  0.0995  0.1413 -0.5736
 9250TIP3    H227715   2.152   1.896   2.699 -0.6943 -0.4686  0.9537
 9251TIP3   OH227716   5.659   1.427   2.020 -0.0260  0.1834 -0.2960
 9251TIP3    H127717   5.730   1.395   1.964  0.6037  0.6867  0.1892
 9251TIP3    H227718   5.681   1.394   2.107  0.1428  1.1373  0.0366
 9252TIP3   OH227719   6.054   1.727   0.982  0.0844  0.1212 -0.3356
 9252TIP3    H127720   6.073   1.659   0.917  0.6138 -0.0947  0.0388
 9252TIP3    H227721   6.134   1.780   0.985  0.1471  0.0002  0.2900
 9253TIP3   OH227722   3.284   4.928   2.531  0.2410  0.2169  0.3328
 9253TIP3    H127723   3.287   4.932   2.435  2.8273 -1.8087  0.1921
 9253TIP3    H227724   3.344   4.996   2.560  1.6654 -0.9718  0.3143
 9254TIP3   OH227725   6.001   1.215   3.969  0.1326  0.4335  0.2883
 9254TIP3    H127726   6.078   1.158   3.976 -0.4200 -0.4353 -0.4784
 9254TIP3    H227727   6.033   1.293   3.924  0.2910 -0.4930 -1.2545
 9255TIP3   OH227728   5.089   3.253   3.509  0.4289  0.3749  0.6236
 9255TIP3    H127729   5.024   3.214   3.567  0.5289  0.9393  1.1204
 9255TIP3    H227730   5.163   3.192   3.512 -0.2123 -0.4782 -0.2587
 9256TIP3   OH227731   0.743   1.419   5.302 -0.2339  0.4551  0.4753
 9256TIP3    H127732   0.783   1.352   5.245 -0.0328  2.8662 -2.4581
 9256TIP3    H227733   0.654   1.386   5.318 -0.2901 -0.3530 -1.2444
 9257TIP3   OH227734   0.820   0.268   4.392  0.2349  0.3909 -0.0932
 9257TIP3    H127735   0.775   0.185   4.405 -1.6683  1.5919  1.3716
 9257TIP3    H227736   0.845   0.267   4.299 -4.9326  0.5728 -1.8038
 9258TIP3   OH227737   2.772   2.574   1.806 -0.7305 -0.3062  0.0821
 9258TIP3    H127738   2.852   2.553   1.758  0.7842 -0.2133  2.4558
 9258TIP3    H227739   2.779   2.667   1.827 -0.8050 -0.5957  1.4562
 9259TIP3   OH227740   4.248   1.996   3.830  0.2484  0.3771  0.3613
 9259TIP3    H127741   4.252   1.945   3.910 -0.6354 -0.9170 -0.3809
 9259TIP3    H227742   4.311   1.953   3.771 -0.7350 -0.0944 -0.3770
 9260TIP3   OH227743   5.916   6.363   5.081 -0.9141  0.1685  0.2522
 9260TIP3    H127744   5.909   6.292   5.017 -0.5914  0.5943 -0.2732
 9260TIP3    H227745   5.836   6.414   5.069 -1.0084  0.0572  0.4184
 9261TIP3   OH227746   5.530   4.885   2.248  0.1689 -0.6720 -0.2213
 9261TIP3    H127747   5.477   4.812   2.217 -0.4944 -0.7449  0.9925
 9261TIP3    H227748   5.476   4.962   2.232  0.6540 -0.4935 -1.0356
 9262TIP3   OH227749   3.184   6.742   0.885 -0.0378 -0.3066  0.0354
 9262TIP3    H127750   3.124   6.677   0.847 -0.5888 -0.5654  1.3057
 9262TIP3    H227751   3.132   6.822   0.891  0.5845  0.2356 -1.3514
 9263TIP3   OH227752   5.039   4.018   1.395  0.0284  0.6298  0.4514
 9263TIP3    H127753   4.955   3.976   1.412  0.1934  0.6048  1.2377
 9263TIP3    H227754   5.027   4.062   1.310  0.0795 -1.5581 -0.7602
 9264TIP3   OH227755   3.677   5.518   5.053 -0.0487  0.6209 -0.4801
 9264TIP3    H127756   3.760   5.497   5.096 -0.5166  0.7562  0.5292
 9264TIP3    H227757   3.623   5.556   5.122 -1.2217 -0.1598 -0.9206
 9265TIP3   OH227758   1.100   1.462   1.842 -0.2266  0.2336  0.2500
 9265TIP3    H127759   1.023   1.464   1.900 -0.1992 -0.6932  0.3338
 9265TIP3    H227760   1.172   1.494   1.896 -0.6658  1.7122 -0.0175
 9266TIP3   OH227761   4.906   5.974   2.822  0.1732 -0.5245 -0.2874
 9266TIP3    H127762   4.904   5.975   2.726 -0.8224  0.9983 -0.2843
 9266TIP3    H227763   4.843   6.042   2.848  0.4790 -0.8627  1.4456
 9267TIP3   OH227764   5.447   3.346   4.718  0.0736  0.2993  0.6059
 9267TIP3    H127765   5.487   3.283   4.779 -0.3577 -3.2579 -2.4421
 9267TIP3    H227766   5.520   3.379   4.667 -0.0245 -0.3946 -0.0030
 9268TIP3   OH227767   0.607   5.146   1.971 -0.0427 -0.3893 -0.1059
 9268TIP3    H127768   0.532   5.194   1.935  0.0886 -1.5990 -2.1360
 9268TIP3    H227769   0.571   5.062   1.999  0.1752 -0.1004  1.1038
 9269TIP3   OH227770   2.783   1.558   3.547 -0.0066  0.0031  0.5428
 9269TIP3    H127771   2.739   1.589   3.468  0.5962  0.1657  0.2592
 9269TIP3    H227772   2.807   1.638   3.594 -1.4065 -0.1105  1.4937
 9270TIP3   OH227773   0.811   1.244   5.818 -0.0941 -0.1860  0.4812
 9270TIP3    H127774   0.873   1.252   5.745  0.6716  1.1547  1.2370
 9270TIP3    H227775   0.784   1.152   5.817  0.5802 -0.3922 -0.9311
 9271TIP3   OH227776   0.825   3.722   0.996 -0.4320  0.0950 -0.2465
 9271TIP3    H127777   0.897   3.724   0.934 -1.0649  0.0191 -1.0048
 9271TIP3    H227778   0.793   3.812   0.999 -0.7283 -0.0007 -0.4299
 9272TIP3   OH227779   5.924   1.622   1.854 -0.1827 -0.3627  0.1090
 9272TIP3    H127780   5.851   1.638   1.795  0.5396 -2.0251 -1.3164
 9272TIP3    H227781   5.964   1.541   1.822  0.6497 -0.9805  2.4936
 9273TIP3   OH227782   3.071   2.093   3.670 -0.1012  0.3925  0.0801
 9273TIP3    H127783   3.126   2.100   3.592  0.2848 -0.5871  0.2426
 9273TIP3    H227784   2.992   2.142   3.649  0.9741  2.1896 -0.0177
 9274TIP3   OH227785   6.227   2.074   0.810 -0.0847  0.1659  0.2574
 9274TIP3    H127786   6.218   2.091   0.717  0.4251  0.6612  0.2977
 9274TIP3    H227787   6.145   2.108   0.848  0.4214  1.5259  0.1937
 9275TIP3   OH227788   0.284   2.424   2.906 -0.0883 -0.8475 -0.5605
 9275TIP3    H127789   0.205   2.445   2.956  1.0846  0.8877  0.6876
 9275TIP3    H227790   0.355   2.434   2.969  1.3416  0.1052 -2.2389
 9276TIP3   OH227791   1.469   6.769   5.644 -0.1368 -0.0281  0.2202
 9276TIP3    H127792   1.400   6.723   5.692 -0.0478 -0.8847 -0.4356
 9276TIP3    H227793   1.551   6.729   5.675 -0.0110  0.2044  0.1859
 9277TIP3   OH227794   2.954   1.575   3.882  0.2353 -0.2573  0.6364
 9277TIP3    H127795   3.019   1.565   3.813 -1.9246 -1.2941 -1.4097
 9277TIP3    H227796   2.914   1.488   3.891 -1.4096  0.4989  1.1621
 9278TIP3   OH227797   3.237   4.886   1.930  0.0477 -0.5991 -0.5002
 9278TIP3    H127798   3.189   4.858   1.852 -1.6245 -0.3383  0.3973
 9278TIP3    H227799   3.232   4.811   1.989  0.4281 -0.4239 -0.2429
 9279TIP3   OH227800   2.988   1.728   2.753  0.0820  0.3117  0.2790
 9279TIP3    H127801   2.985   1.700   2.844 -1.2968  1.2933  0.5750
 9279TIP3    H227802   2.935   1.808   2.751  1.4777  1.2622 -1.0592
 9280TIP3   OH227803   2.298   4.048   1.726  0.2526  0.2803  0.4043
 9280TIP3    H127804   2.231   4.035   1.659 -1.5706  0.0809  2.1957
 9280TIP3    H227805   2.362   3.978   1.709 -0.9064 -0.6586 -0.2571
 9281TIP3   OH227806   6.848   6.153   5.519  0.4298  0.2547  0.2380
 9281TIP3    H127807   6.873   6.140   5.610 -0.3378 -1.0650  0.2914
 9281TIP3    H227808   6.810   6.069   5.493 -0.0107  0.8423 -1.0814
 9282TIP3   OH227809   3.372   4.217   4.483  0.1568  0.2090  0.5076
 9282TIP3    H127810   3.453   4.254   4.447 -0.2759 -0.0424 -0.7613
 9282TIP3    H227811   3.326   4.291   4.521 -0.4365  0.9525 -1.5117
 9283TIP3   OH227812   0.744   5.119   5.484 -0.5907  0.1207 -0.5876
 9283TIP3    H127813   0.757   5.060   5.410 -0.7096 -0.3386 -0.2498
 9283TIP3    H227814   0.714   5.201   5.445 -4.2849 -1.1586 -0.8767
 9284TIP3   OH227815   7.009   2.077   4.114 -0.4931  0.0688 -0.9603
 9284TIP3    H127816   7.011   1.986   4.083 -2.7411 -0.7759  1.0521
 9284TIP3    H227817   7.031   2.070   4.207  1.9234  1.9866 -1.2839
 9285TIP3   OH227818   5.030   3.813   4.540 -0.1396 -0.4262 -0.0647
 9285TIP3    H127819   5.024   3.892   4.486  0.1511 -1.1667 -1.2014
 9285TIP3    H227820   5.098   3.834   4.604  0.7535 -0.1511 -1.0746
 9286TIP3   OH227821   0.557   6.530   3.436  0.1138  0.8241 -0.4670
 9286TIP3    H127822   0.604   6.447   3.424 -0.9039  0.2234 -0.4440
 9286TIP3    H227823   0.550   6.540   3.531 -0.6212  0.4167 -0.4683
 9287TIP3   OH227824   0.422   5.280   1.793 -0.3365  0.2167 -0.2541
 9287TIP3    H127825   0.497   5.330   1.762  1.3958 -0.1565  2.8747
 9287TIP3    H227826   0.346   5.335   1.773  1.1396  2.3987 -0.1887
 9288TIP3   OH227827   3.944   3.870   2.130 -0.2446 -0.1446 -0.2229
 9288TIP3    H127828   3.927   3.932   2.060 -0.6859  0.0470  0.0454
 9288TIP3    H227829   3.908   3.912   2.208  0.2113 -0.3671  0.1122
 9289TIP3   OH227830   2.810   6.727   2.111  0.2963 -0.0948 -0.1369
 9289TIP3    H127831   2.789   6.748   2.020  2.0829  0.2088 -0.5109
 9289TIP3    H227832   2.900   6.758   2.123  0.2586 -0.5576  1.5989
 9290TIP3   OH227833   5.561   5.705   4.587  0.2149 -0.1397  0.0173
 9290TIP3    H127834   5.624   5.705   4.515  0.7716  0.3203  0.4974
 9290TIP3    H227835   5.530   5.615   4.592 -0.3992 -0.0107 -1.2934
 9291TIP3   OH227836   3.070   5.977   2.205 -0.0742 -0.9556  0.9936
 9291TIP3    H127837   3.122   5.944   2.131 -1.0755 -0.6609  0.1296
 9291TIP3    H227838   3.117   6.056   2.233  0.1851 -0.9280  0.5032
 9292TIP3   OH227839   2.729   3.174   1.930 -0.2417 -0.4013 -0.0306
 9292TIP3    H127840   2.709   3.247   1.871  0.3196 -0.2972 -0.0917
 9292TIP3    H227841   2.701   3.096   1.881  1.7505 -0.4701 -1.1635
 9293TIP3   OH227842   0.935   4.636   3.798  0.3639  0.0094 -0.3572
 9293TIP3    H127843   0.860   4.577   3.788  1.3940 -1.4557  0.2115
 9293TIP3    H227844   0.958   4.661   3.708  0.3181 -1.0244 -0.6765
 9294TIP3   OH227845   3.012   4.845   0.290  0.7633  0.3441 -0.3273
 9294TIP3    H127846   2.927   4.887   0.283  1.2518  1.6097  0.7933
 9294TIP3    H227847   3.054   4.860   0.205 -0.0371 -0.0939 -0.8043
 9295TIP3   OH227848   6.129   0.265   3.208 -0.3705  0.6237  0.2469
 9295TIP3    H127849   6.086   0.286   3.291  0.7820  1.2956  0.6813
 9295TIP3    H227850   6.182   0.342   3.187  0.5725 -0.1529 -0.3158
 9296TIP3   OH227851   3.138   4.151   3.642  0.2422 -0.3215  0.3419
 9296TIP3    H127852   3.110   4.103   3.565 -0.3991  0.2097  0.2404
 9296TIP3    H227853   3.226   4.117   3.660  0.0456 -1.0822 -0.0860
 9297TIP3   OH227854   6.885   2.747   5.596  0.1133  0.0509  0.3859
 9297TIP3    H127855   6.808   2.691   5.601  0.4448 -0.6104 -1.3256
 9297TIP3    H227856   6.905   2.768   5.688 -0.3629 -2.1718  1.0533
 9298TIP3   OH227857   4.982   1.167   0.770  0.5244  0.0952 -0.6435
 9298TIP3    H127858   4.994   1.185   0.863  0.0469 -0.1517 -0.5278
 9298TIP3    H227859   5.061   1.201   0.728  0.9280 -0.1589 -0.1019
 9299TIP3   OH227860   4.086   3.360   2.305 -0.1462 -0.1581 -1.0891
 9299TIP3    H127861   4.086   3.335   2.398 -0.1100 -1.0078 -1.3067
 9299TIP3    H227862   4.028   3.435   2.301 -1.3612 -1.0323 -0.6065
 9300TIP3   OH227863   7.158   6.103   2.180  0.3491 -0.1472  0.3169
 9300TIP3    H127864   7.244   6.126   2.213 -0.3297  1.4008  1.1177
 9300TIP3    H227865   7.157   6.136   2.090  0.6362 -0.2626  0.2730
 9301TIP3   OH227866   7.053   4.948   3.458 -0.0625  0.3624 -0.2467
 9301TIP3    H127867   7.143   4.916   3.461 -0.1823 -0.1742 -1.7310
 9301TIP3    H227868   7.006   4.883   3.406 -1.1749  0.9820 -0.0529
 9302TIP3   OH227869   0.722   1.885   3.151  0.2459  0.0386 -0.3350
 9302TIP3    H127870   0.648   1.831   3.177  0.5569 -0.5947 -0.7534
 9302TIP3    H227871   0.780   1.826   3.102  1.7082  0.1533  1.1611
 9303TIP3   OH227872   4.877   3.506   3.955 -0.1328 -0.0463 -0.6383
 9303TIP3    H127873   4.900   3.589   3.914  0.1088 -0.4803 -1.3957
 9303TIP3    H227874   4.925   3.506   4.038 -0.9801  1.0308 -0.1214
 9304TIP3   OH227875   3.530   4.789   1.765 -0.0869 -0.4213 -0.3616
 9304TIP3    H127876   3.478   4.791   1.684 -2.0072 -3.1782  0.6288
 9304TIP3    H227877   3.617   4.761   1.736  0.1973  1.7036 -1.7651
 9305TIP3   OH227878   5.209   2.778   3.020  0.1522  0.2902  0.0739
 9305TIP3    H127879   5.251   2.811   3.099  0.5310  0.6665 -0.2804
 9305TIP3    H227880   5.158   2.702   3.050 -0.4980  1.0100  0.8415
 9306TIP3   OH227881   6.088   1.998   5.600 -0.2440  0.5973  0.7791
 9306TIP3    H127882   6.103   2.087   5.569  1.3090  0.1584  0.1542
 9306TIP3    H227883   6.071   1.948   5.520  1.4847 -0.1115  0.8091
 9307TIP3   OH227884   5.791   3.827   4.299 -0.2374  0.6868  0.6360
 9307TIP3    H127885   5.777   3.754   4.239 -0.9208 -0.1872  1.8356
 9307TIP3    H227886   5.887   3.836   4.304 -0.1451  1.7074 -1.6391
 9308TIP3   OH227887   1.308   5.411   2.993 -0.3553 -0.4845 -0.3120
 9308TIP3    H127888   1.368   5.359   3.047 -0.0902 -0.2443 -0.3698
 9308TIP3    H227889   1.257   5.346   2.944 -1.3689 -0.7439  1.0305
 9309TIP3   OH227890   1.474   2.612   4.811  0.2828 -0.1017  0.0234
 9309TIP3    H127891   1.402   2.646   4.864 -0.0895 -1.6927  0.6056
 9309TIP3    H227892   1.495   2.527   4.850  1.9057 -0.0630 -0.6728
 9310TIP3   OH227893   6.648   2.749   4.337  0.1583 -0.7277 -0.1661
 9310TIP3    H127894   6.704   2.672   4.326  0.0452 -0.7921 -0.3012
 9310TIP3    H227895   6.598   2.732   4.416  1.4072  0.0043  0.8159
 9311TIP3   OH227896   2.409   4.191   5.118  0.1113 -0.1994 -0.9479
 9311TIP3    H127897   2.323   4.163   5.086 -0.0229 -0.1630 -0.6181
 9311TIP3    H227898   2.404   4.286   5.119  0.2612 -0.1873 -1.2169
 9312TIP3   OH227899   5.909   5.317   0.032  0.0601 -0.4690  0.2417
 9312TIP3    H127900   5.881   5.258  -0.038  0.6876  1.0629 -1.3723
 9312TIP3    H227901   6.004   5.323   0.021 -0.0369  1.1494  0.0800
 9313TIP3   OH227902   0.187   5.496   5.307  0.0867 -0.3921 -0.3726
 9313TIP3    H127903   0.218   5.544   5.230  0.9034  0.5959  0.5359
 9313TIP3    H227904   0.265   5.453   5.341 -0.1787 -0.4599  0.1548
 9314TIP3   OH227905   1.540   6.593   5.210  0.5113 -0.1034  0.5065
 9314TIP3    H127906   1.562   6.564   5.122  3.2563 -0.5053  1.2277
 9314TIP3    H227907   1.549   6.514   5.264 -2.1004 -0.0991  1.0781
 9315TIP3   OH227908   4.448   0.418   4.852  0.3441  0.0583 -0.4970
 9315TIP3    H127909   4.523   0.441   4.798 -0.4114  0.0803 -1.5557
 9315TIP3    H227910   4.398   0.356   4.799 -0.7121  0.5107 -0.0537
 9316TIP3   OH227911   0.593   2.724   0.191  0.5265 -0.4376  0.2547
 9316TIP3    H127912   0.634   2.658   0.247  1.3587  1.1295  1.5776
 9316TIP3    H227913   0.513   2.682   0.159  0.5848 -1.7781  1.7357
 9317TIP3   OH227914   1.778   2.927   5.051 -0.0460  0.2880 -0.4049
 9317TIP3    H127915   1.780   2.832   5.064  1.2526 -0.2127 -3.2438
 9317TIP3    H227916   1.685   2.950   5.054 -0.3697 -1.0406  0.5109
 9318TIP3   OH227917   6.594   5.325   4.996  0.1023  0.2405 -0.1861
 9318TIP3    H127918   6.584   5.420   4.988  0.6758  0.4340  1.1870
 9318TIP3    H227919   6.637   5.298   4.915  0.7178  1.2736 -0.2152
 9319TIP3   OH227920   2.657   4.087   0.681 -0.2588 -0.6238 -0.4507
 9319TIP3    H127921   2.752   4.099   0.689 -0.4593  0.9973 -0.0299
 9319TIP3    H227922   2.624   4.175   0.662 -1.7460 -1.0506  0.0357
 9320TIP3   OH227923   6.951   1.065   5.350  0.0690  0.0351 -0.0850
 9320TIP3    H127924   6.966   1.094   5.440 -3.2671 -1.2555  1.0505
 9320TIP3    H227925   6.899   1.135   5.310 -0.0083 -0.2042 -0.4117
 9321TIP3   OH227926   2.608   0.124   4.385  0.1370 -0.8098  0.2451
 9321TIP3    H127927   2.545   0.178   4.337  2.5882  1.5017 -0.6089
 9321TIP3    H227928   2.624   0.049   4.328  1.6422  0.9878 -1.8282
 9322TIP3   OH227929   3.450   1.209   1.780  0.2869  0.0100  0.3459
 9322TIP3    H127930   3.506   1.179   1.851 -0.5663  0.5864  1.2890
 9322TIP3    H227931   3.442   1.134   1.722  2.6494  0.1447 -0.2309
 9323TIP3   OH227932   1.882   6.744   0.996 -0.3130 -0.3206  0.4042
 9323TIP3    H127933   1.806   6.692   0.970 -0.0767 -0.1577 -0.6289
 9323TIP3    H227934   1.957   6.688   0.978 -0.1628 -0.3750  1.1620
 9324TIP3   OH227935   3.303   2.931   2.377 -0.0898 -0.7963 -0.4725
 9324TIP3    H127936   3.315   3.001   2.313  0.6331  0.6276  1.1285
 9324TIP3    H227937   3.210   2.909   2.371 -0.6764  1.3189 -0.0948
 9325TIP3   OH227938   4.625   3.637   4.432 -0.6966 -0.3832  0.8670
 9325TIP3    H127939   4.652   3.664   4.520 -2.7655  0.2984  1.3449
 9325TIP3    H227940   4.617   3.719   4.383 -1.1855 -0.6213  0.5454
 9326TIP3   OH227941   5.467   4.336   3.798  0.0637  0.4049  0.4558
 9326TIP3    H127942   5.549   4.325   3.750 -0.4970  0.4149 -0.5319
 9326TIP3    H227943   5.453   4.252   3.841 -0.4521 -0.3148 -1.0641
 9327TIP3   OH227944   1.147   5.675   0.109  0.4034 -0.3378 -0.3396
 9327TIP3    H127945   1.112   5.720   0.032  0.6791 -1.2687 -1.0280
 9327TIP3    H227946   1.240   5.699   0.110  0.1072  0.8873  0.5974
 9328TIP3   OH227947   5.393   0.422   3.256  0.1816  0.0419 -0.0359
 9328TIP3    H127948   5.459   0.370   3.210  2.0501  1.1847  1.2090
 9328TIP3    H227949   5.347   0.360   3.312 -1.3380 -1.1621 -2.4419
 9329TIP3   OH227950   7.052   4.310   2.406  0.0293  0.1854 -0.0428
 9329TIP3    H127951   7.083   4.220   2.415  1.4678  0.7227  0.5811
 9329TIP3    H227952   6.974   4.303   2.350 -0.1547 -1.4866  0.3802
 9330TIP3   OH227953   2.855   1.828   4.315 -0.0499  0.3096  0.6665
 9330TIP3    H127954   2.889   1.761   4.255  1.2589  1.0634  0.5204
 9330TIP3    H227955   2.894   1.805   4.400  2.0896  1.9829  0.2226
 9331TIP3   OH227956   0.994   0.928   2.507 -0.0094 -0.7562  0.0278
 9331TIP3    H127957   0.932   0.895   2.442  0.0941 -1.1344  0.1218
 9331TIP3    H227958   1.045   0.994   2.460 -0.2180 -0.7259 -0.1566
 9332TIP3   OH227959   2.750   1.041   2.027  0.2210 -0.5172 -0.5621
 9332TIP3    H127960   2.660   1.059   2.054  0.5404 -2.0326  1.9365
 9332TIP3    H227961   2.751   0.946   2.011  1.3757 -0.5268 -0.5062
 9333TIP3   OH227962   1.885   0.209   1.598  0.0564  0.7592 -0.1838
 9333TIP3    H127963   1.823   0.275   1.566 -1.0404  0.6620  1.5816
 9333TIP3    H227964   1.878   0.137   1.536 -1.1220  1.0330 -0.3878
 9334TIP3   OH227965   1.140   1.667   1.652 -0.4352  0.2174  0.0038
 9334TIP3    H127966   1.096   1.602   1.707 -0.5886 -0.4248 -0.8624
 9334TIP3    H227967   1.072   1.697   1.591 -0.1329  0.5410 -0.1811
 9335TIP3   OH227968   5.744   3.609   5.567  0.3030  0.0018 -0.1817
 9335TIP3    H127969   5.660   3.647   5.541 -0.2765 -1.3359 -0.3052
 9335TIP3    H227970   5.806   3.683   5.561 -0.5998  0.7035 -1.3680
 9336TIP3   OH227971   1.840   1.256   0.308 -0.1900 -0.0732 -0.0789
 9336TIP3    H127972   1.814   1.238   0.218  0.7252 -0.8384 -0.2074
 9336TIP3    H227973   1.926   1.215   0.317  1.5275  3.2097  0.0063
 9337TIP3   OH227974   5.927   1.395   3.589 -0.2971 -0.2986  0.4458
 9337TIP3    H127975   5.997   1.386   3.523 -0.8517 -0.6955 -0.1034
 9337TIP3    H227976   5.850   1.421   3.538 -1.2164 -2.4231  0.6436
 9338TIP3   OH227977   5.738   3.193   3.248 -0.1934  0.0912  0.8366
 9338TIP3    H127978   5.758   3.238   3.166  1.5511 -1.6136  0.2359
 9338TIP3    H227979   5.670   3.130   3.226  0.6335 -0.7233  0.5187
 9339TIP3   OH227980   0.347   6.273   1.117 -0.2252  0.4814 -0.5832
 9339TIP3    H127981   0.288   6.222   1.172  0.4777  0.8406  0.5352
 9339TIP3    H227982   0.381   6.342   1.175  0.7923  0.6713 -1.3717
 9340TIP3   OH227983   0.422   3.826   2.909 -0.3146 -0.3698 -0.0695
 9340TIP3    H127984   0.394   3.861   2.993 -0.9104  0.8916 -0.7602
 9340TIP3    H227985   0.490   3.886   2.879 -0.4484 -0.5206 -0.6990
 9341TIP3   OH227986   2.463   1.131   1.240  0.3848  0.2931 -0.5253
 9341TIP3    H127987   2.448   1.210   1.188 -0.4640  0.8789  0.5669
 9341TIP3    H227988   2.377   1.090   1.246  0.7712 -0.5825 -0.8572
 9342TIP3   OH227989   6.497   5.176   3.704  0.3462  0.0363  0.1510
 9342TIP3    H127990   6.412   5.143   3.735  0.0949  1.1074  0.6382
 9342TIP3    H227991   6.486   5.271   3.700  0.8411  0.0558 -1.8565
 9343TIP3   OH227992   5.790   5.467   0.247  0.2366  0.0125  0.2967
 9343TIP3    H127993   5.806   5.405   0.175  0.2751 -0.8743  1.0471
 9343TIP3    H227994   5.877   5.502   0.268  0.3362 -0.2940  0.4051
 9344TIP3   OH227995   1.329   2.758   1.464  0.8723  0.6192 -0.1579
 9344TIP3    H127996   1.240   2.750   1.429  0.9845  0.4595 -0.4116
 9344TIP3    H227997   1.381   2.700   1.409  0.9868  0.0605  0.5133
 9345TIP3   OH227998   5.609   6.642   1.788  0.1277 -0.1859  0.2125
 9345TIP3    H127999   5.584   6.551   1.771 -0.0951 -0.0130 -0.4306
 9345TIP3    H228000   5.660   6.667   1.711 -2.4630  1.2071 -1.1670
 9346TIP3   OH228001   5.213   1.826   0.514 -0.0939  0.1733 -0.0040
 9346TIP3    H128002   5.151   1.754   0.508 -1.3666  1.1799  0.6803
 9346TIP3    H228003   5.249   1.819   0.603  0.4658 -0.1384 -0.2459
 9347TIP3   OH228004   5.654   0.178   1.733 -0.1412  0.3439 -0.3729
 9347TIP3    H128005   5.701   0.162   1.815  0.4531  0.7030 -0.6350
 9347TIP3    H228006   5.644   0.273   1.729  1.0423  0.4672 -1.3495
 9348TIP3   OH228007   2.938   1.357   3.467 -0.0005 -0.1733  0.0171
 9348TIP3    H128008   2.871   1.403   3.518  0.2146  0.0623  0.0867
 9348TIP3    H228009   2.990   1.311   3.533  0.2402  0.0817  0.0065
 9349TIP3   OH228010   6.935   5.063   4.220 -0.1160  0.3285  0.2110
 9349TIP3    H128011   6.951   5.007   4.144 -0.2232  1.8440 -0.9616
 9349TIP3    H228012   6.840   5.072   4.224 -0.3031 -1.5220  1.9114
 9350TIP3   OH228013   7.115   6.182   1.722  0.0484  0.2227 -0.2127
 9350TIP3    H128014   7.166   6.183   1.641 -0.4562  2.9612 -0.5794
 9350TIP3    H228015   7.033   6.138   1.698 -0.3937  1.6575 -1.4204
 9351TIP3   OH228016   0.565   1.403   1.533 -0.2273  0.3328  0.5146
 9351TIP3    H128017   0.630   1.452   1.482 -0.2860 -0.7731 -0.6795
 9351TIP3    H228018   0.608   1.385   1.617 -0.0952  2.1258  0.8618
 9352TIP3   OH228019   2.322   5.761   5.041  0.7555 -0.4305  0.4126
 9352TIP3    H128020   2.340   5.825   5.110 -4.1497  1.1420  0.6165
 9352TIP3    H228021   2.309   5.813   4.962  1.0886 -1.6744 -0.4922
 9353TIP3   OH228022   6.582   0.023   2.410  0.3534  0.5765  0.8253
 9353TIP3    H128023   6.585   0.116   2.431 -1.5720  0.6602  0.9060
 9353TIP3    H228024   6.573   0.019   2.315  1.0049  0.4441  0.7646
 9354TIP3   OH228025   1.446   3.711   5.068 -0.5383 -0.6916  0.1277
 9354TIP3    H128026   1.391   3.656   5.123 -1.4896  0.3374  0.2370
 9354TIP3    H228027   1.496   3.766   5.129 -2.6868  1.5177  0.0506
 9355TIP3   OH228028   1.815   2.881   4.216  0.5254 -0.0085 -0.5294
 9355TIP3    H128029   1.823   2.912   4.306  0.8991  0.9526 -0.8822
 9355TIP3    H228030   1.741   2.929   4.180  0.0217 -0.7999 -0.5797
 9356TIP3   OH228031   1.623   4.724   2.381 -0.1662  0.5088  0.0927
 9356TIP3    H128032   1.664   4.807   2.405 -1.1255  0.5188  1.8343
 9356TIP3    H228033   1.599   4.735   2.289  1.7701  1.2759 -0.3639
 9357TIP3   OH228034   4.380   3.471   0.163 -0.0407 -0.2729 -0.2498
 9357TIP3    H128035   4.434   3.396   0.137 -0.2733 -0.5906  0.1623
 9357TIP3    H228036   4.391   3.535   0.093 -0.9870 -1.2735 -1.3476
 9358TIP3   OH228037   6.973   6.041   3.787  0.1557 -0.3534  0.0215
 9358TIP3    H128038   7.043   6.027   3.724  0.4661  0.8089  0.0814
 9358TIP3    H228039   6.981   6.133   3.811 -1.7021 -0.0595 -0.3516
 9359TIP3   OH228040   3.956   3.863   2.974 -0.2716  0.0202 -0.0924
 9359TIP3    H128041   4.028   3.856   2.911 -0.0574  0.2925  0.1173
 9359TIP3    H228042   3.880   3.829   2.928  0.2258 -1.4045  0.0827
 9360TIP3   OH228043   0.694   0.700   3.354  0.2490 -0.3627  0.3643
 9360TIP3    H128044   0.630   0.767   3.378 -0.1234 -0.4716 -0.3376
 9360TIP3    H228045   0.735   0.734   3.275 -1.3526 -1.8884 -1.1901
 9361TIP3   OH228046   5.875   3.059   0.033  0.4324  0.1465  0.0048
 9361TIP3    H128047   5.879   3.018   0.119 -0.4133 -0.2773 -0.1409
 9361TIP3    H228048   5.897   3.150   0.048  0.7249 -0.0196  0.5981
 9362TIP3   OH228049   2.136   0.603   5.510  0.2069  0.1268  0.2032
 9362TIP3    H128050   2.044   0.631   5.510  0.6418  1.7853 -1.0180
 9362TIP3    H228051   2.159   0.594   5.602 -0.9384  0.6015  0.5522
 9363TIP3   OH228052   7.182   4.031   0.840  0.0542 -0.2662  0.1834
 9363TIP3    H128053   7.089   4.053   0.837  0.3235  0.8939 -0.6943
 9363TIP3    H228054   7.208   4.026   0.748  0.5144 -2.2344  0.3924
 9364TIP3   OH228055   5.584   6.064   4.445 -0.3635  0.6074 -0.1243
 9364TIP3    H128056   5.519   6.059   4.374  1.1442  0.0584 -1.5244
 9364TIP3    H228057   5.555   6.138   4.498 -1.5094  1.0978 -1.3504
 9365TIP3   OH228058   4.887   1.758   3.499  0.1703  0.0795  0.5833
 9365TIP3    H128059   4.864   1.815   3.572  1.1549  0.2830  0.7475
 9365TIP3    H228060   4.887   1.670   3.536 -2.5463 -0.2530  0.0661
 9366TIP3   OH228061   4.683   3.720   3.942 -0.1577  0.2112  0.2021
 9366TIP3    H128062   4.648   3.700   3.855  2.1956 -0.7360 -0.6072
 9366TIP3    H228063   4.703   3.634   3.979 -1.0103  0.6165  1.6565
 9367TIP3   OH228064   5.877   4.556   5.021  0.2916 -0.5006  0.0800
 9367TIP3    H128065   5.838   4.529   4.938  0.1247 -0.1830  0.0529
 9367TIP3    H228066   5.843   4.644   5.035 -0.5272 -0.9483  1.0054
 9368TIP3   OH228067   2.405   1.807   0.004  0.0539 -0.0216  0.1484
 9368TIP3    H128068   2.405   1.745   0.077 -2.1743  0.1153  0.3570
 9368TIP3    H228069   2.429   1.754  -0.072  0.3873 -0.6364  0.6708
 9369TIP3   OH228070   3.539   4.948   4.446  0.2385  0.3848 -0.1653
 9369TIP3    H128071   3.562   5.040   4.435 -0.9957  0.6944 -0.2775
 9369TIP3    H228072   3.460   4.949   4.500  1.0864 -0.6945  1.1676
 9370TIP3   OH228073   5.587   0.128   4.610 -0.4958  0.7402 -0.0298
 9370TIP3    H128074   5.520   0.098   4.672 -0.3466  0.1729 -0.1359
 9370TIP3    H228075   5.609   0.217   4.639 -0.2603  0.4009  0.8745
 9371TIP3   OH228076   0.722   6.151   5.507  0.0727  0.0347  0.1971
 9371TIP3    H128077   0.647   6.196   5.546  0.7493  1.2345  0.1587
 9371TIP3    H228078   0.753   6.210   5.439  2.3313  0.5873  1.5758
 9372TIP3   OH228079   0.745   4.887   3.866  0.2933  0.5706  0.0092
 9372TIP3    H128080   0.672   4.867   3.808 -0.4217 -0.1136  1.1199
 9372TIP3    H228081   0.811   4.821   3.845  0.6737  1.2846 -1.1060
 9373TIP3   OH228082   6.261   1.591   1.685 -0.4699  0.3200 -0.5964
 9373TIP3    H128083   6.238   1.677   1.652 -0.7036 -0.1826 -1.8149
 9373TIP3    H228084   6.335   1.563   1.631 -1.1462 -0.7213 -1.0211
 9374TIP3   OH228085   6.151   2.650   5.257 -0.4185  0.1552  0.0357
 9374TIP3    H128086   6.214   2.642   5.186 -0.0981 -0.8903  0.4121
 9374TIP3    H228087   6.066   2.639   5.214 -0.2567 -0.0052 -0.2486
 9375TIP3   OH228088   3.602   0.809   4.143  0.1301 -0.3797  0.3642
 9375TIP3    H128089   3.652   0.729   4.124 -0.4675 -0.3459 -1.5818
 9375TIP3    H228090   3.518   0.795   4.101  0.1349  1.4150 -0.3136
 9376TIP3   OH228091   0.083   2.520   2.714 -0.2201  0.4814  0.3614
 9376TIP3    H128092   0.107   2.535   2.623  0.3839 -0.7233  0.2994
 9376TIP3    H228093   0.165   2.492   2.756 -1.0285 -1.7498  0.6038
 9377TIP3   OH228094   1.738   2.535   1.466 -0.1683 -0.1170  0.0975
 9377TIP3    H128095   1.808   2.485   1.508 -0.9872  0.3096  2.0565
 9377TIP3    H228096   1.670   2.543   1.533 -1.6735  0.3672 -1.4076
 9378TIP3   OH228097   3.839   4.843   5.397  0.1059 -0.6480 -0.3250
 9378TIP3    H128098   3.811   4.878   5.482  2.3611 -0.7083  0.5265
 9378TIP3    H228099   3.805   4.906   5.333 -1.6661 -0.6104  0.5750
 9379TIP3   OH228100   2.687   0.332   1.678  0.5076 -0.5202 -0.4947
 9379TIP3    H128101   2.739   0.401   1.718  0.0559 -1.4218  1.8753
 9379TIP3    H228102   2.679   0.356   1.586  0.6878  2.3551  0.1617
 9380TIP3   OH228103   4.283   1.339   5.277 -0.1590 -0.0241  0.0286
 9380TIP3    H128104   4.270   1.432   5.293 -0.5241  0.0054 -0.4325
 9380TIP3    H228105   4.259   1.327   5.185  0.5472 -0.4462 -0.1075
 9381TIP3   OH228106   3.988   3.938   3.794  0.2943 -0.4785 -0.1512
 9381TIP3    H128107   4.083   3.933   3.783  0.2224  1.3913 -2.3628
 9381TIP3    H228108   3.957   3.851   3.768  1.3317 -0.7139 -0.6888
 9382TIP3   OH228109   4.260   1.335   4.991  0.0081  0.0007 -0.1482
 9382TIP3    H128110   4.286   1.242   4.987  0.9373  0.1682  1.2591
 9382TIP3    H228111   4.220   1.352   4.906 -0.0597 -1.6615 -0.4872
 9383TIP3   OH228112   5.203   5.701   3.555 -0.9858  0.0476  0.1136
 9383TIP3    H128113   5.297   5.710   3.570 -1.1025 -0.0922  0.9449
 9383TIP3    H228114   5.179   5.781   3.508 -0.2771 -0.3756 -1.0276
 9384TIP3   OH228115   6.784   2.178   3.968 -0.8011 -0.3183 -0.3110
 9384TIP3    H128116   6.717   2.189   4.036 -0.5595 -0.3238 -0.0702
 9384TIP3    H228117   6.865   2.161   4.017 -0.5679 -0.0263 -0.5907
 9385TIP3   OH228118   3.382   4.418   5.408  0.1059  0.1967 -0.1734
 9385TIP3    H128119   3.376   4.454   5.497  0.1925  1.8005 -0.7797
 9385TIP3    H228120   3.466   4.449   5.375 -0.9441  1.7186 -1.6386
 9386TIP3   OH228121   7.095   6.501   5.739 -0.2969  0.2383 -0.4737
 9386TIP3    H128122   7.171   6.540   5.782 -0.7085  1.2438 -0.6354
 9386TIP3    H228123   7.047   6.458   5.810 -0.9599  1.8574  0.1080
 9387TIP3   OH228124   1.731   3.845   4.232  0.5336  0.3697  0.1207
 9387TIP3    H128125   1.747   3.846   4.137  0.8704  1.2714  0.1841
 9387TIP3    H228126   1.724   3.937   4.256  1.6778  0.2061  1.1800
 9388TIP3   OH228127   6.780   3.070   5.091 -0.9843 -0.5756 -0.0718
 9388TIP3    H128128   6.869   3.088   5.124 -1.4115 -0.0517  0.8435
 9388TIP3    H228129   6.726   3.139   5.131 -1.5260  0.1357 -1.9481
 9389TIP3   OH228130   4.314   5.636   1.698  0.1586  0.0644  0.5482
 9389TIP3    H128131   4.371   5.615   1.772  0.5695  0.5141  0.3618
 9389TIP3    H228132   4.360   5.601   1.622 -0.1328 -0.1530  0.4691
 9390TIP3   OH228133   2.181   3.959   1.419  0.0287 -0.3666  0.2286
 9390TIP3    H128134   2.103   3.907   1.441 -0.1443  0.4800  1.8256
 9390TIP3    H228135   2.252   3.895   1.415 -0.6602 -1.1020 -0.8792
 9391TIP3   OH228136   4.413   1.898   2.138  0.5450  0.1437 -0.1885
 9391TIP3    H128137   4.326   1.937   2.137  0.7826  0.8195  1.7131
 9391TIP3    H228138   4.473   1.973   2.140  1.2656 -0.2801 -2.8325
 9392TIP3   OH228139   1.818   2.051   2.569  0.5320  0.2063 -0.4424
 9392TIP3    H128140   1.820   1.992   2.645 -1.0684  1.5637  0.7347
 9392TIP3    H228141   1.893   2.109   2.582  1.1343 -0.4895 -0.7222
 9393TIP3   OH228142   5.071   3.227   0.914  0.2527 -0.2627  0.3875
 9393TIP3    H128143   5.106   3.146   0.878  1.5801  1.0856 -1.5759
 9393TIP3    H228144   4.976   3.219   0.904  0.3696 -1.5289  0.1868
 9394TIP3   OH228145   7.168   0.362   0.713 -0.3900 -0.2700  0.3395
 9394TIP3    H128146   7.238   0.375   0.777 -0.1073  0.7706 -0.1595
 9394TIP3    H228147   7.212   0.366   0.628 -0.9024 -0.6672  0.0511
 9395TIP3   OH228148   4.186   4.966   0.277 -0.1566 -0.2152 -0.2207
 9395TIP3    H128149   4.175   4.925   0.191 -0.6577 -1.9873  0.6392
 9395TIP3    H228150   4.102   4.953   0.320 -0.3502  1.8160  0.1065
 9396TIP3   OH228151   4.970   0.338   2.501 -0.3980 -0.2059 -0.9305
 9396TIP3    H128152   4.905   0.380   2.444  0.5730  0.1057 -1.8409
 9396TIP3    H228153   5.004   0.408   2.555 -0.5086 -0.2873 -0.7546
 9397TIP3   OH228154   5.891   3.134   5.308  0.0683  1.4125 -0.0213
 9397TIP3    H128155   5.890   3.213   5.362  1.5381  0.9471  0.7579
 9397TIP3    H228156   5.982   3.104   5.311 -0.6417 -0.8821  0.5472
 9398TIP3   OH228157   1.426   0.729   2.234  0.1665 -0.4865  0.1020
 9398TIP3    H128158   1.352   0.758   2.288  0.7922 -1.1158  1.3421
 9398TIP3    H228159   1.465   0.657   2.284  0.1826 -1.7753 -1.6798
 9399TIP3   OH228160   0.420   5.893   2.540 -0.5612 -0.5974 -0.2194
 9399TIP3    H128161   0.378   5.903   2.454 -3.1355 -0.7331  0.9204
 9399TIP3    H228162   0.407   5.977   2.583 -0.1410 -0.8418  0.3982
 9400TIP3   OH228163   5.536   0.026   5.562 -0.3283  0.3613 -0.3289
 9400TIP3    H128164   5.612  -0.030   5.575 -1.5738 -1.1994  0.5459
 9400TIP3    H228165   5.552   0.069   5.478  0.6200 -1.4173 -1.1191
 9401TIP3   OH228166   5.738   4.715   1.932 -0.1401  0.2564 -0.7928
 9401TIP3    H128167   5.776   4.683   2.014  1.6889  0.3630 -1.5501
 9401TIP3    H228168   5.682   4.643   1.902 -0.4723  0.0358  0.3035
 9402TIP3   OH228169   0.744   1.575   1.728  0.1518 -0.1366 -0.1579
 9402TIP3    H128170   0.805   1.588   1.801  1.6471 -1.9696 -0.9920
 9402TIP3    H228171   0.731   1.480   1.724 -2.5349  0.1474 -0.2695
 9403TIP3   OH228172   0.329   5.618   2.378 -0.5826  0.5305  0.0948
 9403TIP3    H128173   0.284   5.703   2.377 -1.3828  0.1838  1.6647
 9403TIP3    H228174   0.386   5.623   2.455 -1.0413 -0.5133  0.5214
 9404TIP3   OH228175   2.206   1.440   4.137 -0.0783 -0.1082  0.4010
 9404TIP3    H128176   2.191   1.348   4.114  0.5621  0.3025 -1.9333
 9404TIP3    H228177   2.169   1.489   4.064  1.1408  1.4253  0.7622
 9405TIP3   OH228178   5.871   3.344   5.508 -0.3255  0.5171  0.6269
 9405TIP3    H128179   5.919   3.330   5.590  0.2088  1.0153  0.4072
 9405TIP3    H228180   5.816   3.420   5.526  0.2806  1.0312  0.3150
 9406TIP3   OH228181   3.498   1.595   2.481 -0.0663 -0.1733  0.3404
 9406TIP3    H128182   3.445   1.630   2.410 -0.0119 -0.8127 -0.0186
 9406TIP3    H228183   3.435   1.556   2.541  0.0285 -2.0754 -0.7043
 9407TIP3   OH228184   2.981   5.288   2.185  0.0347  0.5206 -0.1368
 9407TIP3    H128185   3.005   5.359   2.126  1.6221  1.1298  1.1702
 9407TIP3    H228186   3.031   5.213   2.154 -1.7383 -0.1348 -1.5953
 9408TIP3   OH228187   2.654   0.539   3.931 -0.0918 -0.2982  0.0330
 9408TIP3    H128188   2.608   0.472   3.880 -2.6086  1.8420 -0.7429
 9408TIP3    H228189   2.631   0.520   4.022  0.2536 -1.2032 -0.0615
 9409TIP3   OH228190   6.622   2.129   5.878  0.2101  0.0703 -0.3512
 9409TIP3    H128191   6.548   2.096   5.826  1.0287 -1.2938 -0.7054
 9409TIP3    H228192   6.699   2.111   5.824  0.9347  0.1037  0.6420
 9410TIP3   OH228193   6.045   0.386   5.834 -0.0337  0.0155  0.0344
 9410TIP3    H128194   6.030   0.404   5.741  0.3604  1.4080  0.2014
 9410TIP3    H228195   6.099   0.307   5.835  0.4496  0.3091 -0.9704
 9411TIP3   OH228196   6.013   5.798   0.212  0.0713  0.0450 -0.4581
 9411TIP3    H128197   6.060   5.818   0.131  0.5144 -0.6586 -0.3791
 9411TIP3    H228198   6.068   5.833   0.282  0.8333 -1.3834 -0.3220
 9412TIP3   OH228199   4.731   2.901   1.653  0.2363  0.0695  0.2585
 9412TIP3    H128200   4.639   2.879   1.643  0.7078 -1.8284 -0.3327
 9412TIP3    H228201   4.735   2.951   1.734 -1.5671  2.0718 -0.7994
 9413TIP3   OH228202   5.617   3.556   3.703  0.2177 -0.7147 -0.0921
 9413TIP3    H128203   5.646   3.607   3.779 -0.6324  1.0863 -0.9103
 9413TIP3    H228204   5.696   3.511   3.673  0.1635 -3.3913  3.1312
 9414TIP3   OH228205   3.161   2.262   0.270  0.2856 -0.2718 -0.1242
 9414TIP3    H128206   3.219   2.262   0.346  1.5871 -0.9202 -1.0574
 9414TIP3    H228207   3.100   2.334   0.285  1.7295  0.8416  0.6300
 9415TIP3   OH228208   7.129   4.502   1.236 -0.4513 -0.6216 -0.4767
 9415TIP3    H128209   7.196   4.536   1.295 -0.3244 -0.5999 -0.6308
 9415TIP3    H228210   7.179   4.469   1.161 -0.5945 -0.8557 -0.4687
 9416TIP3   OH228211   4.950   4.521   2.694 -0.1222  0.1870  0.3979
 9416TIP3    H128212   4.902   4.597   2.727  0.6434  0.4315  0.9916
 9416TIP3    H228213   5.042   4.547   2.700  0.2084 -1.1266  1.5127
 9417TIP3   OH228214   3.059   6.339   5.745  0.3756  0.2000  0.4165
 9417TIP3    H128215   2.987   6.332   5.807 -0.3997 -1.5670 -0.6164
 9417TIP3    H228216   3.138   6.338   5.799 -0.2909 -0.7632  1.3988
 9418TIP3   OH228217   0.450   3.013   1.333  0.0606  0.0499 -0.1585
 9418TIP3    H128218   0.487   3.088   1.380 -0.8193 -0.1278  0.8403
 9418TIP3    H228219   0.522   2.949   1.331 -0.2808 -0.4881  2.2137
 9419TIP3   OH228220   0.893   3.366   1.474  0.3879  0.2209 -0.4241
 9419TIP3    H128221   0.984   3.397   1.477  0.3988  0.2275 -0.8618
 9419TIP3    H228222   0.853   3.402   1.554  1.2660 -1.3156  0.7665
 9420TIP3   OH228223   2.790   0.444   2.682 -0.3138 -0.2475 -0.7008
 9420TIP3    H128224   2.777   0.504   2.756 -0.0989  0.6251 -1.3582
 9420TIP3    H228225   2.885   0.439   2.671 -0.3442 -0.3970 -0.9096
 9421TIP3   OH228226   3.593   5.553   1.457  0.0959 -0.6216  0.1306
 9421TIP3    H128227   3.528   5.593   1.515  0.1494 -0.5441  0.1369
 9421TIP3    H228228   3.678   5.573   1.498  0.1014 -1.1093  0.3639
 9422TIP3   OH228229   4.921   4.446   1.345 -0.0114 -0.3562 -0.3505
 9422TIP3    H128230   4.922   4.451   1.440  0.3027 -1.4630 -0.2774
 9422TIP3    H228231   4.857   4.378   1.325 -0.9470  0.6902 -0.9895
 9423TIP3   OH228232   5.435   5.164   4.661 -0.6735 -0.4213 -0.0423
 9423TIP3    H128233   5.486   5.090   4.629  0.2270 -0.1377  0.6902
 9423TIP3    H228234   5.356   5.165   4.606  0.6265 -0.1628 -2.0156
 9424TIP3   OH228235   0.957   6.115   0.028  0.1574 -0.5887  0.2336
 9424TIP3    H128236   0.909   6.144   0.105 -2.7132 -1.3701 -1.1454
 9424TIP3    H228237   0.919   6.030   0.007 -0.7662  0.5402 -3.2752
 9425TIP3   OH228238   6.007   0.718   3.089 -0.7576  0.1435 -0.6541
 9425TIP3    H128239   5.949   0.780   3.044 -0.6963  1.4396  0.9774
 9425TIP3    H228240   5.950   0.675   3.153 -0.5405 -0.7183 -1.0219
 9426TIP3   OH228241   3.420   0.564   5.402  0.6516 -0.0472 -0.0947
 9426TIP3    H128242   3.500   0.521   5.434 -1.2511 -4.0509 -0.1220
 9426TIP3    H228243   3.406   0.636   5.463  2.2436 -1.6437  2.3623
 9427TIP3   OH228244   1.855   5.636   3.656  0.2102  0.1162  0.1562
 9427TIP3    H128245   1.939   5.604   3.623 -0.4180 -0.5840 -0.7992
 9427TIP3    H228246   1.870   5.730   3.669  1.1379  0.0067  0.0109
 9428TIP3   OH228247   3.170   3.255   3.585 -0.5584 -0.3953  0.5470
 9428TIP3    H128248   3.130   3.342   3.584  0.5865  0.1774  1.6507
 9428TIP3    H228249   3.264   3.272   3.579 -0.3896 -1.6570 -0.9154
 9429TIP3   OH228250   5.851   4.200   4.512 -0.5278  0.4821 -0.0574
 9429TIP3    H128251   5.888   4.119   4.549  2.1082  0.6737 -1.9542
 9429TIP3    H228252   5.767   4.210   4.556  0.3289 -1.7196  2.3690
 9430TIP3   OH228253   0.346   3.478   1.294  0.3798  0.4837 -0.4933
 9430TIP3    H128254   0.329   3.397   1.343  0.9889  0.7215  0.1148
 9430TIP3    H228255   0.412   3.524   1.346 -0.5731  1.7743 -0.3862
 9431TIP3   OH228256   1.903   5.942   3.949  0.0976 -0.4883 -0.0598
 9431TIP3    H128257   1.872   6.025   3.984 -2.6196 -1.8434  0.9834
 9431TIP3    H228258   1.922   5.960   3.857 -0.4543  1.2668  0.1488
 9432TIP3   OH228259   1.474   5.928   1.542  0.2345 -0.4637  0.1609
 9432TIP3    H128260   1.390   5.971   1.526  0.4707  0.3949  1.1666
 9432TIP3    H228261   1.458   5.836   1.519 -0.2530  0.1191 -2.0877
 9433TIP3   OH228262   5.481   2.662   1.009 -0.3911 -0.4557 -0.3606
 9433TIP3    H128263   5.448   2.573   1.023 -1.1875 -0.3313 -1.3663
 9433TIP3    H228264   5.574   2.649   0.991 -0.8801 -1.3564 -2.6952
 9434TIP3   OH228265   3.329   2.388   5.340  0.0108 -0.5586  0.0693
 9434TIP3    H128266   3.238   2.362   5.356  0.1257 -0.7057  0.4976
 9434TIP3    H228267   3.329   2.483   5.346 -0.5748 -0.3318 -2.3133
 9435TIP3   OH228268   4.997   5.617   1.815 -0.2170  0.4693  0.2426
 9435TIP3    H128269   4.973   5.700   1.774  1.3865  0.8854  0.0776
 9435TIP3    H228270   5.055   5.641   1.886  2.9833 -0.5883 -1.7882
 9436TIP3   OH228271   3.061   3.211   4.676  0.0615  0.1095  0.3793
 9436TIP3    H128272   2.976   3.203   4.634  1.0753  0.2355 -1.8645
 9436TIP3    H228273   3.092   3.121   4.685  0.0629  0.1126  0.4080
 9437TIP3   OH228274   2.473   2.188   4.137 -0.6341  0.1827 -0.5182
 9437TIP3    H128275   2.475   2.226   4.225  0.8058 -1.2186  0.1047
 9437TIP3    H228276   2.450   2.096   4.151  0.1482 -0.1891 -1.5441
 9438TIP3   OH228277   4.202   4.449   1.358  0.0963 -0.2535  0.2704
 9438TIP3    H128278   4.202   4.502   1.278 -2.4391 -2.3414 -1.2718
 9438TIP3    H228279   4.267   4.381   1.342  0.6617  0.1731  0.6802
 9439TIP3   OH228280   0.196   1.775   5.011  0.2810  0.0157  0.3838
 9439TIP3    H128281   0.182   1.852   5.066  0.8298  0.2672  0.1787
 9439TIP3    H228282   0.223   1.811   4.927 -1.0263 -0.3460 -0.2174
 9440TIP3   OH228283   2.342   5.333   2.907 -0.0009  0.2344  0.1041
 9440TIP3    H128284   2.290   5.287   2.841 -0.0440  1.6998 -0.9213
 9440TIP3    H228285   2.410   5.378   2.857 -0.4417  1.9355  0.9478
 9441TIP3   OH228286   2.726   6.710   5.856  0.5216 -0.1191  0.2444
 9441TIP3    H128287   2.799   6.708   5.794  2.0041  0.8556  1.8454
 9441TIP3    H228288   2.664   6.645   5.823  1.2487  0.3328 -2.1949
 9442TIP3   OH228289   3.600   3.536   4.027  0.1550 -0.0051 -0.1567
 9442TIP3    H128290   3.625   3.528   3.935 -0.6022  0.5815 -0.4223
 9442TIP3    H228291   3.640   3.459   4.069 -0.0967 -0.6774 -1.1041
 9443TIP3   OH228292   2.157   3.520   1.255 -0.2703 -0.2372 -0.2716
 9443TIP3    H128293   2.199   3.452   1.309 -0.5083  0.8265  1.3436
 9443TIP3    H228294   2.067   3.525   1.288 -0.6848 -0.1352 -1.3686
 9444TIP3   OH228295   0.718   5.379   5.396 -0.4068  0.4310  0.1369
 9444TIP3    H128296   0.642   5.434   5.376 -1.2693 -0.7334  0.0777
 9444TIP3    H228297   0.787   5.440   5.421 -1.5657  1.4820  0.8540
 9445TIP3   OH228298   7.069   1.489   0.012 -0.3011  0.2981 -0.0408
 9445TIP3    H128299   7.107   1.545  -0.055 -1.5400  0.5140 -0.6006
 9445TIP3    H228300   7.112   1.515   0.093 -0.3921  1.6262 -0.3912
 9446TIP3   OH228301   0.657   6.062   4.844 -0.9276 -0.1168 -0.2594
 9446TIP3    H128302   0.690   6.145   4.878  0.5374 -0.9255  0.4185
 9446TIP3    H228303   0.648   6.006   4.921  0.2909 -1.2721 -0.9034
 9447TIP3   OH228304   0.965   1.576   5.114  0.5096 -0.2264  0.3937
 9447TIP3    H128305   1.001   1.503   5.165 -0.1295 -0.2127  0.8890
 9447TIP3    H228306   0.971   1.652   5.172  1.8013  0.2819 -0.3683
 9448TIP3   OH228307   5.428   4.767   5.265  0.0107  0.4666 -0.1122
 9448TIP3    H128308   5.349   4.712   5.258 -0.0423  0.6458 -1.0308
 9448TIP3    H228309   5.457   4.755   5.355 -1.6983  1.2537  0.5729
 9449TIP3   OH228310   2.136   1.134   3.473  0.1808  0.0809 -0.8240
 9449TIP3    H128311   2.187   1.152   3.394  0.3085  2.8099 -0.2240
 9449TIP3    H228312   2.114   1.041   3.466  1.1891 -0.0685 -3.4495
 9450TIP3   OH228313   6.806   3.403   1.293  0.3207 -0.2693 -0.2775
 9450TIP3    H128314   6.871   3.349   1.248  0.3471  1.5601 -2.6718
 9450TIP3    H228315   6.722   3.374   1.256  0.4241  1.9601 -2.5157
 9451TIP3   OH228316   2.460   2.922   1.351 -0.1307  0.3782  0.3023
 9451TIP3    H128317   2.417   2.905   1.268  1.6296 -0.9009 -0.4249
 9451TIP3    H228318   2.444   2.844   1.403  0.5118  0.2763  0.3590
 9452TIP3   OH228319   4.423   3.249   3.824  0.2875  0.1695  0.5336
 9452TIP3    H128320   4.450   3.267   3.734  0.0456  2.3159  0.8306
 9452TIP3    H228321   4.493   3.286   3.877 -0.5195  0.7594  1.2250
 9453TIP3   OH228322   1.863   2.871   1.067 -0.2353 -0.6842 -0.0088
 9453TIP3    H128323   1.827   2.949   1.025  0.1125  0.2595  1.3635
 9453TIP3    H228324   1.953   2.894   1.088 -0.1418 -1.4382  0.4743
 9454TIP3   OH228325   6.154   6.276   3.589  0.4856 -0.2096  0.1097
 9454TIP3    H128326   6.076   6.330   3.600  0.6725  0.3359 -1.0207
 9454TIP3    H228327   6.205   6.290   3.668  0.2827  0.8784  0.0614
 9455TIP3   OH228328   0.339   5.310   3.450  0.0281 -0.2049 -0.1512
 9455TIP3    H128329   0.286   5.279   3.376  0.8380 -2.4308  0.1198
 9455TIP3    H228330   0.428   5.314   3.415  0.1138  0.8207  0.1538
 9456TIP3   OH228331   3.942   4.952   0.420  0.5393  0.1788 -0.2982
 9456TIP3    H128332   3.871   4.893   0.397  1.3992 -0.5519 -1.1357
 9456TIP3    H228333   3.918   4.986   0.506  1.0403 -3.0309  1.2575
 9457TIP3   OH228334   1.268   2.828   4.333  0.3640 -0.3995  0.0753
 9457TIP3    H128335   1.361   2.837   4.312 -0.1075  2.6965 -1.3864
 9457TIP3    H228336   1.242   2.747   4.290  2.1014 -0.5786 -0.7455
 9458TIP3   OH228337   6.989   3.029   4.843  0.7024  0.1686 -0.2564
 9458TIP3    H128338   7.079   3.059   4.837  1.2496 -0.4493  3.0023
 9458TIP3    H228339   6.959   3.061   4.928 -1.1660 -2.0827  0.0192
 9459TIP3   OH228340   1.766   6.212   0.059 -0.3048  0.0021 -0.8258
 9459TIP3    H128341   1.797   6.277   0.121  0.9944  0.3488 -1.7869
 9459TIP3    H228342   1.728   6.142   0.113 -0.1812  0.7758  0.2863
 9460TIP3   OH228343   0.115   2.845   1.707 -0.2882 -0.4248  0.3570
 9460TIP3    H128344   0.076   2.760   1.728  0.3329 -0.8871 -0.2758
 9460TIP3    H228345   0.043   2.907   1.710 -1.6394 -1.6096 -3.1116
 9461TIP3   OH228346   5.447   5.520   1.147  0.2111 -0.0154  0.3283
 9461TIP3    H128347   5.472   5.508   1.055  2.0271 -4.2161  1.1350
 9461TIP3    H228348   5.497   5.597   1.175 -0.7901  1.6994 -2.2108
 9462TIP3   OH228349   4.654   5.892   4.312 -0.2494 -0.9628 -0.6067
 9462TIP3    H128350   4.666   5.839   4.390 -1.8899 -1.0452 -0.3700
 9462TIP3    H228351   4.720   5.961   4.318 -0.6407 -0.7053  1.0874
 9463TIP3   OH228352   2.239   3.365   4.151 -0.2640  0.2057 -0.3884
 9463TIP3    H128353   2.197   3.391   4.069 -0.3371  0.0429 -0.4037
 9463TIP3    H228354   2.328   3.341   4.125 -0.8058 -1.5949 -0.7271
 9464TIP3   OH228355   6.987   2.234   4.805 -0.3448 -0.6283  0.3294
 9464TIP3    H128356   6.946   2.190   4.880 -0.5341 -1.3189 -0.1677
 9464TIP3    H228357   6.978   2.171   4.733  1.2430 -0.6347  0.1078
 9465TIP3   OH228358   5.745   0.091   2.244 -0.5600  0.2354 -0.0015
 9465TIP3    H128359   5.744  -0.000   2.271  0.7081  0.5947  1.4119
 9465TIP3    H228360   5.837   0.110   2.226 -0.8518  1.1443 -0.6229
 9466TIP3   OH228361   0.609   4.141   3.664 -0.5546 -0.0975 -0.1717
 9466TIP3    H128362   0.571   4.215   3.712 -0.2779 -0.6950  1.0045
 9466TIP3    H228363   0.534   4.098   3.623 -0.8765  0.0761  0.2291
 9467TIP3   OH228364   3.795   0.887   2.594 -0.4412 -0.2244  0.0581
 9467TIP3    H128365   3.825   0.925   2.677 -0.2241 -0.5810  0.1421
 9467TIP3    H228366   3.711   0.930   2.578 -0.6783 -0.4429  0.6679
 9468TIP3   OH228367   6.183   6.700   2.411  0.1112  0.2542 -0.1193
 9468TIP3    H128368   6.205   6.723   2.320 -0.7604  2.0300  0.0681
 9468TIP3    H228369   6.088   6.698   2.412  0.1244 -0.2335  0.6660
 9469TIP3   OH228370   0.957   5.420   3.704  0.1132  0.0196  0.0548
 9469TIP3    H128371   0.982   5.446   3.793  0.8858 -2.4586  0.6344
 9469TIP3    H228372   0.862   5.411   3.707 -0.0827  1.7395  0.0672
 9470TIP3   OH228373   1.887   2.259   2.023 -0.1140 -0.4558  0.3519
 9470TIP3    H128374   1.868   2.290   2.112 -0.7944  0.5126 -0.1083
 9470TIP3    H228375   1.890   2.164   2.031  2.3305 -0.3231  1.8878
 9471TIP3   OH228376   0.789   3.845   2.577 -0.3711 -0.5008  0.4917
 9471TIP3    H128377   0.773   3.753   2.601 -1.7129 -0.4244  0.0029
 9471TIP3    H228378   0.702   3.878   2.554  0.3301  0.4503 -0.8785
 9472TIP3   OH228379   1.189   0.060   4.073  0.2695  0.5352 -0.5526
 9472TIP3    H128380   1.178   0.026   3.984  0.8716 -0.2334 -0.3476
 9472TIP3    H228381   1.130   0.006   4.126  1.0772 -0.0866 -0.2570
 9473TIP3   OH228382   6.701   3.641   3.708 -0.2005  0.2649  0.5188
 9473TIP3    H128383   6.631   3.594   3.752  1.0006 -1.2265  0.9372
 9473TIP3    H228384   6.711   3.722   3.758 -0.8010 -0.0760  1.2136
 9474TIP3   OH228385   4.487   2.123   0.451  0.5477 -0.1605 -0.4249
 9474TIP3    H128386   4.554   2.182   0.417  2.3465 -0.9546  1.5265
 9474TIP3    H228387   4.536   2.049   0.488 -1.4006 -0.8076  1.0327
 9475TIP3   OH228388   3.563   4.546   0.303  0.2502  0.4426  0.1513
 9475TIP3    H128389   3.480   4.569   0.262  0.2481  0.1722  0.0021
 9475TIP3    H228390   3.539   4.514   0.389  0.1626 -0.0766 -0.0666
 9476TIP3   OH228391   0.867   3.898   1.395  0.4590  0.6292 -0.3876
 9476TIP3    H128392   0.859   3.810   1.359  2.8939  0.5741 -1.0217
 9476TIP3    H228393   0.838   3.956   1.325 -1.6987  0.3865  0.2300
 9477TIP3   OH228394   1.872   1.481   4.263  0.1610  0.3983  0.1212
 9477TIP3    H128395   1.947   1.422   4.251 -0.6916 -1.0633  1.6272
 9477TIP3    H228396   1.822   1.473   4.183  0.7321  0.0906 -0.2118
 9478TIP3   OH228397   3.693   3.923   0.065  0.7039  0.0793  0.7820
 9478TIP3    H128398   3.623   3.883   0.014  0.1383  0.1200  1.5099
 9478TIP3    H228399   3.685   4.017   0.048  0.9924  0.0292  0.3610
 9479TIP3   OH228400   0.466   4.898   1.259  0.3235  0.3383 -0.0738
 9479TIP3    H128401   0.372   4.896   1.242  0.3635 -0.8790 -0.2404
 9479TIP3    H228402   0.474   4.878   1.353  0.3174  2.9871  0.5753
 9480TIP3   OH228403   2.569   6.250   5.447  0.3382 -0.2065  0.1529
 9480TIP3    H128404   2.603   6.239   5.358 -0.9867 -1.4434 -0.2531
 9480TIP3    H228405   2.620   6.322   5.484  2.3762 -1.0531 -0.8593
 9481TIP3   OH228406   1.862   3.872   5.255  0.2099  0.3590  0.7342
 9481TIP3    H128407   1.935   3.834   5.206 -1.2486 -1.4434 -0.1913
 9481TIP3    H228408   1.882   3.965   5.260  0.4292  0.7149 -3.4651
 9482TIP3   OH228409   4.161   3.429   4.977  0.0166 -0.2685 -0.1993
 9482TIP3    H128410   4.224   3.394   4.914  0.2437  0.0203 -0.1348
 9482TIP3    H228411   4.090   3.464   4.923 -1.0263 -2.2973 -0.2414
 9483TIP3   OH228412   4.619   3.544   1.453  0.7807 -0.1031 -0.1122
 9483TIP3    H128413   4.700   3.549   1.400  0.1441  2.3472 -0.9572
 9483TIP3    H228414   4.647   3.503   1.535  2.8611  0.5243 -0.4444
 9484TIP3   OH228415   1.261   2.569   0.894  0.1878  0.2306 -0.1615
 9484TIP3    H128416   1.341   2.519   0.879 -0.0513  0.2137 -1.5721
 9484TIP3    H228417   1.239   2.554   0.986  0.3049 -1.9896 -0.4495
 9485TIP3   OH228418   5.014   2.885   0.597  0.2025 -0.2006 -0.1297
 9485TIP3    H128419   4.955   2.945   0.643 -1.1886 -1.7376  0.1588
 9485TIP3    H228420   5.097   2.892   0.645 -0.4749  0.1186  1.0412
 9486TIP3   OH228421   6.650   6.364   5.619 -0.0369  0.2206 -0.0365
 9486TIP3    H128422   6.670   6.273   5.637 -1.6948  0.0930  1.3967
 9486TIP3    H228423   6.721   6.394   5.562  1.4122 -1.4836  0.8042
 9487TIP3   OH228424   3.435   6.386   3.685 -0.1773 -0.0798  0.2592
 9487TIP3    H128425   3.499   6.457   3.690  1.9413 -1.7479 -1.2267
 9487TIP3    H228426   3.437   6.346   3.772  0.3032  0.2848  0.4225
 9488TIP3   OH228427   3.196   3.677   1.337  0.2763  0.1693 -0.3557
 9488TIP3    H128428   3.106   3.660   1.310 -0.0382 -0.2364  0.8913
 9488TIP3    H228429   3.247   3.608   1.294 -0.0864  0.0640 -0.6166
 9489TIP3   OH228430   3.667   0.590   3.414  0.7032 -0.6351  0.5962
 9489TIP3    H128431   3.621   0.541   3.483  2.2465  0.2818  2.3526
 9489TIP3    H228432   3.749   0.617   3.455  0.2169  2.9023 -0.4369
 9490TIP3   OH228433   6.408   1.229   0.221 -0.3176  0.2362  0.0077
 9490TIP3    H128434   6.318   1.251   0.196 -0.1668 -0.5195 -1.2969
 9490TIP3    H228435   6.423   1.142   0.183  1.4402  0.9547 -1.0964
 9491TIP3   OH228436   0.512   3.538   3.320  0.1969  0.2026  0.1200
 9491TIP3    H128437   0.527   3.580   3.235 -0.4231  0.8352  0.3109
 9491TIP3    H228438   0.564   3.458   3.318 -2.0273 -1.3256 -1.9962
 9492TIP3   OH228439   2.209   4.241   2.700  0.3144 -0.4388  0.6444
 9492TIP3    H128440   2.165   4.183   2.638 -0.9509 -1.3722  2.3349
 9492TIP3    H228441   2.189   4.329   2.669 -1.1284 -0.8797  0.2507
 9493TIP3   OH228442   4.954   6.366   4.278  0.5388 -0.4928  0.1708
 9493TIP3    H128443   5.005   6.377   4.198  0.1820  0.1600  0.0245
 9493TIP3    H228444   4.935   6.273   4.282  2.5890 -0.9498  0.7597
 9494TIP3   OH228445   3.676   3.323   5.286  0.0165  0.2385  0.0888
 9494TIP3    H128446   3.683   3.240   5.239  1.3139 -0.1436  0.9222
 9494TIP3    H228447   3.687   3.390   5.218 -1.7704 -0.2160 -0.7120
 9495TIP3   OH228448   4.578   2.473   5.852 -0.2287  0.1966 -0.1751
 9495TIP3    H128449   4.591   2.432   5.937 -0.7645 -0.7278 -0.5333
 9495TIP3    H228450   4.524   2.412   5.803  0.6624  0.3875 -1.4416
 9496TIP3   OH228451   1.995   1.220   5.518  0.1299  0.5887  0.0844
 9496TIP3    H128452   1.975   1.311   5.542 -1.3192  0.3147  0.0177
 9496TIP3    H228453   2.067   1.227   5.455  1.3951  1.5467  1.5592
 9497TIP3   OH228454   1.029   5.432   1.151 -0.4632  0.1468  0.4229
 9497TIP3    H128455   0.993   5.411   1.237 -1.3800  0.6224  0.1598
 9497TIP3    H228456   1.118   5.396   1.153 -2.0922 -4.5259 -0.2700
 9498TIP3   OH228457   6.943   0.982   1.232 -0.2032  0.0464  0.5031
 9498TIP3    H128458   6.992   1.006   1.310  0.9583  0.1186 -0.2379
 9498TIP3    H228459   6.973   0.894   1.211 -0.1669  0.2074 -0.1337
 9499TIP3   OH228460   1.900   4.053   0.648 -0.3121  0.1911 -0.0837
 9499TIP3    H128461   1.889   3.961   0.622  0.9493 -0.7629  2.3843
 9499TIP3    H228462   1.811   4.089   0.648 -0.8251 -0.9799 -1.1755
 9500TIP3   OH228463   6.858   5.539   1.124  0.6884  0.7539  0.0793
 9500TIP3    H128464   6.928   5.574   1.179  2.0412  0.4069 -1.3529
 9500TIP3    H228465   6.834   5.611   1.066 -0.5876  1.0565  0.9493
 9501TIP3   OH228466   4.301   6.337   1.752 -0.0551 -0.0344  0.4058
 9501TIP3    H128467   4.247   6.296   1.684 -1.0996  0.9617  0.5961
 9501TIP3    H228468   4.258   6.315   1.834  1.0128 -0.9422  0.7438
 9502TIP3   OH228469   3.603   1.039   4.587  0.3793 -0.0601  0.3068
 9502TIP3    H128470   3.698   1.041   4.596  0.5511  0.0034 -1.1773
 9502TIP3    H228471   3.588   1.014   4.495 -1.0393 -0.4573  0.6170
 9503TIP3   OH228472   4.784   0.092   2.736 -0.3225 -0.1527 -0.2248
 9503TIP3    H128473   4.779   0.057   2.647  0.2303  0.8156 -0.6416
 9503TIP3    H228474   4.711   0.154   2.742 -0.0682  0.1384 -0.1562
 9504TIP3   OH228475   3.961   3.828   1.473  0.2621 -0.0861 -0.0813
 9504TIP3    H128476   4.012   3.860   1.398  1.8006 -0.6082  0.6897
 9504TIP3    H228477   4.027   3.815   1.542 -1.2531  1.8225  1.8790
 9505TIP3   OH228478   5.499   3.454   3.316 -0.1947  0.6870 -0.4452
 9505TIP3    H128479   5.555   3.418   3.248  0.5493 -1.4873  1.2062
 9505TIP3    H228480   5.411   3.449   3.280  0.1277 -0.8202 -1.1141
 9506TIP3   OH228481   2.778   5.970   1.064  0.2191 -0.3554 -0.3054
 9506TIP3    H128482   2.699   5.951   1.014 -1.5500  1.1453  1.7151
 9506TIP3    H228483   2.827   6.032   1.009 -0.8253 -0.0483 -0.9176
 9507TIP3   OH228484   1.840   0.851   1.428 -0.6782  0.4846  0.3931
 9507TIP3    H128485   1.816   0.836   1.520  2.1811  1.4642  1.4099
 9507TIP3    H228486   1.853   0.946   1.422 -1.7067  0.5514 -1.2999
 9508TIP3   OH228487   5.488   6.428   3.156  0.3711  0.0251 -0.2274
 9508TIP3    H128488   5.491   6.383   3.240 -1.0094 -0.4381 -0.4073
 9508TIP3    H228489   5.548   6.503   3.167 -0.3333  0.3913  1.4128
 9509TIP3   OH228490   0.728   6.472   4.112 -0.1283  0.1198  0.4269
 9509TIP3    H128491   0.778   6.397   4.144 -0.8969 -0.2893  0.6934
 9509TIP3    H228492   0.636   6.449   4.129 -0.5554  0.0924 -1.6225
 9510TIP3   OH228493   0.728   0.449   4.096 -0.5531 -0.4081 -0.2990
 9510TIP3    H128494   0.661   0.497   4.047 -1.2680 -1.5168 -0.4433
 9510TIP3    H228495   0.680   0.381   4.143  0.3519 -0.5352  0.4748
 9511TIP3   OH228496   2.174   3.109   3.076 -0.3134 -0.0697  0.1638
 9511TIP3    H128497   2.138   3.148   3.156  0.8195  0.2543  0.5451
 9511TIP3    H228498   2.246   3.167   3.052  0.5535 -1.1772 -0.0210
 9512TIP3   OH228499   7.175   6.655   4.071  0.7086  0.2512  0.2451
 9512TIP3    H128500   7.080   6.641   4.067  0.7065  0.3983 -0.3550
 9512TIP3    H228501   7.212   6.577   4.031  0.8199  0.4589 -0.0595
 9513TIP3   OH228502   6.447   4.585   0.403  0.3669  0.0739 -0.4732
 9513TIP3    H128503   6.386   4.513   0.420  0.1036  0.4100  0.0116
 9513TIP3    H228504   6.484   4.565   0.317  0.2611 -0.6202 -0.3641
 9514TIP3   OH228505   6.194   0.441   0.765 -0.0708 -0.3606 -0.0278
 9514TIP3    H128506   6.108   0.462   0.800  0.4025 -1.2506  1.8310
 9514TIP3    H228507   6.254   0.496   0.815  0.8421 -3.2559  2.4085
 9515TIP3   OH228508   6.782   2.979   3.542  0.4070 -0.4988  0.4855
 9515TIP3    H128509   6.875   2.958   3.533  0.3116 -0.5127 -0.6129
 9515TIP3    H228510   6.781   3.058   3.596  1.1190  0.0233 -0.2406
 9516TIP3   OH228511   1.513   6.331   3.559  0.1348  0.1001 -0.5764
 9516TIP3    H128512   1.452   6.401   3.535 -0.9730 -0.7816 -0.4601
 9516TIP3    H228513   1.564   6.367   3.631  0.2385  1.1126 -1.1296
 9517TIP3   OH228514   1.989   5.778   0.682  0.0137 -0.1796 -0.2441
 9517TIP3    H128515   1.922   5.771   0.614  2.2570  0.0004 -2.6403
 9517TIP3    H228516   1.957   5.723   0.753 -2.3381 -0.6044 -1.5327
 9518TIP3   OH228517   1.203   5.092   0.879 -0.0825 -0.4180 -0.1811
 9518TIP3    H128518   1.292   5.107   0.911  0.5713 -0.8529 -1.6785
 9518TIP3    H228519   1.151   5.075   0.957  0.8131  1.4015  0.8694
 9519TIP3   OH228520   4.770   2.179   2.692  0.4927 -0.0678 -0.4728
 9519TIP3    H128521   4.740   2.133   2.770  0.0927  0.9039 -0.0349
 9519TIP3    H228522   4.781   2.270   2.721 -1.9414  0.8168 -2.0916
 9520TIP3   OH228523   2.842   0.168   2.263  0.0806 -0.0906 -0.2560
 9520TIP3    H128524   2.852   0.089   2.317  1.2939  0.3091  0.1551
 9520TIP3    H228525   2.865   0.240   2.322 -0.4734  0.5221 -0.7787
 9521TIP3   OH228526   5.417   1.032   3.109  0.6449 -0.0750  0.6143
 9521TIP3    H128527   5.446   0.992   3.191  2.0308  0.0360  0.2066
 9521TIP3    H228528   5.479   1.103   3.094 -1.0975  1.5332  0.7447
 9522TIP3   OH228529   2.174   2.834   5.819 -0.7836  0.0442 -0.2175
 9522TIP3    H128530   2.240   2.773   5.849 -2.6309 -1.4270  1.0927
 9522TIP3    H228531   2.153   2.888   5.895 -0.9813  0.6051 -0.6566
 9523TIP3   OH228532   0.902   2.044   2.648 -0.0839  0.1713 -0.0544
 9523TIP3    H128533   0.814   2.027   2.681 -0.4744  3.4782  1.0140
 9523TIP3    H228534   0.897   2.025   2.554 -2.6746  2.3651 -0.4682
 9524TIP3   OH228535   0.876   4.837   1.680  0.3950  0.0124 -0.7449
 9524TIP3    H128536   0.885   4.931   1.662 -0.5926  0.2564 -0.0624
 9524TIP3    H228537   0.960   4.812   1.717  0.5732  0.6897 -0.6722
 9525TIP3   OH228538   6.956   0.753   5.620 -0.0686  0.1405  0.0625
 9525TIP3    H128539   7.023   0.753   5.688  1.0597  0.3080 -1.0051
 9525TIP3    H228540   6.953   0.843   5.589 -0.7904  0.1321  0.0858
 9526TIP3   OH228541   3.291   4.916   4.220  0.7755 -0.0402  0.0639
 9526TIP3    H128542   3.268   5.009   4.214  0.9080  0.0113  0.3063
 9526TIP3    H228543   3.274   4.894   4.312 -3.0227 -1.2571 -0.7632
 9527TIP3   OH228544   5.889   3.221   5.769  0.0874  0.3586  0.2231
 9527TIP3    H128545   5.891   3.129   5.744 -1.3702  0.4742 -0.3922
 9527TIP3    H228546   5.981   3.247   5.770  0.5090 -1.0551  0.2485
 9528TIP3   OH228547   0.193   0.414   0.090 -0.3909  0.1942 -0.0960
 9528TIP3    H128548   0.110   0.366   0.088 -0.4683  0.1678  1.7167
 9528TIP3    H228549   0.260   0.346   0.084 -0.4445  0.2741 -2.4215
 9529TIP3   OH228550   3.356   0.115   2.384 -0.2528  0.2594  0.0261
 9529TIP3    H128551   3.441   0.080   2.411  0.1845  0.4647 -1.0097
 9529TIP3    H228552   3.365   0.210   2.396 -0.6495  0.2140  0.7288
 9530TIP3   OH228553   5.333   2.900   3.792 -0.0329 -0.2095  0.0332
 9530TIP3    H128554   5.318   2.883   3.885 -0.7590 -2.3662 -0.4312
 9530TIP3    H228555   5.275   2.839   3.747  0.1969  0.8959 -1.8603
 9531TIP3   OH228556   6.586   0.488   2.578  0.5812 -0.2018  0.1011
 9531TIP3    H128557   6.621   0.399   2.582 -1.2862 -0.9273  1.5745
 9531TIP3    H228558   6.608   0.526   2.663 -0.4125  0.0363  0.2541
 9532TIP3   OH228559   1.722   0.336   1.986  0.6439  0.7199 -0.1408
 9532TIP3    H128560   1.718   0.423   2.025 -0.1369  0.6011  0.0793
 9532TIP3    H228561   1.671   0.343   1.905 -2.0175 -0.1910  1.2983
 9533TIP3   OH228562   6.716   4.753   3.275  0.0812  0.3950 -0.4649
 9533TIP3    H128563   6.678   4.707   3.350  2.4392  0.1249  0.6519
 9533TIP3    H228564   6.763   4.827   3.313  1.4369  0.1875 -1.6382
 9534TIP3   OH228565   3.867   3.875   4.665  0.2480 -0.3317  0.1580
 9534TIP3    H128566   3.829   3.787   4.672  0.5327 -0.4078  0.9351
 9534TIP3    H228567   3.912   3.887   4.749  0.3706  0.4824 -0.0220
 9535TIP3   OH228568   2.786   5.949   0.380  0.4816 -0.5684  0.7407
 9535TIP3    H128569   2.823   5.956   0.293  0.8521 -0.7748  0.8816
 9535TIP3    H228570   2.816   6.027   0.426  2.7627 -1.8719  1.6100
 9536TIP3   OH228571   0.209   4.997   2.339  0.5072 -0.0909  0.1203
 9536TIP3    H128572   0.156   4.921   2.316 -0.1208  0.9712 -2.2023
 9536TIP3    H228573   0.151   5.072   2.328  1.0253  0.7970  2.6367
 9537TIP3   OH228574   0.565   2.947   2.479  0.0612  0.3922 -0.5793
 9537TIP3    H128575   0.630   2.921   2.544 -0.4364  2.4288  0.8284
 9537TIP3    H228576   0.548   3.040   2.497 -0.5815  0.8824 -3.2315
 9538TIP3   OH228577   3.916   2.369   4.178  0.7892 -0.1065 -0.0404
 9538TIP3    H128578   3.854   2.394   4.110  1.6405  1.5713 -0.2388
 9538TIP3    H228579   3.990   2.428   4.167  0.9874  0.1944  2.3095
 9539TIP3   OH228580   2.726   1.720   3.834 -0.3091  0.3234 -0.0069
 9539TIP3    H128581   2.750   1.812   3.838 -1.2653  0.7047 -2.0671
 9539TIP3    H228582   2.807   1.674   3.857 -0.0243  1.6345  1.8464
 9540TIP3   OH228583   5.349   5.687   4.987 -0.0761 -0.4445 -0.1363
 9540TIP3    H128584   5.305   5.639   4.917 -0.1160 -0.4705 -0.0933
 9540TIP3    H228585   5.314   5.776   4.980  0.1393 -0.3736 -0.3365
 9541TIP3   OH228586   3.538   1.634   4.105  0.3638 -1.2875 -0.4346
 9541TIP3    H128587   3.468   1.648   4.041  0.7071  0.9531 -0.4183
 9541TIP3    H228588   3.505   1.674   4.186  1.2467 -1.1277 -0.1430
 9542TIP3   OH228589   5.596   1.754   1.220  0.3058 -0.2571 -0.0101
 9542TIP3    H128590   5.512   1.773   1.263  0.6438  1.6999 -0.1429
 9542TIP3    H228591   5.574   1.749   1.127  0.6047  2.5343 -0.3148
 9543TIP3   OH228592   1.198   0.036   3.810  0.7677  0.4767  1.1429
 9543TIP3    H128593   1.155   0.043   3.725 -1.3675 -2.0378  1.9078
 9543TIP3    H228594   1.224   0.126   3.830 -0.3329  1.4459 -1.3042
 9544TIP3   OH228595   2.396   0.453   2.894  0.3854  0.6433 -0.0277
 9544TIP3    H128596   2.306   0.446   2.864  0.2075  0.9406  0.4168
 9544TIP3    H228597   2.416   0.366   2.930 -0.1274  0.9051  0.9375
 9545TIP3   OH228598   4.661   0.328   5.336  0.1426 -0.1259  0.1919
 9545TIP3    H128599   4.741   0.357   5.292  1.1093 -3.1262 -0.2299
 9545TIP3    H228600   4.591   0.355   5.276  1.2135 -1.4331 -1.7586
 9546TIP3   OH228601   4.010   4.387   1.087 -0.4374 -0.5185  0.6519
 9546TIP3    H128602   4.088   4.431   1.054  0.3593 -0.7512  2.1176
 9546TIP3    H228603   4.032   4.294   1.083  0.0184 -0.5287  2.5056
 9547TIP3   OH228604   6.856   4.186   5.352 -0.0049  0.3459  0.4917
 9547TIP3    H128605   6.831   4.276   5.377 -0.9323 -0.1644  1.5133
 9547TIP3    H228606   6.811   4.171   5.269  0.2425  0.8610  0.2598
 9548TIP3   OH228607   1.820   2.156   5.674 -0.1081 -0.0735 -0.7057
 9548TIP3    H128608   1.909   2.161   5.709 -0.6413 -0.7965  0.8511
 9548TIP3    H228609   1.764   2.162   5.751 -1.4140  0.2130 -1.6509
 9549TIP3   OH228610   5.962   2.781   3.222  0.8248 -0.1132  0.0783
 9549TIP3    H128611   6.051   2.773   3.187  0.1460 -0.7536 -1.5845
 9549TIP3    H228612   5.926   2.858   3.178 -0.1590 -1.1267 -0.9384
 9550TIP3   OH228613   7.090   1.781   3.298 -0.7563  0.3238  0.0789
 9550TIP3    H128614   7.022   1.807   3.361  0.3637 -2.1788  2.5845
 9550TIP3    H228615   7.168   1.831   3.325  0.1209 -1.7924  1.8370
 9551TIP3   OH228616   1.888   4.485   1.632  0.8530  0.2612 -0.0595
 9551TIP3    H128617   1.811   4.437   1.601  0.2624 -0.7215  2.6516
 9551TIP3    H228618   1.853   4.568   1.664  0.8657 -0.2519  1.3257
 9552TIP3   OH228619   3.845   0.563   1.215  0.7593  0.0245  0.0995
 9552TIP3    H128620   3.754   0.536   1.212  0.1192  2.0746 -1.1117
 9552TIP3    H228621   3.883   0.514   1.287 -0.5586 -2.9587 -1.0898
 9553TIP3   OH228622   0.870   4.615   0.720 -0.0563 -0.0989  0.1531
 9553TIP3    H128623   0.916   4.666   0.652 -1.2506 -1.1553 -1.5230
 9553TIP3    H228624   0.939   4.559   0.757  0.4471 -0.1870 -0.8646
 9554TIP3   OH228625   2.579   1.583   0.465  0.6953  0.4222 -0.1291
 9554TIP3    H128626   2.633   1.530   0.407  1.6677  0.3955  0.7849
 9554TIP3    H228627   2.609   1.562   0.553 -0.5190  0.7322  0.3844
 9555TIP3   OH228628   1.566   5.669   1.417 -0.3909 -0.0014 -0.4559
 9555TIP3    H128629   1.494   5.666   1.353  0.7929  1.3702 -1.9466
 9555TIP3    H228630   1.641   5.701   1.367  0.6210  1.0874  1.6179
 9556TIP3   OH228631   5.795   2.191   3.269  0.0542  0.1123  0.3277
 9556TIP3    H128632   5.865   2.256   3.268 -0.3998  0.6385 -1.1387
 9556TIP3    H228633   5.767   2.186   3.177 -0.5999 -1.4247  0.5907
 9557TIP3   OH228634   0.244   1.727   1.238  0.5347 -0.3378 -0.6449
 9557TIP3    H128635   0.276   1.733   1.328  0.1283 -0.1036 -0.5128
 9557TIP3    H228636   0.251   1.634   1.216 -0.3041 -0.5602 -0.0213
 9558TIP3   OH228637   2.480   2.057   0.475  0.0403  0.2188  0.5187
 9558TIP3    H128638   2.551   2.083   0.415 -1.4868  0.6495 -1.1817
 9558TIP3    H228639   2.524   2.004   0.542  1.9435  0.3373 -0.5538
 9559TIP3   OH228640   3.060   1.440   4.360  0.0724  0.3521  0.1238
 9559TIP3    H128641   3.017   1.359   4.389 -0.0403  0.4478  0.2255
 9559TIP3    H228642   3.101   1.475   4.439 -2.9522  2.3393  0.9941
 9560TIP3   OH228643   2.437   0.533   3.488 -0.6428 -0.7170 -0.7914
 9560TIP3    H128644   2.457   0.523   3.395 -1.5399  1.8610 -1.3305
 9560TIP3    H228645   2.495   0.603   3.518  0.8023 -2.5787  1.0753
 9561TIP3   OH228646   4.942   2.257   5.434 -0.8375  0.6891  0.8841
 9561TIP3    H128647   4.966   2.336   5.385 -1.3203 -0.5105 -1.3866
 9561TIP3    H228648   4.871   2.218   5.384 -0.7409 -1.1196  2.0666
 9562TIP3   OH228649   3.799   0.986   5.724 -0.1740 -0.1704  0.1599
 9562TIP3    H128650   3.880   1.008   5.680 -0.9384  0.4174 -0.9884
 9562TIP3    H228651   3.769   0.905   5.681 -1.3483  0.8532 -1.0560
 9563TIP3   OH228652   3.761   4.094   1.361  0.0687 -0.2317 -0.1664
 9563TIP3    H128653   3.673   4.120   1.334 -0.0778  0.4427  0.8760
 9563TIP3    H228654   3.749   4.006   1.397  0.0209 -0.5762 -1.0228
 9564TIP3   OH228655   1.008   0.131   1.865 -0.0902  0.2659  0.4037
 9564TIP3    H128656   0.925   0.128   1.913 -0.5706  3.1446 -0.0141
 9564TIP3    H228657   1.012   0.221   1.832  1.5911 -0.7651 -2.5261
 9565TIP3   OH228658   0.968   3.781   5.715  0.3362 -0.1913 -0.3878
 9565TIP3    H128659   1.002   3.711   5.659  0.1061 -0.4164 -0.2499
 9565TIP3    H228660   1.043   3.837   5.732  1.3039 -2.0730  2.0382
 9566TIP3   OH228661   5.377   6.585   4.623  0.2463  0.8208  0.9185
 9566TIP3    H128662   5.453   6.558   4.675  1.0089  1.5116  0.1828
 9566TIP3    H228663   5.302   6.557   4.675  0.9906 -0.3982  1.3956
 9567TIP3   OH228664   1.047   3.168   1.602 -0.0459 -0.1772  0.4861
 9567TIP3    H128665   0.972   3.108   1.607  1.6438 -2.6698 -1.6423
 9567TIP3    H228666   1.050   3.194   1.510  2.2351 -0.9923  0.2668
 9568TIP3   OH228667   1.915   2.148   0.629 -0.1548 -0.4928 -0.6596
 9568TIP3    H128668   1.857   2.114   0.698 -0.5098  1.6121  0.1444
 9568TIP3    H228669   2.003   2.119   0.655 -0.3533 -0.1783  0.3916
 9569TIP3   OH228670   4.203   4.335   3.389  0.1391  0.9125 -0.7466
 9569TIP3    H128671   4.110   4.323   3.406  0.3922 -0.9226 -0.4591
 9569TIP3    H228672   4.238   4.246   3.379  1.6278  1.5911 -2.1619
 9570TIP3   OH228673   4.024   5.589   2.257 -0.1397 -0.1795 -0.1192
 9570TIP3    H128674   4.059   5.658   2.201  1.5698  0.6579  1.8491
 9570TIP3    H228675   3.965   5.539   2.200  0.3600  1.4909 -2.2149
 9571TIP3   OH228676   0.209   5.997   0.794 -0.1297 -0.2177 -0.4255
 9571TIP3    H128677   0.216   6.020   0.887  0.9694  1.1377 -0.8186
 9571TIP3    H228678   0.119   5.967   0.784 -0.4155  0.0971  0.9746
 9572TIP3   OH228679   5.371   6.447   4.098  0.1700  0.2209  0.5356
 9572TIP3    H128680   5.282   6.480   4.088  0.1082 -0.2596 -0.6300
 9572TIP3    H228681   5.376   6.419   4.189 -0.9237  0.0883  0.5627
 9573TIP3   OH228682   4.312   4.981   4.435  0.2742 -0.3481 -0.3208
 9573TIP3    H128683   4.380   4.920   4.407 -0.2781 -0.7452 -0.8149
 9573TIP3    H228684   4.265   4.934   4.504 -0.7180 -0.8605 -1.3147
 9574TIP3   OH228685   0.265   1.782   1.534  0.2008 -0.5271 -0.4426
 9574TIP3    H128686   0.188   1.752   1.582  0.6947 -0.4190  0.4529
 9574TIP3    H228687   0.250   1.875   1.519  1.0614  0.0124  1.6334
 9575TIP3   OH228688   7.155   4.122   2.758  0.5184  0.0295 -0.6854
 9575TIP3    H128689   7.064   4.125   2.727  1.0250 -1.0215 -2.4315
 9575TIP3    H228690   7.155   4.051   2.823  0.4854 -1.5596 -2.3329
 9576TIP3   OH228691   6.670   5.360   2.465 -0.0505 -0.2386 -0.1656
 9576TIP3    H128692   6.642   5.322   2.382  0.6534 -1.0906 -0.0210
 9576TIP3    H228693   6.740   5.303   2.496 -1.3785 -0.8859  1.8196
 9577TIP3   OH228694   5.484   3.183   2.666 -0.2280  0.3240 -0.0389
 9577TIP3    H128695   5.477   3.143   2.752  0.7206  0.5183  0.1388
 9577TIP3    H228696   5.464   3.112   2.605 -3.3003  0.7369  0.3436
 9578TIP3   OH228697   5.131   4.253   3.585 -0.2719 -0.0783  0.2367
 9578TIP3    H128698   5.163   4.334   3.625  1.4660 -0.6719  0.1334
 9578TIP3    H228699   5.126   4.273   3.492 -0.5656  0.1283  0.2949
 9579TIP3   OH228700   5.203   4.980   2.535  0.7110  0.0644 -0.2005
 9579TIP3    H128701   5.218   4.899   2.486  2.2608  1.6261 -2.5263
 9579TIP3    H228702   5.113   5.004   2.517  0.7308 -0.3279 -0.8313
 9580TIP3   OH228703   3.995   0.358   2.350 -0.0500  0.5384 -0.0578
 9580TIP3    H128704   4.076   0.346   2.301  0.0234 -1.5468  0.4767
 9580TIP3    H228705   4.022   0.392   2.435  0.1876  0.5945 -0.1564
 9581TIP3   OH228706   6.262   4.738   1.809  0.3052 -0.0159  0.0875
 9581TIP3    H128707   6.296   4.663   1.857  0.4218  0.5549  0.9139
 9581TIP3    H228708   6.203   4.700   1.743 -0.2488 -0.7853  1.0060
 9582TIP3   OH228709   6.954   5.291   3.321 -0.2094 -0.2611  0.3743
 9582TIP3    H128710   6.865   5.274   3.291 -0.0296  0.7578 -0.8262
 9582TIP3    H228711   7.010   5.246   3.257  0.1454 -0.3873  0.7674
 9583TIP3   OH228712   5.471   2.452   1.388 -0.6803  0.1434  0.0546
 9583TIP3    H128713   5.525   2.409   1.455 -0.6775  1.4677  0.9606
 9583TIP3    H228714   5.531   2.515   1.346 -1.2220  0.8603  0.3264
 9584TIP3   OH228715   6.391   1.214   2.677 -0.0664  0.0093 -0.2694
 9584TIP3    H128716   6.355   1.168   2.752  3.0699  0.8749  1.9498
 9584TIP3    H228717   6.336   1.292   2.667 -1.1471 -0.6468  0.4104
 9585TIP3   OH228718   4.990   2.592   4.173 -1.0895 -0.0467 -0.1607
 9585TIP3    H128719   5.070   2.539   4.176 -1.2917 -0.4247 -1.1460
 9585TIP3    H228720   4.989   2.638   4.257  0.9210  1.0700 -0.6789
 9586TIP3   OH228721   4.705   3.560   0.829 -0.2373 -0.3475  0.2102
 9586TIP3    H128722   4.795   3.529   0.843  0.8573  1.6928 -1.6611
 9586TIP3    H228723   4.677   3.516   0.749  0.4094  1.4811 -1.0769
 9587TIP3   OH228724   3.054   3.928   3.502 -0.1596  0.4312  0.7045
 9587TIP3    H128725   2.973   3.891   3.467  0.8769 -0.1324 -1.3050
 9587TIP3    H228726   3.070   3.880   3.583 -1.6254  0.2898  0.9334
 9588TIP3   OH228727   2.711   4.714   2.768  0.6936  0.1926  0.3423
 9588TIP3    H128728   2.768   4.769   2.822  0.0630  0.1270  1.0855
 9588TIP3    H228729   2.698   4.764   2.687  0.8721  0.7188  0.6384
 9589TIP3   OH228730   6.932   2.523   1.912 -0.7253  0.4846 -1.1040
 9589TIP3    H128731   6.923   2.468   1.990 -0.7945  1.2804 -0.5445
 9589TIP3    H228732   6.967   2.606   1.944 -0.1455  0.6064 -2.0128
 9590TIP3   OH228733   2.592   5.883   5.304  0.6063 -0.1856 -0.0114
 9590TIP3    H128734   2.664   5.928   5.350  0.6803  1.0889 -1.2926
 9590TIP3    H228735   2.542   5.841   5.374  0.8337  1.4788  1.2210
 9591TIP3   OH228736   3.806   1.275   2.155 -0.1549  0.0207  0.1328
 9591TIP3    H128737   3.754   1.329   2.095 -2.4488 -3.1219 -0.9855
 9591TIP3    H228738   3.753   1.271   2.235  0.6800  0.5099  0.7227
 9592TIP3   OH228739   2.668   2.215   2.077 -0.0101 -0.2522 -0.2211
 9592TIP3    H128740   2.669   2.142   2.015 -0.0801 -2.0142  1.7689
 9592TIP3    H228741   2.761   2.238   2.086  0.0983 -0.6911 -0.1806
 9593TIP3   OH228742   7.138   1.703   5.225  0.3459  0.1677 -0.4510
 9593TIP3    H128743   7.143   1.796   5.248  2.2610  0.6731 -2.6096
 9593TIP3    H228744   7.169   1.699   5.134  0.8408 -2.6505 -0.2362
 9594TIP3   OH228745   1.448   1.552   2.420  0.4407 -0.0775  0.2446
 9594TIP3    H128746   1.512   1.523   2.355  0.8347  0.4570  0.3970
 9594TIP3    H228747   1.492   1.542   2.504 -0.3539 -1.5745  0.5226
 9595TIP3   OH228748   6.156   5.494   2.496  0.7029  0.2500 -0.0665
 9595TIP3    H128749   6.146   5.573   2.550  0.7317 -0.1684  0.5508
 9595TIP3    H228750   6.246   5.499   2.464  1.2744 -0.3948  1.3605
 9596TIP3   OH228751   0.898   5.589   3.300 -0.2592 -0.8456 -0.2606
 9596TIP3    H128752   0.881   5.598   3.206 -2.8166 -0.0010  0.1929
 9596TIP3    H228753   0.912   5.679   3.330  1.0643 -1.1587  0.1199
 9597TIP3   OH228754   3.746   6.033   3.887  0.1672 -0.0424  0.2529
 9597TIP3    H128755   3.794   6.016   3.968 -0.6262 -0.0106  0.7402
 9597TIP3    H228756   3.745   6.129   3.879  0.3810 -0.0496  0.1130
 9598TIP3   OH228757   3.582   3.743   1.618  0.2018 -0.1656 -0.5439
 9598TIP3    H128758   3.535   3.738   1.535 -0.3114 -0.6761 -0.2283
 9598TIP3    H228759   3.588   3.652   1.648  0.1399  0.0436  0.1149
 9599TIP3   OH228760   3.458   1.556   4.854  0.1259  0.6675 -0.4014
 9599TIP3    H128761   3.395   1.511   4.911  0.8497 -0.0762 -0.1643
 9599TIP3    H228762   3.427   1.646   4.849  0.9778  1.2127  2.5931
 9600TIP3   OH228763   3.518   3.362   4.330  0.7913 -0.2821  0.4050
 9600TIP3    H128764   3.446   3.374   4.268  0.8746  0.1089  0.3845
 9600TIP3    H228765   3.597   3.368   4.277  0.8249 -1.7308  0.2537
 9601TIP3   OH228766   4.597   2.545   1.210  0.0462  0.2261  0.1532
 9601TIP3    H128767   4.665   2.591   1.161  1.3321  0.4873  2.0526
 9601TIP3    H228768   4.520   2.549   1.154  0.5699  3.1582 -0.5373
 9602TIP3   OH228769   3.700   2.005   4.738  0.5989 -0.0424  0.4181
 9602TIP3    H128770   3.748   2.056   4.803  0.5540  0.0725  0.3610
 9602TIP3    H228771   3.766   1.944   4.703  0.6533 -0.0218  0.4831
 9603TIP3   OH228772   4.502   3.916   4.838 -0.2349 -0.1944 -0.4598
 9603TIP3    H128773   4.520   3.823   4.831  0.6985  0.0664 -1.9440
 9603TIP3    H228774   4.406   3.922   4.834 -0.2817 -1.0547 -0.9807
 9604TIP3   OH228775   6.308   3.029   1.429  0.1781 -0.1386 -0.2562
 9604TIP3    H128776   6.296   2.975   1.508 -0.9466  0.3712 -0.0468
 9604TIP3    H228777   6.219   3.049   1.401  0.5425 -0.8647 -2.0777
 9605TIP3   OH228778   0.525   3.368   2.895  0.3462 -0.3512 -0.2033
 9605TIP3    H128779   0.580   3.410   2.829  0.4224 -0.0504  0.0476
 9605TIP3    H228780   0.436   3.371   2.859  0.6706 -2.1236 -1.2586
 9606TIP3   OH228781   7.151   6.214   5.681 -0.6107 -0.0065 -0.3932
 9606TIP3    H128782   7.157   6.267   5.761  0.7315 -0.8759  0.1086
 9606TIP3    H228783   7.207   6.259   5.618 -1.4932  0.5552 -0.8015
 9607TIP3   OH228784   4.743   5.323   3.204 -0.1631  0.7138 -0.0277
 9607TIP3    H128785   4.779   5.324   3.115  0.3515  1.0990  0.1818
 9607TIP3    H228786   4.721   5.231   3.219  0.2137  0.5613 -0.3737
 9608TIP3   OH228787   4.508   5.916   4.583 -0.4572 -0.3676  0.2488
 9608TIP3    H128788   4.418   5.887   4.599 -0.8621 -0.4569 -1.9072
 9608TIP3    H228789   4.500   6.011   4.569  0.1671  0.0529  2.3165
 9609TIP3   OH228790   1.300   0.560   3.309  0.2781  0.0912  0.2195
 9609TIP3    H128791   1.215   0.519   3.296  1.4984 -2.9647  1.1368
 9609TIP3    H228792   1.324   0.595   3.223 -0.8636 -1.1017 -0.6070
 9610TIP3   OH228793   3.802   3.327   2.160 -0.2268 -0.0740  0.0882
 9610TIP3    H128794   3.866   3.294   2.098 -0.1654 -0.5846  0.4207
 9610TIP3    H228795   3.794   3.420   2.139 -1.3925 -0.5306 -1.7531
 9611TIP3   OH228796   4.373   5.760   4.364 -1.0382  0.3747  0.0436
 9611TIP3    H128797   4.348   5.818   4.291 -0.8620  0.5726  0.1370
 9611TIP3    H228798   4.465   5.781   4.380 -0.7897 -0.3869 -0.3410
 9612TIP3   OH228799   7.180   0.187   1.477 -0.1949  0.4251 -0.1088
 9612TIP3    H128800   7.126   0.237   1.416 -0.4750 -0.5939 -0.7057
 9612TIP3    H228801   7.118   0.152   1.541  0.0619  1.2379  0.6064
 9613TIP3   OH228802   0.945   4.796   0.085  0.2765  0.5707  0.6338
 9613TIP3    H128803   0.901   4.741   0.150  1.4679 -1.3464 -0.1011
 9613TIP3    H228804   0.882   4.805   0.014  0.6445 -1.3720 -0.0011
 9614TIP3   OH228805   0.964   6.359   3.499  0.4914  0.2899 -0.0234
 9614TIP3    H128806   0.874   6.377   3.525 -0.2340 -1.5873 -0.9967
 9614TIP3    H228807   1.009   6.339   3.581 -1.2257 -3.4299  0.2587
 9615TIP3   OH228808   4.057   6.378   5.228 -0.0090 -0.0253 -0.3487
 9615TIP3    H128809   4.057   6.417   5.316 -0.4899 -2.5101  0.8231
 9615TIP3    H228810   4.150   6.362   5.210 -0.0065 -0.8478  0.3528
 9616TIP3   OH228811   1.621   3.185   3.878  0.0837  0.1169 -0.1163
 9616TIP3    H128812   1.691   3.213   3.936 -0.9743  2.5795  0.0839
 9616TIP3    H228813   1.645   3.096   3.852  3.0991  0.7448  0.1834
 9617TIP3   OH228814   6.938   4.980   5.693  0.7055 -0.0652 -0.0171
 9617TIP3    H128815   7.000   4.967   5.621 -1.7015 -0.1552 -2.2482
 9617TIP3    H228816   6.852   4.973   5.651 -0.8446  2.2967  2.4701
 9618TIP3   OH228817   0.270   3.751   0.555  0.1228  1.0860  0.5876
 9618TIP3    H128818   0.316   3.689   0.498 -0.5683  0.2984  0.8697
 9618TIP3    H228819   0.336   3.776   0.620  0.6884  1.3984 -0.0936
 9619TIP3   OH228820   3.829   3.095   3.616  0.3909 -0.1781  0.1703
 9619TIP3    H128821   3.802   3.070   3.527  1.4766 -0.7212 -0.0289
 9619TIP3    H228822   3.869   3.181   3.605  1.1865 -0.5567 -0.0129
 9620TIP3   OH228823   5.829   0.175   5.193  0.2181 -0.2090 -0.7459
 9620TIP3    H128824   5.788   0.237   5.134 -0.6368  0.9110  0.9316
 9620TIP3    H228825   5.832   0.093   5.144 -4.8186 -0.6358 -0.8386
 9621TIP3   OH228826   0.434   3.351   5.663 -0.0758  0.2312  0.2641
 9621TIP3    H128827   0.516   3.344   5.615  0.3924  0.0107  1.0813
 9621TIP3    H228828   0.434   3.440   5.699 -0.6340  0.5504 -0.5047
 9622TIP3   OH228829   2.047   3.374   2.526 -0.8073 -0.3014 -0.1712
 9622TIP3    H128830   2.027   3.312   2.596 -0.9349 -0.2724 -0.1806
 9622TIP3    H228831   2.050   3.459   2.569  0.5559 -0.4450  0.0514
 9623TIP3   OH228832   2.802   5.850   4.451  0.2069 -0.5604 -0.4439
 9623TIP3    H128833   2.849   5.815   4.375  0.5393 -2.3813  0.5546
 9623TIP3    H228834   2.710   5.841   4.428  0.1844  2.6259 -2.2288
 9624TIP3   OH228835   4.189   5.923   1.810 -0.4780  0.1250 -0.5879
 9624TIP3    H128836   4.257   5.864   1.779 -0.0113  0.4058 -0.1041
 9624TIP3    H228837   4.156   5.966   1.731 -0.6721 -0.6151 -0.9196
 9625TIP3   OH228838   5.216   3.059   2.272  0.2756 -0.2560 -0.7137
 9625TIP3    H128839   5.224   2.968   2.242  0.4984  0.2002 -2.1311
 9625TIP3    H228840   5.146   3.056   2.337  0.3954 -1.4661 -0.6025
 9626TIP3   OH228841   0.037   2.413   3.887  0.6284  0.8364 -0.5180
 9626TIP3    H128842  -0.056   2.435   3.881  0.3114 -0.2423  0.1791
 9626TIP3    H228843   0.042   2.345   3.955  1.9202  0.8462 -0.5656
 9627TIP3   OH228844   0.808   6.729   5.662 -0.0707 -0.5175 -0.3262
 9627TIP3    H128845   0.895   6.756   5.694 -0.6749 -0.0341  0.9887
 9627TIP3    H228846   0.784   6.798   5.600  0.3500 -0.4832 -0.4577
 9628TIP3   OH228847   4.189   4.019   5.850  0.8171  0.2135 -0.5150
 9628TIP3    H128848   4.142   4.099   5.826 -1.3590 -1.0680 -0.8384
 9628TIP3    H228849   4.155   3.997   5.937  2.5439  0.4211  0.2422
 9629TIP3   OH228850   4.768   6.045   0.009 -0.3541  0.1050 -0.1354
 9629TIP3    H128851   4.754   5.951   0.011 -0.0689  0.0752  0.5277
 9629TIP3    H228852   4.859   6.057   0.035  0.2421  0.4424 -2.2241
 9630TIP3   OH228853   6.805   1.874   2.807  0.2551  0.5939  0.2218
 9630TIP3    H128854   6.856   1.793   2.799  0.3900  0.8372 -1.7214
 9630TIP3    H228855   6.717   1.849   2.782 -0.2783  0.5540  1.9740
 9631TIP3   OH228856   4.011   2.500   0.874 -0.2484 -0.1074 -0.2733
 9631TIP3    H128857   3.928   2.537   0.904 -0.0596 -0.0442  0.1744
 9631TIP3    H228858   4.011   2.411   0.910 -0.0702 -0.0693 -0.1810
 9632TIP3   OH228859   4.081   0.825   2.975  0.2594  0.4566  0.2776
 9632TIP3    H128860   4.097   0.739   2.936  0.1854  0.8349 -0.6023
 9632TIP3    H228861   4.066   0.806   3.068 -0.7822 -0.5892 -0.0793
 9633TIP3   OH228862   6.994   2.978   0.570  0.0074 -0.4935 -0.8696
 9633TIP3    H128863   7.070   2.934   0.608 -1.5237 -0.5942  2.4138
 9633TIP3    H228864   6.957   2.914   0.509  1.4735 -1.1601 -1.0949
 9634TIP3   OH228865   5.295   3.734   1.548  0.2983  0.1112 -0.4901
 9634TIP3    H128866   5.271   3.685   1.470 -1.9086  0.5032 -0.0999
 9634TIP3    H228867   5.307   3.824   1.518 -0.0408  0.1642 -0.4702
 9635TIP3   OH228868   2.706   4.263   4.208 -1.1276  0.9841 -0.5482
 9635TIP3    H128869   2.695   4.269   4.113 -1.5104 -0.9123 -0.6495
 9635TIP3    H228870   2.656   4.337   4.242 -3.6335 -0.0964 -1.6674
 9636TIP3   OH228871   6.859   6.669   3.663  0.4948  0.0558 -0.2985
 9636TIP3    H128872   6.948   6.694   3.638  0.8143  0.4060  1.1274
 9636TIP3    H228873   6.859   6.670   3.759 -1.6875  2.5207 -0.1856
 9637TIP3   OH228874   3.340   1.471   4.565 -0.2979 -0.3705 -0.3736
 9637TIP3    H128875   3.414   1.502   4.618 -0.7945 -1.3892  0.9640
 9637TIP3    H228876   3.367   1.489   4.475  0.1809  2.2436  0.2206
 9638TIP3   OH228877   4.904   0.873   3.959 -0.2722 -0.5352  0.8271
 9638TIP3    H128878   4.913   0.962   3.922 -0.9071 -0.1852  1.4993
 9638TIP3    H228879   4.948   0.817   3.895 -1.5409  0.0257 -0.6193
 9639TIP3   OH228880   5.043   3.041   3.044  0.0427 -0.5800 -0.1210
 9639TIP3    H128881   4.996   3.009   3.121  0.6427 -0.9781  0.0850
 9639TIP3    H228882   5.089   2.964   3.010  0.9200 -0.1070 -0.0412
 9640TIP3   OH228883   2.632   3.230   4.912 -0.1064  0.3024  0.2309
 9640TIP3    H128884   2.575   3.162   4.947 -0.3887  1.1644  1.5104
 9640TIP3    H228885   2.698   3.244   4.979  2.6542 -1.7328 -1.8172
 9641TIP3   OH228886   4.598   0.369   2.800  0.3557  0.6842  0.5331
 9641TIP3    H128887   4.619   0.289   2.849  0.1821 -0.0457 -0.5561
 9641TIP3    H228888   4.638   0.439   2.852  1.2177 -0.1847  1.0890
 9642TIP3   OH228889   2.828   1.410   5.121 -0.4673 -0.1335 -0.3351
 9642TIP3    H128890   2.790   1.478   5.177 -1.3332 -0.4808 -0.4974
 9642TIP3    H228891   2.756   1.350   5.103  0.1885 -0.8725 -0.5458
 9643TIP3   OH228892   2.899   1.221   0.736 -0.0186 -0.6561  0.0189
 9643TIP3    H128893   2.949   1.240   0.815  0.1398 -0.6715 -0.0783
 9643TIP3    H228894   2.820   1.274   0.744  0.3022 -0.1589 -0.1261
 9644TIP3   OH228895   5.804   3.391   1.560 -0.0979  0.4552  0.0739
 9644TIP3    H128896   5.808   3.301   1.529 -0.7980 -0.0749  1.4572
 9644TIP3    H228897   5.733   3.431   1.510 -3.8044 -1.4190  3.3051
 9645TIP3   OH228898   2.229   0.552   0.361 -0.2280  0.8218 -0.4712
 9645TIP3    H128899   2.274   0.547   0.277 -1.5867 -0.2720 -1.1898
 9645TIP3    H228900   2.299   0.549   0.427  0.8213  1.1188 -1.5436
 9646TIP3   OH228901   0.295   4.035   2.648  0.1807 -0.3439  0.1163
 9646TIP3    H128902   0.251   3.952   2.628  0.7753 -0.5283 -0.4676
 9646TIP3    H228903   0.273   4.052   2.739  0.3636 -1.3464  0.3686
 9647TIP3   OH228904   5.563   2.035   2.297 -0.3343  0.5273 -0.2440
 9647TIP3    H128905   5.499   2.019   2.366  1.4462  0.5587  1.4901
 9647TIP3    H228906   5.568   2.131   2.290 -2.2483  0.5703 -2.1963
 9648TIP3   OH228907   2.646   1.559   2.693 -0.0913 -0.2099  0.5809
 9648TIP3    H128908   2.680   1.567   2.603 -0.2341  1.2213  0.6319
 9648TIP3    H228909   2.701   1.492   2.733  0.7287 -0.0507 -0.2323
 9649TIP3   OH228910   0.490   0.126   3.272  0.1519  0.3068 -0.2856
 9649TIP3    H128911   0.431   0.079   3.213  0.4951 -0.2716 -0.1740
 9649TIP3    H228912   0.434   0.155   3.344 -0.2421  0.8946 -0.8144
 9650TIP3   OH228913   3.584   4.673   5.388 -0.0764 -0.1039  0.9113
 9650TIP3    H128914   3.663   4.623   5.368  1.3677  2.3007  0.1469
 9650TIP3    H228915   3.597   4.704   5.478 -0.0629  0.4183  0.7333
 9651TIP3   OH228916   5.717   6.178   1.789 -0.1973 -0.0605 -0.0173
 9651TIP3    H128917   5.656   6.111   1.820 -0.3128 -0.4043 -0.9462
 9651TIP3    H228918   5.764   6.135   1.717  1.0506  0.2392  0.5905
 9652TIP3   OH228919   0.734   5.772   0.821  0.6207  0.5028  0.3053
 9652TIP3    H128920   0.814   5.823   0.836  0.4757  0.9194 -0.3006
 9652TIP3    H228921   0.669   5.836   0.792  0.9608 -0.2234 -2.3510
 9653TIP3   OH228922   0.945   1.026   1.711  0.7276  0.1089 -0.1193
 9653TIP3    H128923   1.012   1.090   1.734  2.2228 -0.1617 -3.2306
 9653TIP3    H228924   0.882   1.075   1.659  0.2809 -0.3572 -0.0240
 9654TIP3   OH228925   2.935   6.327   0.853  0.1550 -0.2528 -0.3772
 9654TIP3    H128926   2.871   6.271   0.808 -1.4421  1.9615 -1.0303
 9654TIP3    H228927   3.020   6.293   0.825 -0.7563 -0.5025 -3.1997
 9655TIP3   OH228928   3.906   1.544   4.826 -0.7857  0.0689  0.6580
 9655TIP3    H128929   3.975   1.483   4.799 -1.8335 -0.5389 -0.8065
 9655TIP3    H228930   3.825   1.501   4.800 -1.7675  0.6410  2.5762
 9656TIP3   OH228931   1.395   1.901   2.488  0.2302  0.1538  0.3547
 9656TIP3    H128932   1.442   1.909   2.405 -2.5249 -1.4302 -1.4775
 9656TIP3    H228933   1.353   1.987   2.500  0.3443  0.2708 -0.0740
 9657TIP3   OH228934   2.442   1.518   1.505 -0.3006  0.1409 -0.4964
 9657TIP3    H128935   2.347   1.527   1.511 -0.2367  1.0692 -0.7660
 9657TIP3    H228936   2.455   1.428   1.474 -1.0832 -0.0111 -0.4170
 9658TIP3   OH228937   0.059   6.216   1.506 -0.1944  0.4573  0.3941
 9658TIP3    H128938   0.065   6.291   1.447 -0.1305  1.0175  1.0986
 9658TIP3    H228939   0.149   6.186   1.517 -0.2129  0.3180  0.1648
 9659TIP3   OH228940   0.770   3.458   4.007 -0.2042 -0.0148  0.3264
 9659TIP3    H128941   0.810   3.391   3.951 -0.5537  0.7334 -0.8277
 9659TIP3    H228942   0.836   3.475   4.074  0.7704  0.0334 -0.6212
 9660TIP3   OH228943   3.984   0.275   0.396  0.5565 -0.0459  0.4124
 9660TIP3    H128944   3.931   0.230   0.331 -0.5774  1.6859  0.0635
 9660TIP3    H228945   4.073   0.269   0.363  0.6653 -2.9978  1.0042
 9661TIP3   OH228946   6.819   5.242   4.860 -0.3855  0.0150  0.5911
 9661TIP3    H128947   6.812   5.263   4.767 -2.3517  0.5060  0.8050
 9661TIP3    H228948   6.912   5.222   4.873 -0.1621 -0.6076 -1.5648
 9662TIP3   OH228949   0.402   4.208   4.675 -0.2359  0.1268  0.5204
 9662TIP3    H128950   0.390   4.114   4.688  1.7578 -0.2843 -0.2697
 9662TIP3    H228951   0.458   4.215   4.597 -1.3634  2.0230 -0.1974
 9663TIP3   OH228952   5.023   0.902   3.583  0.0358  0.1477 -0.2986
 9663TIP3    H128953   4.978   0.832   3.536  2.4429 -1.5607 -0.1952
 9663TIP3    H228954   4.960   0.928   3.651 -0.8682 -2.0491 -0.2072
 9664TIP3   OH228955   6.185   4.316   4.425  0.1542  0.0984 -0.1593
 9664TIP3    H128956   6.279   4.300   4.417  0.6032  1.4814  1.7412
 9664TIP3    H228957   6.165   4.294   4.516 -1.0049  1.5217 -0.0427
 9665TIP3   OH228958   6.471   0.901   5.715 -0.2477  0.6552 -0.3102
 9665TIP3    H128959   6.487   0.924   5.624 -1.9565 -1.1630 -1.1444
 9665TIP3    H228960   6.557   0.881   5.751  0.6886  3.2613 -0.9140
 9666TIP3   OH228961   6.415   5.612   4.259 -0.3926  0.0218 -0.2129
 9666TIP3    H128962   6.429   5.675   4.188  0.7649  0.8935  0.7404
 9666TIP3    H228963   6.326   5.579   4.245 -1.2848  2.3280 -0.4217
 9667TIP3   OH228964   1.932   4.819   1.651  0.4259 -0.0216 -0.2285
 9667TIP3    H128965   1.839   4.797   1.652  0.8413 -1.9843  0.0161
 9667TIP3    H228966   1.958   4.820   1.744  0.9408 -1.0328 -0.3407
 9668TIP3   OH228967   5.295   3.380   1.520 -0.1329  0.4447 -0.2107
 9668TIP3    H128968   5.212   3.365   1.566  0.4070  1.1257  1.0442
 9668TIP3    H228969   5.351   3.423   1.585  0.8980  0.8433 -1.3192
 9669TIP3   OH228970   5.887   1.905   3.318  0.0151  0.2141  0.2615
 9669TIP3    H128971   5.918   1.995   3.309  1.0107 -0.1155  0.3026
 9669TIP3    H228972   5.803   1.913   3.364 -0.0727  1.1408 -0.0465
 9670TIP3   OH228973   1.203   0.341   5.416 -0.1180 -0.2510  0.5865
 9670TIP3    H128974   1.246   0.321   5.499  2.0022  1.0820 -0.1036
 9670TIP3    H228975   1.176   0.432   5.425  1.5579  0.4241 -0.6900
 9671TIP3   OH228976   0.928   3.659   0.485 -0.0958  0.3484  0.1638
 9671TIP3    H128977   0.871   3.593   0.445 -1.0779  0.4051  1.3989
 9671TIP3    H228978   0.894   3.743   0.453 -0.3311  0.3541  0.4246
 9672TIP3   OH228979   3.089   1.129   5.858 -0.0120 -0.4539  0.0511
 9672TIP3    H128980   3.103   1.168   5.944  1.9816  1.3805 -1.0139
 9672TIP3    H228981   3.160   1.065   5.848  0.9238  0.6902 -0.9160
 9673TIP3   OH228982   3.986   6.410   2.277  0.0328 -0.1583  0.1249
 9673TIP3    H128983   3.987   6.314   2.268 -2.0056 -0.2531  0.5142
 9673TIP3    H228984   3.894   6.432   2.290  0.3136  1.9740 -1.0256
 9674TIP3   OH228985   1.526   5.123   0.984  0.3660  0.2054  0.1519
 9674TIP3    H128986   1.526   5.149   1.077 -0.0954 -2.5136  0.9959
 9674TIP3    H228987   1.608   5.075   0.973  0.0452 -0.1778 -0.6274
 9675TIP3   OH228988   2.714   5.056   2.126  0.3257 -0.3958  0.2995
 9675TIP3    H128989   2.654   5.117   2.169 -0.8058 -2.6580  2.1822
 9675TIP3    H228990   2.695   5.066   2.032  0.1778  2.0358  0.5325
 9676TIP3   OH228991   2.450   4.444   0.354  0.1410  0.0982  0.7628
 9676TIP3    H128992   2.435   4.481   0.267  1.4404 -0.3343  0.3224
 9676TIP3    H228993   2.434   4.517   0.414 -0.8931  0.3678  0.1768
 9677TIP3   OH228994   0.309   6.758   4.605  0.4092  0.1408 -0.3835
 9677TIP3    H128995   0.254   6.749   4.683  0.7061  0.8774 -0.0836
 9677TIP3    H228996   0.254   6.802   4.541  1.0838  2.3368  0.4333
 9678TIP3   OH228997   6.288   2.653   5.038  0.5737  0.0663  0.0070
 9678TIP3    H128998   6.381   2.669   5.026  0.6841 -0.1083  0.5786
 9678TIP3    H228999   6.246   2.691   4.961  1.2161 -0.9564 -0.8797
 9679TIP3   OH229000   6.753   1.682   3.039 -0.7265  0.4046  0.2341
 9679TIP3    H129001   6.843   1.660   3.018 -0.4207  0.3476  1.5124
 9679TIP3    H229002   6.756   1.773   3.067 -1.4356  1.0891 -1.7499
 9680TIP3   OH229003   6.037   3.377   3.867 -0.1076  0.5872 -0.5939
 9680TIP3    H129004   6.119   3.379   3.818 -0.1631  1.3633 -0.6806
 9680TIP3    H229005   6.060   3.409   3.954 -0.3760  1.1396 -0.7224
 9681TIP3   OH229006   0.770   2.207   1.351 -0.7621 -0.7287 -0.3215
 9681TIP3    H129007   0.733   2.168   1.271 -1.1533  1.6659 -1.3852
 9681TIP3    H229008   0.727   2.159   1.422 -2.8635 -0.8203 -1.5445
 9682TIP3   OH229009   6.565   5.437   4.012  0.0010  0.2613 -0.6344
 9682TIP3    H129010   6.620   5.513   4.030  0.3927  0.8614 -3.6834
 9682TIP3    H229011   6.621   5.361   4.029  0.4660  0.7369 -0.0336
 9683TIP3   OH229012   2.093   5.798   1.284 -0.1951 -0.4660 -0.2139
 9683TIP3    H129013   2.044   5.723   1.318  0.6726 -0.7634  0.4199
 9683TIP3    H229014   2.112   5.775   1.193 -1.5774 -0.1552 -0.6030
 9684TIP3   OH229015   6.915   4.214   4.567 -0.1348  0.1133  0.2967
 9684TIP3    H129016   6.992   4.251   4.525  0.1575  0.7575  1.3525
 9684TIP3    H229017   6.926   4.119   4.558  0.1903  0.2286 -0.5653
 9685TIP3   OH229018   2.911   0.474   1.665  0.2593  0.5502 -0.2521
 9685TIP3    H129019   2.990   0.419   1.662 -0.5982 -0.8604  1.5002
 9685TIP3    H229020   2.887   0.485   1.573  1.1677 -0.9716 -0.7126
 9686TIP3   OH229021   0.622   4.911   0.644 -0.0533 -0.3923 -0.0613
 9686TIP3    H129022   0.534   4.939   0.618 -0.6742 -0.8289  1.4795
 9686TIP3    H229023   0.645   4.966   0.718  0.5309 -0.9828  0.2140
 9687TIP3   OH229024   5.022   1.823   5.031 -0.1085  0.0131 -0.0869
 9687TIP3    H129025   4.940   1.796   4.991  0.2798 -1.1735 -0.1230
 9687TIP3    H229026   5.016   1.793   5.122  0.1224  0.2868  0.0223
 9688TIP3   OH229027   4.675   4.069   1.089  0.2564  0.7093  0.3175
 9688TIP3    H129028   4.755   4.019   1.102 -0.4095 -0.0416  1.8212
 9688TIP3    H229029   4.615   4.036   1.156 -1.4282  1.0098 -0.9784
 9689TIP3   OH229030   0.633   4.439   1.424  0.5059  0.1579 -0.3978
 9689TIP3    H129031   0.540   4.426   1.444  1.0552 -1.4329  1.5802
 9689TIP3    H229032   0.657   4.519   1.471  0.1582  0.5535 -0.8867
 9690TIP3   OH229033   3.729   1.641   5.871 -0.1400  0.6672 -0.4926
 9690TIP3    H129034   3.774   1.611   5.793  1.1328  0.4951  0.2821
 9690TIP3    H229035   3.760   1.731   5.883  2.1785 -0.2955  1.5314
 9691TIP3   OH229036   5.725   3.403   3.455 -0.1646  0.0359  0.1584
 9691TIP3    H129037   5.647   3.434   3.411  0.4081  0.7307 -0.3874
 9691TIP3    H229038   5.760   3.335   3.398 -0.1064  0.0618  0.1627
 9692TIP3   OH229039   0.865   3.236   2.989 -0.2853 -0.0593 -0.2419
 9692TIP3    H129040   0.781   3.205   3.023  0.8810 -1.7997  1.2194
 9692TIP3    H229041   0.885   3.314   3.041  0.1057 -1.0308  1.1063
 9693TIP3   OH229042   5.884   3.756   3.599 -0.4791  0.2315  0.0562
 9693TIP3    H129043   5.852   3.719   3.517  1.2085 -0.7635 -0.2008
 9693TIP3    H229044   5.903   3.680   3.654  0.9054  0.7529  0.3555
 9694TIP3   OH229045   2.312   2.844   5.305  0.6126 -0.3360 -0.2875
 9694TIP3    H129046   2.298   2.803   5.390  1.3008 -0.5309 -0.2618
 9694TIP3    H229047   2.330   2.772   5.245 -0.6748 -0.2667 -0.7816
 9695TIP3   OH229048   7.220   3.615   3.414  0.8683  0.3471  0.3472
 9695TIP3    H129049   7.234   3.614   3.320  1.3754 -0.9431  0.4203
 9695TIP3    H229050   7.165   3.539   3.431 -1.2486  1.8904  0.8321
 9696TIP3   OH229051   1.507   1.677   3.677  0.5383  0.1917 -1.0976
 9696TIP3    H129052   1.502   1.635   3.763  2.5056  1.6388 -0.1882
 9696TIP3    H229053   1.509   1.604   3.614  1.7206 -1.0160  0.2694
 9697TIP3   OH229054   6.849   5.270   5.140  0.1615 -0.2580 -0.6433
 9697TIP3    H129055   6.762   5.281   5.102 -0.5515 -0.9663  0.7006
 9697TIP3    H229056   6.874   5.180   5.119 -1.2227 -1.4776  2.2945
 9698TIP3   OH229057   1.230   4.544   3.928  0.5749  0.2648 -0.0561
 9698TIP3    H129058   1.192   4.506   3.849 -0.2154  0.9337 -0.0059
 9698TIP3    H229059   1.200   4.486   3.998 -0.4813  0.8508 -0.0025
 9699TIP3   OH229060   3.780   5.652   2.110  0.1618 -1.0190  0.3385
 9699TIP3    H129061   3.749   5.654   2.020  1.2533 -0.1708 -0.0368
 9699TIP3    H229062   3.785   5.559   2.131  0.7003 -1.2529 -0.7577
 9700TIP3   OH229063   6.484   1.902   2.473  0.1341 -0.3287 -0.1182
 9700TIP3    H129064   6.416   1.837   2.490  0.1322  0.2164  2.1853
 9700TIP3    H229065   6.555   1.851   2.433 -0.6741 -1.3338 -0.3374
 9701TIP3   OH229066   0.824   5.362   3.421  0.0777 -0.9039  0.2149
 9701TIP3    H129067   0.861   5.433   3.369 -2.0219 -0.6935 -1.0875
 9701TIP3    H229068   0.781   5.406   3.495  0.1796 -0.9425  0.2970
 9702TIP3   OH229069   2.585   4.458   4.346 -0.0810 -0.0111 -0.5901
 9702TIP3    H129070   2.633   4.433   4.424  1.3155 -1.3159 -1.7917
 9702TIP3    H229071   2.498   4.481   4.377  0.8680  0.9610  1.4929
 9703TIP3   OH229072   0.379   4.666   2.231 -0.0778 -0.1667  0.5019
 9703TIP3    H129073   0.303   4.649   2.287  1.0539 -1.5292  1.7063
 9703TIP3    H229074   0.356   4.627   2.147 -1.1141  0.3533  0.5356
 9704TIP3   OH229075   1.151   3.318   2.602 -0.4660 -0.2556 -0.5278
 9704TIP3    H129076   1.087   3.378   2.642  0.8290  0.1988  0.9488
 9704TIP3    H229077   1.118   3.231   2.622 -1.0850 -0.0380 -0.5634
 9705TIP3   OH229078   5.143   0.312   0.096 -0.2043 -0.0054 -0.4733
 9705TIP3    H129079   5.202   0.358   0.156 -1.9433  1.5603  0.1210
 9705TIP3    H229080   5.155   0.219   0.117  1.8713  0.2596 -0.2586
 9706TIP3   OH229081   0.040   6.618   2.428  0.2703 -0.1607  0.1349
 9706TIP3    H129082  -0.035   6.584   2.380  1.5912 -1.4658 -1.1309
 9706TIP3    H229083   0.049   6.560   2.503 -0.0439  0.0754  0.3587
 9707TIP3   OH229084   0.475   6.227   5.600  0.0533 -0.1477  0.3480
 9707TIP3    H129085   0.430   6.210   5.517  2.1905  0.5056 -1.0389
 9707TIP3    H229086   0.419   6.289   5.645  0.3919  2.2488 -2.2189
 9708TIP3   OH229087   3.476   1.488   0.304 -0.0328 -0.6719  0.2992
 9708TIP3    H129088   3.442   1.507   0.216 -1.4766 -3.2086  0.2035
 9708TIP3    H229089   3.572   1.491   0.293 -0.1470  1.6597 -0.6566
 9709TIP3   OH229090   3.155   2.997   1.836  0.1741  0.0622 -0.1488
 9709TIP3    H129091   3.145   3.090   1.856 -2.0979  0.0889 -1.0239
 9709TIP3    H229092   3.140   2.991   1.741  2.0439 -1.0318 -0.4307
 9710TIP3   OH229093   2.121   1.824   0.120  0.2741 -0.1451 -0.0065
 9710TIP3    H129094   2.130   1.729   0.126  0.5001 -0.2083 -1.1203
 9710TIP3    H229095   2.027   1.838   0.111  0.4005 -0.5334 -3.0755
 9711TIP3   OH229096   1.469   5.481   0.437 -0.0970  0.0790  0.2052
 9711TIP3    H129097   1.419   5.406   0.469 -0.4986  0.1259 -0.2999
 9711TIP3    H229098   1.497   5.456   0.349  0.9857 -0.0399  0.5648
 9712TIP3   OH229099   6.779   5.089   5.475 -0.0621  0.3381  0.7683
 9712TIP3    H129100   6.860   5.135   5.494 -0.0313  0.4681  0.3360
 9712TIP3    H229101   6.714   5.159   5.463  0.0449  0.2962 -0.1659
 9713TIP3   OH229102   6.357   3.452   0.090 -0.3442  0.1834  0.0673
 9713TIP3    H129103   6.305   3.378   0.058 -0.5181  0.3879 -0.1285
 9713TIP3    H229104   6.435   3.452   0.035 -1.5894  1.8144 -1.8397
 9714TIP3   OH229105   0.310   6.353   2.901 -0.3331 -0.2891  0.2435
 9714TIP3    H129106   0.247   6.417   2.866 -0.8484 -0.4088  0.9457
 9714TIP3    H229107   0.394   6.381   2.864 -0.4137  1.2618  1.1112
 9715TIP3   OH229108   0.448   4.718   5.148 -0.0231 -0.2269  0.3453
 9715TIP3    H129109   0.406   4.701   5.064  0.7355 -0.2568 -0.0446
 9715TIP3    H229110   0.392   4.677   5.213 -0.6801 -0.1010 -0.1364
 9716TIP3   OH229111   4.889   0.817   3.026  0.4359 -0.3693  0.8571
 9716TIP3    H129112   4.967   0.834   2.973 -0.9548  0.7013 -0.9537
 9716TIP3    H229113   4.888   0.722   3.038  0.9223 -0.6290 -0.8838
 9717TIP3   OH229114   5.086   1.223   0.032 -0.0925 -0.4490  0.0020
 9717TIP3    H129115   5.151   1.155   0.051  0.4589  0.3233  0.9472
 9717TIP3    H229116   5.053   1.200  -0.055 -0.1291 -2.0856  0.4049
 9718TIP3   OH229117   2.267   0.937   2.192 -0.1169  0.2541 -0.5480
 9718TIP3    H129118   2.228   0.850   2.198  1.4245 -0.5191 -1.1462
 9718TIP3    H229119   2.199   0.992   2.153 -0.5950 -1.0391 -1.6037
 9719TIP3   OH229120   5.341   0.989   5.573  0.1066 -0.3630 -0.4943
 9719TIP3    H129121   5.376   0.901   5.568 -1.8812 -1.4227  1.9330
 9719TIP3    H229122   5.409   1.040   5.618  0.0340 -1.4976  0.9771
 9720TIP3   OH229123   7.184   1.761   1.902 -0.0865 -0.5115  0.3488
 9720TIP3    H129124   7.090   1.775   1.897  0.1674  1.2343 -0.4433
 9720TIP3    H229125   7.222   1.849   1.890  1.6610 -1.3340 -0.5722
 9721TIP3   OH229126   4.509   4.155   5.430  0.2308 -0.0733  0.2415
 9721TIP3    H129127   4.518   4.248   5.452  0.1161  0.0408 -0.1972
 9721TIP3    H229128   4.421   4.148   5.393  0.5834 -0.1834 -0.5998
 9722TIP3   OH229129   3.766   6.443   1.775  0.0739  0.4582  0.1560
 9722TIP3    H129130   3.779   6.435   1.870 -2.5765 -1.8134  0.4514
 9722TIP3    H229131   3.678   6.480   1.766 -0.0081 -0.0566 -1.4103
 9723TIP3   OH229132   0.292   0.797   4.941  0.4662 -0.1559  0.3912
 9723TIP3    H129133   0.286   0.719   4.887  1.2277  0.8793 -1.2770
 9723TIP3    H229134   0.202   0.813   4.970 -0.1778 -0.1716 -1.4554
 9724TIP3   OH229135   2.909   5.600   3.063  0.3476 -0.6161  0.0713
 9724TIP3    H129136   2.830   5.655   3.065  0.5785 -0.2956  0.5705
 9724TIP3    H229137   2.900   5.549   2.982 -1.4783 -2.2384  1.2063
 9725TIP3   OH229138   7.039   3.293   0.326 -0.8995 -0.5820  0.3972
 9725TIP3    H129139   7.063   3.218   0.381 -0.4588  0.0430  1.0585
 9725TIP3    H229140   7.062   3.370   0.377 -1.6812  0.0232 -0.1338
 9726TIP3   OH229141   6.279   0.650   5.238  0.8174  0.3654 -0.0710
 9726TIP3    H129142   6.304   0.670   5.148 -0.0049 -0.0302 -0.3977
 9726TIP3    H229143   6.354   0.602   5.273  0.5890 -0.7035 -0.9938
 9727TIP3   OH229144   5.928   0.492   3.921 -0.4193 -0.5349 -0.0593
 9727TIP3    H129145   5.989   0.566   3.918 -1.0695  0.2448  2.8882
 9727TIP3    H229146   5.844   0.530   3.944 -1.0044 -2.0673  0.5075
 9728TIP3   OH229147   6.420   0.317   3.421  0.5360  0.2164 -0.3305
 9728TIP3    H129148   6.362   0.245   3.445  0.7796  0.3172  0.5754
 9728TIP3    H229149   6.394   0.340   3.332 -0.5392 -0.0040 -0.0802
 9729TIP3   OH229150   1.128   3.251   2.338  0.1443 -0.5444  0.3843
 9729TIP3    H129151   1.172   3.166   2.343  1.7235  0.3131  1.6132
 9729TIP3    H229152   1.141   3.291   2.424 -2.0301  0.2830  0.4041
 9730TIP3   OH229153   0.934   6.538   1.051  0.9115  0.2919  0.1345
 9730TIP3    H129154   0.946   6.593   0.973 -1.4926  0.1221 -0.4205
 9730TIP3    H229155   0.875   6.588   1.107  0.6645 -0.6380  0.7318
 9731TIP3   OH229156   3.641   6.641   0.977  0.1460 -0.1898  0.1134
 9731TIP3    H129157   3.681   6.650   1.064 -2.1212 -0.3703  1.2677
 9731TIP3    H229158   3.557   6.687   0.985 -0.9651 -1.8291 -1.3829
 9732TIP3   OH229159   6.467   2.998   0.513  0.3903  0.5438  0.2464
 9732TIP3    H129160   6.412   2.920   0.526  0.3266 -0.2605 -3.7464
 9732TIP3    H229161   6.553   2.973   0.547 -0.0971 -0.5540  0.7241
 9733TIP3   OH229162   5.030   0.215   4.035 -0.5814  0.0821 -0.4669
 9733TIP3    H129163   5.066   0.296   4.070 -2.1093  0.4905  0.2630
 9733TIP3    H229164   5.028   0.155   4.109 -0.2002 -0.3553 -0.8093
 9734TIP3   OH229165   4.178   3.784   4.013  0.0050 -0.0195 -0.1767
 9734TIP3    H129166   4.170   3.706   3.960  0.5966 -0.1057 -0.1418
 9734TIP3    H229167   4.248   3.765   4.075  1.0438  0.9983 -0.9862
 9735TIP3   OH229168   2.697   3.060   3.435  0.4685 -0.2079  0.7197
 9735TIP3    H129169   2.760   2.989   3.424 -0.4703 -1.1747  1.3415
 9735TIP3    H229170   2.630   3.042   3.369  0.3508  0.2460  0.7171
 9736TIP3   OH229171   6.825   3.447   3.540  0.3371 -0.2617 -0.5396
 9736TIP3    H129172   6.808   3.529   3.587  1.9824  0.0615 -0.4533
 9736TIP3    H229173   6.740   3.424   3.501 -0.0418  1.8090 -1.0688
 9737TIP3   OH229174   0.473   2.975   4.973  0.0611  0.1423 -0.0957
 9737TIP3    H129175   0.491   2.893   4.927 -0.6009  0.1227 -0.3180
 9737TIP3    H229176   0.553   2.992   5.024  1.9548  1.5265 -3.2197
 9738TIP3   OH229177   6.473   0.607   4.667  0.1860  0.3043  0.3326
 9738TIP3    H129178   6.540   0.591   4.601 -0.3109  2.9189 -0.9349
 9738TIP3    H229179   6.480   0.701   4.686 -2.8372  0.6244  0.3845
 9739TIP3   OH229180   7.005   0.706   2.622 -0.2721  0.3663  0.8222
 9739TIP3    H129181   7.077   0.735   2.566 -1.5411  0.3996 -0.8687
 9739TIP3    H229182   6.934   0.766   2.603 -1.0286 -0.1848  1.8163
 9740TIP3   OH229183   5.320   0.410   0.327  0.0294 -0.0042  0.2676
 9740TIP3    H129184   5.347   0.502   0.329 -0.6410  0.1987  1.5199
 9740TIP3    H229185   5.236   0.410   0.373  0.8143 -1.4783  1.8146
 9741TIP3   OH229186   0.931   5.955   4.488 -0.1325  0.0242 -0.1191
 9741TIP3    H129187   0.937   5.880   4.547  1.3138 -0.8601 -1.3291
 9741TIP3    H229188   0.845   5.993   4.506  0.0719 -0.4772  2.1995
 9742TIP3   OH229189   7.138   4.625   4.868  0.4122 -0.1883 -0.2130
 9742TIP3    H129190   7.149   4.719   4.858  0.9227 -0.1718  0.4238
 9742TIP3    H229191   7.165   4.588   4.784  0.9148  0.1908 -0.2248
 9743TIP3   OH229192   6.337   2.814   1.624  0.5844  0.7186 -0.1562
 9743TIP3    H129193   6.345   2.798   1.718  0.6864 -0.5342 -0.3612
 9743TIP3    H229194   6.418   2.780   1.587  0.5520  1.2215 -0.7005
 9744TIP3   OH229195   6.449   3.520   3.994  0.0631 -0.2020 -0.0247
 9744TIP3    H129196   6.452   3.569   3.912 -1.8485 -0.0170 -0.0266
 9744TIP3    H229197   6.495   3.576   4.057  0.0466  0.4563 -0.5894
 9745TIP3   OH229198   5.277   4.422   0.189 -0.1228 -0.4534  0.0076
 9745TIP3    H129199   5.212   4.427   0.260 -1.2746  1.4680 -1.0879
 9745TIP3    H229200   5.287   4.513   0.160  2.3973 -0.8312 -0.4933
 9746TIP3   OH229201   4.084   0.517   3.286 -0.0610  0.1728 -0.3651
 9746TIP3    H129202   4.157   0.579   3.281 -0.2007  0.2549 -1.6669
 9746TIP3    H229203   4.006   0.570   3.268 -0.3628 -0.0689  0.1959
 9747TIP3   OH229204   5.655   6.459   2.502 -0.3312  0.2885 -0.3282
 9747TIP3    H129205   5.665   6.475   2.596  0.7106  0.7267 -0.5042
 9747TIP3    H229206   5.562   6.476   2.485 -0.6931 -0.4714  0.7369
 9748TIP3   OH229207   3.735   3.479   2.620 -0.2025  0.2039 -0.0279
 9748TIP3    H129208   3.770   3.449   2.704  1.9040 -1.5977 -1.4396
 9748TIP3    H229209   3.800   3.541   2.588 -1.3615  1.4486 -0.0521
 9749TIP3   OH229210   6.193   0.220   4.235  0.0196  0.6819  0.0668
 9749TIP3    H129211   6.256   0.270   4.184  0.2344  1.5364  1.1260
 9749TIP3    H229212   6.111   0.229   4.187  0.3873  0.7884 -0.5512
   7.20733   6.79514   5.88475   0.00000   0.00000  -2.40244   0.00000  -2.40244  -3.39756
