Generated by CHARMM-GUI FF-Converter
44418
    1ASP      N    1   6.231   4.793   3.739
    1ASP    HT1    2   6.234   4.881   3.795
    1ASP    HT2    3   6.297   4.803   3.659
    1ASP    HT3    4   6.262   4.712   3.797
    1ASP     CA    5   6.099   4.767   3.682
    1ASP     HA    6   6.062   4.859   3.640
    1ASP     CB    7   6.109   4.662   3.571
    1ASP    HB1    8   6.009   4.643   3.526
    1ASP    HB2    9   6.147   4.564   3.610
    1ASP     CG   10   6.199   4.705   3.456
    1ASP    OD1   11   6.205   4.826   3.426
    1ASP    OD2   12   6.264   4.617   3.396
    1ASP      C   13   6.001   4.721   3.789
    1ASP      O   14   6.037   4.644   3.879
    2SER      N   15   5.893   4.762   3.820
    2SER     HN   16   5.854   4.829   3.758
    2SER     CA   17   5.790   4.731   3.920
    2SER     HA   18   5.839   4.719   4.015
    2SER     CB   19   5.688   4.844   3.929
    2SER    HB1   20   5.741   4.941   3.946
    2SER    HB2   21   5.620   4.828   4.015
    2SER     OG   22   5.611   4.853   3.810
    2SER    HG1   23   5.576   4.764   3.791
    2SER      C   24   5.719   4.600   3.886
    2SER      O   25   5.708   4.562   3.770
    3GLY      N   26   5.715   4.500   3.965
    3GLY     HN   27   5.755   4.518   4.054
    3GLY     CA   28   5.643   4.374   3.958
    3GLY    HA1   29   5.630   4.336   4.058
    3GLY    HA2   30   5.698   4.309   3.892
    3GLY      C   31   5.503   4.389   3.900
    3GLY      O   32   5.452   4.500   3.887
    4ASP      N   33   5.452   4.277   3.839
    4ASP     HN   34   5.505   4.194   3.827
    4ASP     CA   35   5.315   4.270   3.788
    4ASP     HA   36   5.306   4.344   3.709
    4ASP     CB   37   5.285   4.131   3.733
    4ASP    HB1   38   5.179   4.122   3.702
    4ASP    HB2   39   5.304   4.054   3.811
    4ASP     CG   40   5.368   4.096   3.610
    4ASP    OD1   41   5.411   4.188   3.538
    4ASP    OD2   42   5.390   3.976   3.586
    4ASP      C   43   5.214   4.307   3.897
    4ASP      O   44   5.237   4.280   4.015
    5SER      N   45   5.124   4.374   3.866
    5SER     HN   46   5.116   4.409   3.774
    5SER     CA   47   5.013   4.401   3.957
    5SER     HA   48   5.050   4.462   4.038
    5SER     CB   49   4.901   4.476   3.885
    5SER    HB1   50   4.818   4.503   3.955
    5SER    HB2   51   4.858   4.410   3.805
    5SER     OG   52   4.951   4.593   3.822
    5SER    HG1   53   4.963   4.660   3.891
    5SER      C   54   4.958   4.272   4.017
    5SER      O   55   4.969   4.165   3.956
    6GLY      N   56   4.938   4.272   4.151
    6GLY     HN   57   4.951   4.354   4.206
    6GLY     CA   58   4.873   4.160   4.215
    6GLY    HA1   59   4.854   4.186   4.318
    6GLY    HA2   60   4.940   4.076   4.203
    6GLY      C   61   4.739   4.125   4.152
    6GLY      O   62   4.694   4.193   4.060
    7PRO      N   63   4.674   4.014   4.201
    7PRO     CD   64   4.733   3.926   4.292
    7PRO    HD1   65   4.728   3.971   4.394
    7PRO    HD2   66   4.838   3.899   4.265
    7PRO     CA   67   4.539   3.979   4.157
    7PRO     HA   68   4.539   3.972   4.049
    7PRO     CB   69   4.513   3.846   4.228
    7PRO    HB1   70   4.473   3.770   4.157
    7PRO    HB2   71   4.442   3.858   4.314
    7PRO     CG   72   4.646   3.804   4.282
    7PRO    HG1   73   4.638   3.750   4.379
    7PRO    HG2   74   4.693   3.735   4.209
    7PRO      C   75   4.435   4.083   4.197
    7PRO      O   76   4.458   4.161   4.291
    8GLY      N   77   4.321   4.092   4.122
    8GLY     HN   78   4.307   4.034   4.042
    8GLY     CA   79   4.213   4.183   4.157
    8GLY    HA1   80   4.140   4.178   4.077
    8GLY    HA2   81   4.255   4.282   4.169
    8GLY      C   82   4.142   4.145   4.285
    8GLY      O   83   4.158   4.033   4.335
    9ASP      N   84   4.071   4.247   4.351
    9ASP     HN   85   4.074   4.342   4.320
    9ASP     CA   86   3.988   4.225   4.469
    9ASP     HA   87   4.056   4.189   4.544
    9ASP     CB   88   3.923   4.356   4.515
    9ASP    HB1   89   3.849   4.339   4.596
    9ASP    HB2   90   3.872   4.404   4.429
    9ASP     CG   91   4.024   4.455   4.571
    9ASP    OD1   92   4.137   4.414   4.605
    9ASP    OD2   93   3.990   4.575   4.581
    9ASP      C   94   3.879   4.121   4.440
    9ASP      O   95   3.834   4.107   4.327
   10PRO      N   96   3.828   4.051   4.533
   10PRO     CD   97   3.888   4.041   4.660
   10PRO    HD1   98   3.862   4.131   4.721
   10PRO    HD2   99   3.999   4.027   4.656
   10PRO     CA  100   3.709   3.968   4.513
   10PRO     HA  101   3.727   3.902   4.429
   10PRO     CB  102   3.694   3.895   4.646
   10PRO    HB1  103   3.672   3.787   4.630
   10PRO    HB2  104   3.613   3.938   4.708
   10PRO     CG  105   3.824   3.917   4.716
   10PRO    HG1  106   3.815   3.920   4.827
   10PRO    HG2  107   3.891   3.832   4.688
   10PRO      C  108   3.584   4.051   4.482
   10PRO      O  109   3.571   4.164   4.529
   11GLY      N  110   3.502   4.032   4.379
   11GLY     HN  111   3.526   3.954   4.322
   11GLY     CA  112   3.378   4.100   4.344
   11GLY    HA1  113   3.329   4.040   4.269
   11GLY    HA2  114   3.405   4.199   4.311
   11GLY      C  115   3.282   4.114   4.460
   11GLY      O  116   3.296   4.045   4.561
   12ASP      N  117   3.187   4.213   4.465
   12ASP     HN  118   3.187   4.282   4.393
   12ASP     CA  119   3.082   4.236   4.563
   12ASP     HA  120   3.131   4.248   4.658
   12ASP     CB  121   2.998   4.358   4.524
   12ASP    HB1  122   2.909   4.368   4.590
   12ASP    HB2  123   2.963   4.345   4.420
   12ASP     CG  124   3.075   4.488   4.534
   12ASP    OD1  125   3.175   4.495   4.608
   12ASP    OD2  126   3.034   4.586   4.468
   12ASP      C  127   2.993   4.113   4.579
   12ASP      O  128   2.964   4.044   4.481
   13SER      N  129   2.948   4.075   4.694
   13SER     HN  130   2.973   4.127   4.774
   13SER     CA  131   2.851   3.969   4.723
   13SER     HA  132   2.879   3.881   4.667
   13SER     CB  133   2.852   3.936   4.872
   13SER    HB1  134   2.954   3.905   4.902
   13SER    HB2  135   2.783   3.850   4.893
   13SER     OG  136   2.812   4.048   4.949
   13SER    HG1  137   2.725   4.074   4.912
   13SER      C  138   2.711   4.009   4.679
   13SER      O  139   2.670   4.124   4.699
   14GLY      N  140   2.651   3.971   4.577
   14GLY     HN  141   2.702   3.902   4.526
   14GLY     CA  142   2.519   3.989   4.520
   14GLY    HA1  143   2.488   3.896   4.475
   14GLY    HA2  144   2.524   4.072   4.451
   14GLY      C  145   2.413   4.021   4.624
   14GLY      O  146   2.427   3.984   4.740
   15SER      N  147   2.368   4.133   4.634
   15SER     HN  148   2.397   4.207   4.575
   15SER     CA  149   2.256   4.164   4.723
   15SER     HA  150   2.290   4.157   4.826
   15SER     CB  151   2.205   4.306   4.697
   15SER    HB1  152   2.267   4.376   4.759
   15SER    HB2  153   2.099   4.319   4.727
   15SER     OG  154   2.224   4.342   4.562
   15SER    HG1  155   2.187   4.267   4.513
   15SER      C  156   2.142   4.064   4.707
   15SER    OT1  157   2.157   3.971   4.623
   15SER    OT2  158   2.040   4.079   4.778
   16LIT    LIT  159   2.596   4.442   6.184
   17LIT    LIT  160   5.496   5.780   1.568
   18LIT    LIT  161   6.311   6.314   5.177
   19LIT    LIT  162   2.749   1.139   3.703
   20LIT    LIT  163   4.067   0.146   1.951
   21LIT    LIT  164   8.896   5.609   4.579
   22LIT    LIT  165   6.203   4.038   4.323
   23LIT    LIT  166   0.874   2.473   4.441
   24LIT    LIT  167   3.926   3.513   8.301
   25LIT    LIT  168   8.623   3.192   4.585
   26LIT    LIT  169   4.265   7.929   3.604
   27LIT    LIT  170   1.642   2.401   1.733
   28LIT    LIT  171   7.059   2.975   1.660
   29LIT    LIT  172   7.221   0.657   3.291
   30LIT    LIT  173   5.933   5.356   7.362
   31LIT    LIT  174   3.460   5.205   4.326
   32LIT    LIT  175   1.050   4.247   2.065
   33LIT    LIT  176   2.252   2.953   3.324
   34LIT    LIT  177   4.236   6.777   5.224
   35LIT    LIT  178   2.764   5.671   3.004
   36LIT    LIT  179   2.186   7.123   2.612
   37LIT    LIT  180   6.834   3.349   3.660
   38LIT    LIT  181   3.515   6.173   8.546
   39LIT    LIT  182   3.054   6.901   4.288
   40LIT    LIT  183   1.421   7.385   4.726
   41LIT    LIT  184   5.280   5.146   5.879
   42LIT    LIT  185   8.978   5.013   5.928
   43LIT    LIT  186   2.105   7.850   3.144
   44LIT    LIT  187   5.692   6.705   7.696
   45LIT    LIT  188   4.389   0.752   1.034
   46LIT    LIT  189   7.510   1.811   6.490
   47LIT    LIT  190   5.854   0.685   1.387
   48LIT    LIT  191   4.517   7.991   5.326
   49LIT    LIT  192   6.700   2.259   0.925
   50LIT    LIT  193   1.627   0.766   5.559
   51LIT    LIT  194   3.230   1.909   3.330
   52LIT    LIT  195   1.668   4.436   4.393
   53LIT    LIT  196   4.657   4.338   7.556
   54LIT    LIT  197   1.282   4.682   6.525
   55LIT    LIT  198   6.586   4.588   7.460
   56LIT    LIT  199   5.203   1.581   0.274
   57LIT    LIT  200   6.413   1.288   4.062
   58LIT    LIT  201  -0.280   4.684   2.908
   59LIT    LIT  202   2.709   1.941   2.004
   60LIT    LIT  203   7.303   0.761   5.178
   61LIT    LIT  204   2.578   8.581   6.173
   62CLA    CLA  205   4.223   8.774   5.267
   63CLA    CLA  206   2.214   0.186   6.195
   64CLA    CLA  207   2.417   5.424   5.990
   65CLA    CLA  208   2.869   1.080   6.749
   66CLA    CLA  209   4.560   7.465   3.506
   67CLA    CLA  210   4.252   1.314   0.716
   68CLA    CLA  211   1.741   7.127   2.470
   69CLA    CLA  212   7.931   2.321   4.184
   70CLA    CLA  213   4.202   6.946   5.095
   71CLA    CLA  214   8.973   5.995   5.117
   72CLA    CLA  215   5.052   7.639   5.769
   73CLA    CLA  216   3.527  -0.188   4.500
   74CLA    CLA  217   3.235   2.701   8.119
   75CLA    CLA  218   5.507   0.462   5.781
   76CLA    CLA  219   4.202   3.978   6.612
   77CLA    CLA  220   4.460   1.492   8.227
   78CLA    CLA  221   2.722   5.241   2.911
   79CLA    CLA  222   5.452   5.152   8.159
   80CLA    CLA  223   0.813   3.483   4.291
   81CLA    CLA  224   3.081   7.443   0.344
   82CLA    CLA  225   5.317   5.355   5.595
   83CLA    CLA  226   4.780   2.436   2.227
   84CLA    CLA  227   0.348   3.017   2.364
   85CLA    CLA  228   1.791   5.074   6.340
   86CLA    CLA  229   6.541   5.611   7.707
   87CLA    CLA  230   4.332   3.770   8.031
   88CLA    CLA  231   3.368   3.936   0.745
   89CLA    CLA  232   0.735   7.146   4.458
   90CLA    CLA  233   1.949   7.281   5.408
   91CLA    CLA  234   5.392   0.826   2.142
   92CLA    CLA  235  -0.136   3.656   4.546
   93CLA    CLA  236   4.263   0.642   1.765
   94CLA    CLA  237   7.736   2.221   6.443
   95CLA    CLA  238   3.664   1.081   3.916
   96CLA    CLA  239   2.961   1.552   2.934
   97CLA    CLA  240   6.152   6.259   5.337
   98CLA    CLA  241   3.540   3.171   3.936
   99CLA    CLA  242   4.351   1.981   5.628
  100CLA    CLA  243   2.088   6.998   1.271
  101CLA    CLA  244   4.801   5.079   0.638
  102CLA    CLA  245   3.833   5.525   8.562
  103CLA    CLA  246   6.198   8.693   3.020
  104TIP3   OH2  247   3.280   0.369   2.243
  104TIP3    H1  248   3.276   0.273   2.254
  104TIP3    H2  249   3.197   0.397   2.288
  105TIP3   OH2  250   2.971   0.713   2.343
  105TIP3    H1  251   2.966   0.748   2.253
  105TIP3    H2  252   3.051   0.759   2.377
  106TIP3   OH2  253   3.278   0.056   2.259
  106TIP3    H1  254   3.183   0.077   2.260
  106TIP3    H2  255   3.287   0.027   2.166
  107TIP3   OH2  256   2.732   0.266   2.506
  107TIP3    H1  257   2.712   0.209   2.584
  107TIP3    H2  258   2.797   0.328   2.546
  108TIP3   OH2  259   3.076   0.501   2.026
  108TIP3    H1  260   3.070   0.431   1.958
  108TIP3    H2  261   3.155   0.472   2.074
  109TIP3   OH2  262   3.149   0.172   2.571
  109TIP3    H1  263   3.079   0.179   2.640
  109TIP3    H2  264   3.192   0.260   2.580
  110TIP3   OH2  265   3.191  -0.162   2.416
  110TIP3    H1  266   3.256  -0.236   2.407
  110TIP3    H2  267   3.224  -0.099   2.350
  111TIP3   OH2  268   3.372  -0.361   2.420
  111TIP3    H1  269   3.338  -0.442   2.465
  111TIP3    H2  270   3.467  -0.368   2.439
  112TIP3   OH2  271   2.579   0.646   2.269
  112TIP3    H1  272   2.593   0.550   2.275
  112TIP3    H2  273   2.622   0.679   2.350
  113TIP3   OH2  274   3.035   0.445   2.342
  113TIP3    H1  275   2.952   0.408   2.310
  113TIP3    H2  276   3.014   0.541   2.342
  114TIP3   OH2  277   4.228  -0.188   1.500
  114TIP3    H1  278   4.288  -0.208   1.576
  114TIP3    H2  279   4.223  -0.275   1.457
  115TIP3   OH2  280   4.496   0.129   1.178
  115TIP3    H1  281   4.525   0.058   1.238
  115TIP3    H2  282   4.529   0.206   1.229
  116TIP3   OH2  283   4.097   0.050   1.542
  116TIP3    H1  284   4.136  -0.028   1.500
  116TIP3    H2  285   4.179   0.094   1.572
  117TIP3   OH2  286   3.998   0.059   1.803
  117TIP3    H1  287   3.899   0.071   1.799
  117TIP3    H2  288   4.015   0.047   1.701
  118TIP3   OH2  289   3.749   0.152   1.826
  118TIP3    H1  290   3.747   0.248   1.809
  118TIP3    H2  291   3.686   0.148   1.900
  119TIP3   OH2  292   4.610   0.348   1.325
  119TIP3    H1  293   4.524   0.348   1.374
  119TIP3    H2  294   4.600   0.426   1.268
  120TIP3   OH2  295   4.332   0.435   1.047
  120TIP3    H1  296   4.387   0.359   1.030
  120TIP3    H2  297   4.300   0.456   0.951
  121TIP3   OH2  298   4.827   0.308   1.703
  121TIP3    H1  299   4.824   0.231   1.643
  121TIP3    H2  300   4.813   0.383   1.640
  122TIP3   OH2  301   4.728  -0.179   1.816
  122TIP3    H1  302   4.695  -0.116   1.883
  122TIP3    H2  303   4.650  -0.194   1.761
  123TIP3   OH2  304   3.888   0.207   1.409
  123TIP3    H1  305   3.824   0.143   1.447
  123TIP3    H2  306   3.971   0.175   1.450
  124TIP3   OH2  307   4.380   0.355   1.457
  124TIP3    H1  308   4.351   0.449   1.460
  124TIP3    H2  309   4.337   0.319   1.536
  125TIP3   OH2  310   3.724  -0.146   2.077
  125TIP3    H1  311   3.735  -0.070   2.139
  125TIP3    H2  312   3.634  -0.173   2.098
  126TIP3   OH2  313   4.069   0.304   1.022
  126TIP3    H1  314   4.144   0.365   1.040
  126TIP3    H2  315   4.001   0.368   0.995
  127TIP3   OH2  316   3.770   0.456   2.089
  127TIP3    H1  317   3.748   0.439   1.996
  127TIP3    H2  318   3.690   0.424   2.137
  128TIP3   OH2  319   5.071   0.623   1.722
  128TIP3    H1  320   5.076   0.531   1.753
  128TIP3    H2  321   4.984   0.649   1.762
  129TIP3   OH2  322   4.220   0.474   0.804
  129TIP3    H1  323   4.145   0.501   0.748
  129TIP3    H2  324   4.260   0.402   0.746
  130TIP3   OH2  325   4.965  -0.244   1.992
  130TIP3    H1  326   4.888  -0.215   1.939
  130TIP3    H2  327   4.940  -0.339   1.997
  131TIP3   OH2  328   3.575   0.170   2.029
  131TIP3    H1  329   3.617   0.152   2.115
  131TIP3    H2  330   3.495   0.116   2.031
  132TIP3   OH2  331   4.785  -0.439   1.962
  132TIP3    H1  332   4.763  -0.536   1.976
  132TIP3    H2  333   4.715  -0.412   1.901
  133TIP3   OH2  334   4.447  -0.215   2.132
  133TIP3    H1  335   4.421  -0.295   2.184
  133TIP3    H2  336   4.541  -0.208   2.160
  134TIP3   OH2  337   4.400  -0.255   1.707
  134TIP3    H1  338   4.467  -0.311   1.663
  134TIP3    H2  339   4.393  -0.304   1.792
  135TIP3   OH2  340   4.780   0.962   1.813
  135TIP3    H1  341   4.765   1.012   1.732
  135TIP3    H2  342   4.852   1.014   1.856
  136TIP3   OH2  343   3.726   0.075   2.249
  136TIP3    H1  344   3.805   0.107   2.298
  136TIP3    H2  345   3.659   0.078   2.320
  137TIP3   OH2  346   4.151  -0.593   1.852
  137TIP3    H1  347   4.102  -0.564   1.772
  137TIP3    H2  348   4.224  -0.527   1.857
  138TIP3   OH2  349   4.793   0.108   1.528
  138TIP3    H1  350   4.838   0.156   1.454
  138TIP3    H2  351   4.701   0.099   1.497
  139TIP3   OH2  352   4.198  -0.130   2.202
  139TIP3    H1  353   4.143  -0.187   2.146
  139TIP3    H2  354   4.288  -0.153   2.169
  140TIP3   OH2  355   4.444   0.385   1.796
  140TIP3    H1  356   4.382   0.458   1.773
  140TIP3    H2  357   4.489   0.429   1.870
  141TIP3   OH2  358   5.083   0.334   1.778
  141TIP3    H1  359   4.985   0.334   1.771
  141TIP3    H2  360   5.110   0.312   1.686
  142TIP3   OH2  361   4.555  -0.015   1.451
  142TIP3    H1  362   4.493  -0.057   1.512
  142TIP3    H2  363   4.621  -0.085   1.440
  143TIP3   OH2  364   3.970   0.509   1.654
  143TIP3    H1  365   4.000   0.575   1.588
  143TIP3    H2  366   4.044   0.521   1.717
  144TIP3   OH2  367   4.346   0.128   1.633
  144TIP3    H1  368   4.383   0.158   1.718
  144TIP3    H2  369   4.427   0.123   1.579
  145TIP3   OH2  370   3.436   0.381   1.797
  145TIP3    H1  371   3.463   0.296   1.837
  145TIP3    H2  372   3.440   0.441   1.873
  146TIP3   OH2  373   4.370  -0.408   1.935
  146TIP3    H1  374   4.375  -0.345   2.010
  146TIP3    H2  375   4.397  -0.489   1.981
  147TIP3   OH2  376   3.392   0.672   2.232
  147TIP3    H1  377   3.477   0.676   2.280
  147TIP3    H2  378   3.376   0.577   2.231
  148TIP3   OH2  379   3.861   0.627   2.282
  148TIP3    H1  380   3.957   0.618   2.283
  148TIP3    H2  381   3.838   0.566   2.208
  149TIP3   OH2  382   3.513   0.070   2.428
  149TIP3    H1  383   3.533  -0.025   2.440
  149TIP3    H2  384   3.426   0.067   2.384
  150TIP3   OH2  385   4.099   0.116   2.136
  150TIP3    H1  386   4.033   0.083   2.202
  150TIP3    H2  387   4.177   0.068   2.174
  151TIP3   OH2  388   4.607   0.169   1.802
  151TIP3    H1  389   4.690   0.215   1.775
  151TIP3    H2  390   4.546   0.245   1.805
  152TIP3   OH2  391   3.641  -0.195   2.418
  152TIP3    H1  392   3.721  -0.246   2.398
  152TIP3    H2  393   3.666  -0.159   2.506
  153TIP3   OH2  394   3.966  -0.279   2.067
  153TIP3    H1  395   3.881  -0.229   2.064
  153TIP3    H2  396   4.014  -0.245   1.988
  154TIP3   OH2  397   4.494   0.093   2.213
  154TIP3    H1  398   4.572   0.064   2.164
  154TIP3    H2  399   4.488   0.024   2.283
  155TIP3   OH2  400   4.058  -0.492   2.202
  155TIP3    H1  401   3.996  -0.549   2.154
  155TIP3    H2  402   4.038  -0.407   2.155
  156TIP3   OH2  403   4.140  -0.175   1.887
  156TIP3    H1  404   4.211  -0.218   1.836
  156TIP3    H2  405   4.091  -0.128   1.819
  157TIP3   OH2  406   4.694  -0.215   2.252
  157TIP3    H1  407   4.725  -0.286   2.312
  157TIP3    H2  408   4.777  -0.187   2.210
  158TIP3   OH2  409   4.745   0.040   2.001
  158TIP3    H1  410   4.688   0.088   1.937
  158TIP3    H2  411   4.832   0.048   1.958
  159TIP3   OH2  412   3.935  -0.367   2.423
  159TIP3    H1  413   3.905  -0.440   2.479
  159TIP3    H2  414   3.996  -0.411   2.361
  160TIP3   OH2  415   4.343  -0.436   2.235
  160TIP3    H1  416   4.386  -0.480   2.311
  160TIP3    H2  417   4.250  -0.464   2.246
  161TIP3   OH2  418   4.862   0.725   1.222
  161TIP3    H1  419   4.877   0.751   1.315
  161TIP3    H2  420   4.909   0.795   1.175
  162TIP3   OH2  421   4.902   0.745   1.495
  162TIP3    H1  422   4.858   0.658   1.501
  162TIP3    H2  423   4.969   0.734   1.565
  163TIP3   OH2  424   4.950   0.429   2.065
  163TIP3    H1  425   4.878   0.438   2.131
  163TIP3    H2  426   4.994   0.516   2.072
  164TIP3   OH2  427   4.959   0.228   1.351
  164TIP3    H1  428   5.025   0.184   1.293
  164TIP3    H2  429   4.946   0.310   1.300
  165TIP3   OH2  430   4.760   0.500   1.515
  165TIP3    H1  431   4.686   0.545   1.558
  165TIP3    H2  432   4.714   0.443   1.450
  166TIP3   OH2  433   5.000   0.079   1.892
  166TIP3    H1  434   5.072   0.012   1.884
  166TIP3    H2  435   5.035   0.152   1.838
  167TIP3   OH2  436   5.191  -0.131   1.907
  167TIP3    H1  437   5.112  -0.178   1.943
  167TIP3    H2  438   5.262  -0.193   1.929
  168TIP3   OH2  439   3.560  -0.586   2.481
  168TIP3    H1  440   3.632  -0.601   2.417
  168TIP3    H2  441   3.598  -0.624   2.562
  169TIP3   OH2  442   4.485   0.657   0.905
  169TIP3    H1  443   4.529   0.577   0.866
  169TIP3    H2  444   4.535   0.729   0.859
  170TIP3   OH2  445   3.555   0.392   2.255
  170TIP3    H1  446   3.460   0.376   2.241
  170TIP3    H2  447   3.563   0.387   2.351
  171TIP3   OH2  448   3.747   0.423   1.798
  171TIP3    H1  449   3.683   0.490   1.766
  171TIP3    H2  450   3.828   0.458   1.754
  172TIP3   OH2  451   3.423   0.697   1.828
  172TIP3    H1  452   3.328   0.715   1.809
  172TIP3    H2  453   3.433   0.748   1.910
  173TIP3   OH2  454   3.650   0.662   1.681
  173TIP3    H1  455   3.565   0.675   1.730
  173TIP3    H2  456   3.628   0.700   1.594
  174TIP3   OH2  457   4.059   0.698   1.480
  174TIP3    H1  458   3.993   0.733   1.417
  174TIP3    H2  459   4.083   0.778   1.531
  175TIP3   OH2  460   4.338   0.624   1.449
  175TIP3    H1  461   4.248   0.643   1.484
  175TIP3    H2  462   4.390   0.677   1.512
  176TIP3   OH2  463   4.570   0.835   1.432
  176TIP3    H1  464   4.531   0.919   1.398
  176TIP3    H2  465   4.626   0.808   1.358
  177TIP3   OH2  466   3.358   0.494   1.561
  177TIP3    H1  467   3.383   0.460   1.650
  177TIP3    H2  468   3.339   0.410   1.514
  178TIP3   OH2  469   3.788   0.472   1.428
  178TIP3    H1  470   3.823   0.383   1.406
  178TIP3    H2  471   3.832   0.488   1.514
  179TIP3   OH2  472   4.818   0.697   1.804
  179TIP3    H1  473   4.730   0.671   1.834
  179TIP3    H2  474   4.809   0.795   1.809
  180TIP3   OH2  475   5.580   0.468   1.314
  180TIP3    H1  476   5.490   0.499   1.303
  180TIP3    H2  477   5.570   0.418   1.397
  181TIP3   OH2  478   5.572   0.703   1.568
  181TIP3    H1  479   5.516   0.674   1.495
  181TIP3    H2  480   5.511   0.686   1.643
  182TIP3   OH2  481   5.163   0.249   1.533
  182TIP3    H1  482   5.086   0.225   1.478
  182TIP3    H2  483   5.190   0.162   1.571
  183TIP3   OH2  484   4.994   0.440   1.180
  183TIP3    H1  485   5.089   0.457   1.183
  183TIP3    H2  486   4.958   0.523   1.214
  184TIP3   OH2  487   5.362   0.432   1.494
  184TIP3    H1  488   5.417   0.419   1.576
  184TIP3    H2  489   5.295   0.362   1.509
  185TIP3   OH2  490   6.544   1.242   1.332
  185TIP3    H1  491   6.531   1.247   1.236
  185TIP3    H2  492   6.636   1.272   1.342
  186TIP3   OH2  493   5.515   0.368   1.720
  186TIP3    H1  494   5.594   0.385   1.775
  186TIP3    H2  495   5.447   0.358   1.789
  187TIP3   OH2  496   5.236   0.032   1.677
  187TIP3    H1  497   5.297   0.051   1.751
  187TIP3    H2  498   5.208  -0.058   1.700
  188TIP3   OH2  499   5.219   0.598   1.305
  188TIP3    H1  500   5.254   0.542   1.378
  188TIP3    H2  501   5.214   0.684   1.350
  189TIP3   OH2  502   5.188   0.934   1.717
  189TIP3    H1  503   5.270   0.943   1.771
  189TIP3    H2  504   5.171   0.839   1.726
  190TIP3   OH2  505   5.671   0.884   1.759
  190TIP3    H1  506   5.765   0.864   1.766
  190TIP3    H2  507   5.643   0.827   1.684
  191TIP3   OH2  508   6.265   0.819   1.512
  191TIP3    H1  509   6.269   0.741   1.573
  191TIP3    H2  510   6.355   0.853   1.517
  192TIP3   OH2  511   5.319   0.336   1.907
  192TIP3    H1  512   5.338   0.239   1.912
  192TIP3    H2  513   5.227   0.336   1.873
  193TIP3   OH2  514   5.937   0.420   1.702
  193TIP3    H1  515   5.872   0.401   1.630
  193TIP3    H2  516   5.976   0.330   1.708
  194TIP3   OH2  517   5.405   0.083   1.910
  194TIP3    H1  518   5.433  -0.010   1.900
  194TIP3    H2  519   5.451   0.108   1.994
  195TIP3   OH2  520   4.773   0.722   0.770
  195TIP3    H1  521   4.751   0.669   0.691
  195TIP3    H2  522   4.797   0.655   0.838
  196TIP3   OH2  523   4.885   0.576   0.962
  196TIP3    H1  524   4.910   0.490   0.998
  196TIP3    H2  525   4.919   0.635   1.032
  197TIP3   OH2  526   5.356   0.658   1.739
  197TIP3    H1  527   5.263   0.634   1.725
  197TIP3    H2  528   5.362   0.659   1.835
  198TIP3   OH2  529   5.947   0.899   1.421
  198TIP3    H1  530   5.987   0.913   1.510
  198TIP3    H2  531   6.008   0.957   1.369
  199TIP3   OH2  532   6.120   1.091   1.292
  199TIP3    H1  533   6.196   1.054   1.242
  199TIP3    H2  534   6.169   1.146   1.356
  200TIP3   OH2  535   5.205   0.932   1.313
  200TIP3    H1  536   5.114   0.965   1.293
  200TIP3    H2  537   5.225   0.986   1.391
  201TIP3   OH2  538   5.447   0.936   1.164
  201TIP3    H1  539   5.361   0.934   1.211
  201TIP3    H2  540   5.421   0.969   1.076
  202TIP3   OH2  541   5.837   0.943   0.939
  202TIP3    H1  542   5.762   0.997   0.912
  202TIP3    H2  543   5.875   0.998   1.010
  203TIP3   OH2  544   5.108   0.740   1.071
  203TIP3    H1  545   5.154   0.716   1.154
  203TIP3    H2  546   5.166   0.702   1.004
  204TIP3   OH2  547   0.816   2.256   2.487
  204TIP3    H1  548   0.786   2.297   2.405
  204TIP3    H2  549   0.891   2.314   2.511
  205TIP3   OH2  550   0.958   1.735   2.744
  205TIP3    H1  551   1.007   1.665   2.792
  205TIP3    H2  552   1.027   1.804   2.733
  206TIP3   OH2  553   2.308   1.685   1.388
  206TIP3    H1  554   2.347   1.658   1.472
  206TIP3    H2  555   2.360   1.763   1.366
  207TIP3   OH2  556   2.032   2.100   1.330
  207TIP3    H1  557   2.082   2.049   1.263
  207TIP3    H2  558   2.079   2.074   1.411
  208TIP3   OH2  559   2.996   0.948   1.720
  208TIP3    H1  560   3.003   1.035   1.762
  208TIP3    H2  561   3.012   0.969   1.626
  209TIP3   OH2  562   3.036   1.173   1.864
  209TIP3    H1  563   2.947   1.210   1.849
  209TIP3    H2  564   3.050   1.193   1.959
  210TIP3   OH2  565   2.443   1.931   1.496
  210TIP3    H1  566   2.350   1.922   1.523
  210TIP3    H2  567   2.442   2.018   1.450
  211TIP3   OH2  568   2.702   1.870   1.839
  211TIP3    H1  569   2.706   1.779   1.782
  211TIP3    H2  570   2.684   1.928   1.759
  212TIP3   OH2  571   2.869   1.475   1.674
  212TIP3    H1  572   2.788   1.530   1.680
  212TIP3    H2  573   2.900   1.500   1.584
  213TIP3   OH2  574   2.569   1.361   1.979
  213TIP3    H1  575   2.555   1.438   2.038
  213TIP3    H2  576   2.480   1.355   1.936
  214TIP3   OH2  577   2.194   1.927   1.603
  214TIP3    H1  578   2.188   2.010   1.654
  214TIP3    H2  579   2.202   1.858   1.672
  215TIP3   OH2  580   1.806   1.830   2.148
  215TIP3    H1  581   1.773   1.904   2.202
  215TIP3    H2  582   1.722   1.784   2.134
  216TIP3   OH2  583   1.618   2.015   2.248
  216TIP3    H1  584   1.603   2.016   2.150
  216TIP3    H2  585   1.530   1.990   2.280
  217TIP3   OH2  586   2.029   1.958   2.024
  217TIP3    H1  587   2.018   2.054   2.042
  217TIP3    H2  588   1.945   1.923   2.060
  218TIP3   OH2  589   2.799   1.310   2.140
  218TIP3    H1  590   2.718   1.312   2.086
  218TIP3    H2  591   2.815   1.213   2.145
  219TIP3   OH2  592   2.578   1.090   2.069
  219TIP3    H1  593   2.523   1.076   2.150
  219TIP3    H2  594   2.546   1.176   2.036
  220TIP3   OH2  595   2.282   1.315   2.315
  220TIP3    H1  596   2.263   1.238   2.373
  220TIP3    H2  597   2.378   1.326   2.333
  221TIP3   OH2  598   2.319   1.305   1.895
  221TIP3    H1  599   2.326   1.235   1.829
  221TIP3    H2  600   2.263   1.262   1.962
  222TIP3   OH2  601   2.597   2.542   1.983
  222TIP3    H1  602   2.600   2.549   1.886
  222TIP3    H2  603   2.684   2.577   2.007
  223TIP3   OH2  604   1.582   1.656   2.391
  223TIP3    H1  605   1.652   1.674   2.457
  223TIP3    H2  606   1.505   1.638   2.447
  224TIP3   OH2  607   2.658   1.650   1.687
  224TIP3    H1  608   2.678   1.691   1.599
  224TIP3    H2  609   2.569   1.613   1.672
  225TIP3   OH2  610   2.126   1.697   2.030
  225TIP3    H1  611   2.170   1.683   2.115
  225TIP3    H2  612   2.098   1.791   2.036
  226TIP3   OH2  613   2.040   1.445   2.339
  226TIP3    H1  614   1.987   1.384   2.286
  226TIP3    H2  615   2.131   1.413   2.321
  227TIP3   OH2  616   2.293   1.959   1.924
  227TIP3    H1  617   2.197   1.958   1.939
  227TIP3    H2  618   2.321   2.015   2.000
  228TIP3   OH2  619   2.415   1.533   1.648
  228TIP3    H1  620   2.327   1.505   1.612
  228TIP3    H2  621   2.461   1.446   1.640
  229TIP3   OH2  622   2.203   1.696   1.762
  229TIP3    H1  623   2.183   1.681   1.856
  229TIP3    H2  624   2.281   1.639   1.748
  230TIP3   OH2  625   2.431   2.213   1.803
  230TIP3    H1  626   2.347   2.164   1.793
  230TIP3    H2  627   2.420   2.284   1.736
  231TIP3   OH2  628   2.203   1.164   2.102
  231TIP3    H1  629   2.233   1.222   2.174
  231TIP3    H2  630   2.257   1.085   2.117
  232TIP3   OH2  631   2.840   1.038   2.055
  232TIP3    H1  632   2.742   1.040   2.066
  232TIP3    H2  633   2.847   1.028   1.959
  233TIP3   OH2  634   2.464   2.190   1.413
  233TIP3    H1  635   2.424   2.235   1.334
  233TIP3    H2  636   2.559   2.209   1.394
  234TIP3   OH2  637   1.238   2.243   2.379
  234TIP3    H1  638   1.322   2.242   2.432
  234TIP3    H2  639   1.223   2.148   2.369
  235TIP3   OH2  640   1.712   2.193   2.432
  235TIP3    H1  641   1.806   2.171   2.439
  235TIP3    H2  642   1.683   2.128   2.363
  236TIP3   OH2  643   2.353   2.089   2.156
  236TIP3    H1  644   2.341   2.024   2.229
  236TIP3    H2  645   2.424   2.147   2.190
  237TIP3   OH2  646   1.363   1.625   2.589
  237TIP3    H1  647   1.414   1.542   2.601
  237TIP3    H2  648   1.296   1.589   2.527
  238TIP3   OH2  649   1.964   1.720   2.358
  238TIP3    H1  650   1.922   1.733   2.270
  238TIP3    H2  651   1.999   1.629   2.350
  239TIP3   OH2  652   2.469   1.747   1.971
  239TIP3    H1  653   2.518   1.763   1.888
  239TIP3    H2  654   2.387   1.798   1.953
  240TIP3   OH2  655   1.488   1.381   2.580
  240TIP3    H1  656   1.554   1.324   2.538
  240TIP3    H2  657   1.526   1.398   2.669
  241TIP3   OH2  658   2.329   1.649   2.357
  241TIP3    H1  659   2.414   1.624   2.319
  241TIP3    H2  660   2.324   1.588   2.433
  242TIP3   OH2  661   2.547   1.327   2.413
  242TIP3    H1  662   2.587   1.239   2.426
  242TIP3    H2  663   2.625   1.378   2.387
  243TIP3   OH2  664   2.594   1.588   2.150
  243TIP3    H1  665   2.535   1.642   2.092
  243TIP3    H2  666   2.680   1.600   2.107
  244TIP3   OH2  667   1.822   1.139   2.600
  244TIP3    H1  668   1.776   1.098   2.676
  244TIP3    H2  669   1.816   1.065   2.534
  245TIP3   OH2  670   2.202   1.090   2.449
  245TIP3    H1  671   2.199   1.086   2.547
  245TIP3    H2  672   2.115   1.057   2.427
  246TIP3   OH2  673   2.435   1.049   2.295
  246TIP3    H1  674   2.364   1.044   2.363
  246TIP3    H2  675   2.511   1.012   2.345
  247TIP3   OH2  676   2.656   0.986   2.449
  247TIP3    H1  677   2.676   0.891   2.464
  247TIP3    H2  678   2.657   1.022   2.540
  248TIP3   OH2  679   2.243   0.805   2.646
  248TIP3    H1  680   2.215   0.729   2.590
  248TIP3    H2  681   2.163   0.861   2.652
  249TIP3   OH2  682   2.715   2.281   1.365
  249TIP3    H1  683   2.733   2.351   1.430
  249TIP3    H2  684   2.764   2.314   1.288
  250TIP3   OH2  685   2.734   2.318   1.648
  250TIP3    H1  686   2.698   2.227   1.645
  250TIP3    H2  687   2.828   2.301   1.632
  251TIP3   OH2  688   2.770   2.004   2.167
  251TIP3    H1  689   2.715   2.001   2.252
  251TIP3    H2  690   2.828   2.083   2.191
  252TIP3   OH2  691   2.774   1.757   1.466
  252TIP3    H1  692   2.836   1.691   1.427
  252TIP3    H2  693   2.784   1.832   1.404
  253TIP3   OH2  694   2.617   2.060   1.673
  253TIP3    H1  695   2.548   2.112   1.718
  253TIP3    H2  696   2.564   2.014   1.603
  254TIP3   OH2  697   2.844   1.663   2.025
  254TIP3    H1  698   2.907   1.588   2.039
  254TIP3    H2  699   2.845   1.665   1.927
  255TIP3   OH2  700   3.011   1.453   2.059
  255TIP3    H1  701   2.937   1.395   2.089
  255TIP3    H2  702   3.087   1.394   2.078
  256TIP3   OH2  703   2.755   1.068   1.582
  256TIP3    H1  704   2.824   1.124   1.541
  256TIP3    H2  705   2.726   1.125   1.654
  257TIP3   OH2  706   2.778   1.256   1.814
  257TIP3    H1  707   2.695   1.288   1.855
  257TIP3    H2  708   2.801   1.331   1.755
  258TIP3   OH2  709   3.220   0.843   2.361
  258TIP3    H1  710   3.281   0.780   2.318
  258TIP3    H2  711   3.193   0.900   2.286
  259TIP3   OH2  712   3.097   0.995   2.172
  259TIP3    H1  713   3.014   1.033   2.206
  259TIP3    H2  714   3.060   0.924   2.115
  260TIP3   OH2  715   2.269   2.176   0.998
  260TIP3    H1  716   2.322   2.159   0.918
  260TIP3    H2  717   2.328   2.233   1.050
  261TIP3   OH2  718   1.364   1.957   2.400
  261TIP3    H1  719   1.384   1.870   2.354
  261TIP3    H2  720   1.402   1.943   2.489
  262TIP3   OH2  721   1.598   2.000   1.970
  262TIP3    H1  722   1.499   1.986   1.960
  262TIP3    H2  723   1.620   2.019   1.878
  263TIP3   OH2  724   2.012   2.236   2.083
  263TIP3    H1  725   2.054   2.231   2.172
  263TIP3    H2  726   2.082   2.284   2.033
  264TIP3   OH2  727   2.197   2.382   1.944
  264TIP3    H1  728   2.274   2.337   1.907
  264TIP3    H2  729   2.242   2.445   2.004
  265TIP3   OH2  730   2.999   0.759   2.064
  265TIP3    H1  731   2.909   0.758   2.027
  265TIP3    H2  732   3.028   0.666   2.056
  266TIP3   OH2  733   1.314   2.261   1.965
  266TIP3    H1  734   1.240   2.248   1.902
  266TIP3    H2  735   1.268   2.289   2.046
  267TIP3   OH2  736   1.531   2.261   1.794
  267TIP3    H1  737   1.472   2.249   1.878
  267TIP3    H2  738   1.458   2.240   1.728
  268TIP3   OH2  739   2.180   2.199   1.675
  268TIP3    H1  740   2.096   2.245   1.666
  268TIP3    H2  741   2.241   2.264   1.633
  269TIP3   OH2  742   2.373   2.379   1.592
  269TIP3    H1  743   2.366   2.467   1.547
  269TIP3    H2  744   2.409   2.324   1.519
  270TIP3   OH2  745   2.732   0.721   2.489
  270TIP3    H1  746   2.749   0.689   2.580
  270TIP3    H2  747   2.820   0.710   2.448
  271TIP3   OH2  748   3.930   1.635   0.738
  271TIP3    H1  749   3.895   1.724   0.714
  271TIP3    H2  750   3.863   1.578   0.697
  272TIP3   OH2  751   3.917   1.644   1.129
  272TIP3    H1  752   3.962   1.610   1.208
  272TIP3    H2  753   3.907   1.565   1.074
  273TIP3   OH2  754   3.228   1.527   1.492
  273TIP3    H1  755   3.260   1.458   1.554
  273TIP3    H2  756   3.310   1.575   1.474
  274TIP3   OH2  757   4.180   1.939   0.802
  274TIP3    H1  758   4.163   1.869   0.867
  274TIP3    H2  759   4.206   2.013   0.859
  275TIP3   OH2  760   3.205   1.939   1.213
  275TIP3    H1  761   3.197   1.842   1.213
  275TIP3    H2  762   3.301   1.950   1.199
  276TIP3   OH2  763   2.994   1.458   1.178
  276TIP3    H1  764   3.056   1.387   1.206
  276TIP3    H2  765   3.053   1.519   1.130
  277TIP3   OH2  766   3.828   2.399   0.821
  277TIP3    H1  767   3.868   2.328   0.766
  277TIP3    H2  768   3.822   2.356   0.907
  278TIP3   OH2  769   3.727   1.860   1.171
  278TIP3    H1  770   3.772   1.781   1.135
  278TIP3    H2  771   3.808   1.911   1.194
  279TIP3   OH2  772   4.746   1.182   1.169
  279TIP3    H1  773   4.776   1.266   1.211
  279TIP3    H2  774   4.745   1.207   1.075
  280TIP3   OH2  775   4.124   1.353   1.202
  280TIP3    H1  776   4.174   1.271   1.219
  280TIP3    H2  777   4.123   1.354   1.104
  281TIP3   OH2  778   3.479   1.020   1.187
  281TIP3    H1  779   3.460   1.088   1.121
  281TIP3    H2  780   3.423   0.947   1.157
  282TIP3   OH2  781   3.120   1.230   1.263
  282TIP3    H1  782   3.205   1.208   1.305
  282TIP3    H2  783   3.102   1.148   1.212
  283TIP3   OH2  784   3.565   1.439   1.075
  283TIP3    H1  785   3.660   1.412   1.083
  283TIP3    H2  786   3.524   1.356   1.045
  284TIP3   OH2  787   4.819   1.392   1.337
  284TIP3    H1  788   4.734   1.438   1.320
  284TIP3    H2  789   4.838   1.421   1.428
  285TIP3   OH2  790   3.480   1.015   1.603
  285TIP3    H1  791   3.422   1.058   1.538
  285TIP3    H2  792   3.427   1.024   1.684
  286TIP3   OH2  793   3.804   1.848   0.614
  286TIP3    H1  794   3.799   1.852   0.518
  286TIP3    H2  795   3.767   1.936   0.639
  287TIP3   OH2  796   3.580   1.783   1.392
  287TIP3    H1  797   3.522   1.854   1.428
  287TIP3    H2  798   3.627   1.830   1.320
  288TIP3   OH2  799   4.388   1.056   0.999
  288TIP3    H1  800   4.391   1.107   1.083
  288TIP3    H2  801   4.391   1.130   0.935
  289TIP3   OH2  802   3.349   1.137   1.392
  289TIP3    H1  803   3.409   1.212   1.415
  289TIP3    H2  804   3.407   1.091   1.327
  290TIP3   OH2  805   3.406   1.979   1.497
  290TIP3    H1  806   3.384   2.065   1.455
  290TIP3    H2  807   3.327   1.967   1.554
  291TIP3   OH2  808   4.244   2.183   0.967
  291TIP3    H1  809   4.154   2.174   1.007
  291TIP3    H2  810   4.235   2.269   0.922
  292TIP3   OH2  811   4.529   1.080   1.319
  292TIP3    H1  812   4.443   1.118   1.295
  292TIP3    H2  813   4.591   1.121   1.255
  293TIP3   OH2  814   3.823   0.727   1.314
  293TIP3    H1  815   3.816   0.635   1.348
  293TIP3    H2  816   3.752   0.770   1.367
  294TIP3   OH2  817   3.940   2.226   0.636
  294TIP3    H1  818   3.990   2.143   0.617
  294TIP3    H2  819   4.004   2.292   0.599
  295TIP3   OH2  820   4.080   2.007   0.552
  295TIP3    H1  821   4.076   1.925   0.501
  295TIP3    H2  822   4.121   1.975   0.636
  296TIP3   OH2  823   4.469   2.092   1.311
  296TIP3    H1  824   4.457   2.015   1.252
  296TIP3    H2  825   4.451   2.167   1.251
  297TIP3   OH2  826   3.762   1.484   0.574
  297TIP3    H1  827   3.688   1.540   0.547
  297TIP3    H2  828   3.815   1.479   0.490
  298TIP3   OH2  829   4.666   1.734   1.159
  298TIP3    H1  830   4.581   1.783   1.164
  298TIP3    H2  831   4.695   1.758   1.069
  299TIP3   OH2  832   4.125   1.558   0.556
  299TIP3    H1  833   4.070   1.589   0.631
  299TIP3    H2  834   4.173   1.485   0.602
  300TIP3   OH2  835   4.345   1.605   1.458
  300TIP3    H1  836   4.343   1.688   1.511
  300TIP3    H2  837   4.260   1.613   1.410
  301TIP3   OH2  838   3.343   1.564   0.960
  301TIP3    H1  839   3.326   1.514   0.879
  301TIP3    H2  840   3.424   1.521   0.994
  302TIP3   OH2  841   3.467   1.971   1.109
  302TIP3    H1  842   3.454   1.946   1.016
  302TIP3    H2  843   3.558   1.938   1.126
  303TIP3   OH2  844   3.469   1.547   1.312
  303TIP3    H1  845   3.512   1.521   1.228
  303TIP3    H2  846   3.517   1.629   1.335
  304TIP3   OH2  847   4.003   2.176   1.090
  304TIP3    H1  848   3.990   2.257   1.143
  304TIP3    H2  849   3.988   2.104   1.154
  305TIP3   OH2  850   3.619   2.094   1.635
  305TIP3    H1  851   3.560   2.156   1.682
  305TIP3    H2  852   3.553   2.040   1.587
  306TIP3   OH2  853   3.935   1.474   0.366
  306TIP3    H1  854   4.012   1.491   0.423
  306TIP3    H2  855   3.978   1.462   0.279
  307TIP3   OH2  856   3.371   1.649   1.743
  307TIP3    H1  857   3.378   1.737   1.784
  307TIP3    H2  858   3.276   1.632   1.753
  308TIP3   OH2  859   3.694   2.104   0.651
  308TIP3    H1  860   3.776   2.157   0.654
  308TIP3    H2  861   3.637   2.159   0.594
  309TIP3   OH2  862   3.409   2.262   1.719
  309TIP3    H1  863   3.383   2.266   1.625
  309TIP3    H2  864   3.323   2.255   1.765
  310TIP3   OH2  865   4.262   2.041  -0.043
  310TIP3    H1  866   4.275   2.137  -0.057
  310TIP3    H2  867   4.354   2.009  -0.046
  311TIP3   OH2  868   2.987   1.802   1.678
  311TIP3    H1  869   2.932   1.771   1.604
  311TIP3    H2  870   3.027   1.719   1.712
  312TIP3   OH2  871   2.848   1.980   1.306
  312TIP3    H1  872   2.944   1.982   1.293
  312TIP3    H2  873   2.833   2.064   1.352
  313TIP3   OH2  874   4.709   2.440   1.359
  313TIP3    H1  875   4.708   2.345   1.379
  313TIP3    H2  876   4.626   2.467   1.406
  314TIP3   OH2  877   3.814   2.225   1.491
  314TIP3    H1  878   3.811   2.318   1.525
  314TIP3    H2  879   3.745   2.183   1.547
  315TIP3   OH2  880   3.576   2.350   0.446
  315TIP3    H1  881   3.536   2.337   0.358
  315TIP3    H2  882   3.545   2.440   0.471
  316TIP3   OH2  883   3.023   2.217   0.830
  316TIP3    H1  884   3.064   2.198   0.917
  316TIP3    H2  885   2.967   2.136   0.818
  317TIP3   OH2  886   3.766   2.250   0.095
  317TIP3    H1  887   3.825   2.192   0.043
  317TIP3    H2  888   3.812   2.255   0.181
  318TIP3   OH2  889   3.832   2.306   0.362
  318TIP3    H1  890   3.741   2.312   0.399
  318TIP3    H2  891   3.880   2.266   0.437
  319TIP3   OH2  892   4.600   1.569   1.635
  319TIP3    H1  893   4.516   1.580   1.588
  319TIP3    H2  894   4.615   1.473   1.627
  320TIP3   OH2  895   3.189   1.988   1.676
  320TIP3    H1  896   3.249   1.951   1.743
  320TIP3    H2  897   3.114   1.924   1.678
  321TIP3   OH2  898   3.601   0.813   1.452
  321TIP3    H1  899   3.509   0.786   1.434
  321TIP3    H2  900   3.582   0.894   1.504
  322TIP3   OH2  901   4.131   0.912   1.645
  322TIP3    H1  902   4.192   0.854   1.695
  322TIP3    H2  903   4.046   0.892   1.688
  323TIP3   OH2  904   4.360   1.341   1.553
  323TIP3    H1  905   4.315   1.340   1.640
  323TIP3    H2  906   4.340   1.431   1.520
  324TIP3   OH2  907   4.042   1.479   0.107
  324TIP3    H1  908   4.003   1.485   0.019
  324TIP3    H2  909   4.123   1.531   0.096
  325TIP3   OH2  910   3.528   1.326   1.462
  325TIP3    H1  911   3.488   1.348   1.548
  325TIP3    H2  912   3.510   1.409   1.411
  326TIP3   OH2  913   3.422   1.228   0.962
  326TIP3    H1  914   3.375   1.142   0.956
  326TIP3    H2  915   3.490   1.213   0.895
  327TIP3   OH2  916   3.879   1.278   0.714
  327TIP3    H1  917   3.837   1.355   0.668
  327TIP3    H2  918   3.944   1.251   0.644
  328TIP3   OH2  919   4.074   1.562   1.787
  328TIP3    H1  920   4.054   1.489   1.849
  328TIP3    H2  921   4.168   1.579   1.810
  329TIP3   OH2  922   4.041   1.294   0.941
  329TIP3    H1  923   3.983   1.311   0.864
  329TIP3    H2  924   4.123   1.280   0.890
  330TIP3   OH2  925   3.341   1.345   1.673
  330TIP3    H1  926   3.386   1.403   1.736
  330TIP3    H2  927   3.331   1.262   1.724
  331TIP3   OH2  928   4.062   1.558   1.362
  331TIP3    H1  929   4.094   1.485   1.304
  331TIP3    H2  930   4.035   1.506   1.440
  332TIP3   OH2  931   3.733   1.004   1.055
  332TIP3    H1  932   3.663   1.011   1.123
  332TIP3    H2  933   3.805   1.052   1.099
  333TIP3   OH2  934   4.231   1.097   1.251
  333TIP3    H1  935   4.194   1.111   1.341
  333TIP3    H2  936   4.165   1.034   1.213
  334TIP3   OH2  937   4.401   2.789   1.460
  334TIP3    H1  938   4.400   2.815   1.366
  334TIP3    H2  939   4.481   2.836   1.492
  335TIP3   OH2  940   3.356   1.900   1.878
  335TIP3    H1  941   3.438   1.927   1.924
  335TIP3    H2  942   3.295   1.894   1.953
  336TIP3   OH2  943   3.821   1.329   1.119
  336TIP3    H1  944   3.903   1.317   1.067
  336TIP3    H2  945   3.852   1.309   1.209
  337TIP3   OH2  946   3.795   1.245   1.433
  337TIP3    H1  947   3.709   1.290   1.442
  337TIP3    H2  948   3.857   1.307   1.476
  338TIP3   OH2  949   3.527   1.632   0.532
  338TIP3    H1  950   3.432   1.618   0.525
  338TIP3    H2  951   3.530   1.674   0.622
  339TIP3   OH2  952   4.431   1.875   1.145
  339TIP3    H1  953   4.453   1.925   1.065
  339TIP3    H2  954   4.345   1.833   1.121
  340TIP3   OH2  955   3.923   1.953   1.520
  340TIP3    H1  956   3.971   1.942   1.604
  340TIP3    H2  957   3.895   2.046   1.522
  341TIP3   OH2  958   4.040   1.181   0.512
  341TIP3    H1  959   4.125   1.225   0.534
  341TIP3    H2  960   4.047   1.169   0.414
  342TIP3   OH2  961   3.224   1.657   1.192
  342TIP3    H1  962   3.265   1.635   1.106
  342TIP3    H2  963   3.283   1.611   1.254
  343TIP3   OH2  964   3.649   1.785   0.339
  343TIP3    H1  965   3.623   1.877   0.364
  343TIP3    H2  966   3.615   1.734   0.416
  344TIP3   OH2  967   3.099   1.589   1.813
  344TIP3    H1  968   3.124   1.568   1.905
  344TIP3    H2  969   3.043   1.513   1.790
  345TIP3   OH2  970   3.836   1.698   1.827
  345TIP3    H1  971   3.780   1.640   1.774
  345TIP3    H2  972   3.925   1.666   1.802
  346TIP3   OH2  973   4.089   2.214   1.417
  346TIP3    H1  974   3.992   2.219   1.428
  346TIP3    H2  975   4.119   2.268   1.494
  347TIP3   OH2  976   4.520   1.297   0.296
  347TIP3    H1  977   4.444   1.244   0.267
  347TIP3    H2  978   4.496   1.384   0.257
  348TIP3   OH2  979   4.719   2.147   1.401
  348TIP3    H1  980   4.621   2.143   1.393
  348TIP3    H2  981   4.745   2.119   1.311
  349TIP3   OH2  982   4.213   2.106   0.228
  349TIP3    H1  983   4.166   2.041   0.283
  349TIP3    H2  984   4.210   2.064   0.139
  350TIP3   OH2  985   4.195   1.743   1.069
  350TIP3    H1  986   4.100   1.723   1.077
  350TIP3    H2  987   4.229   1.657   1.036
  351TIP3   OH2  988   3.327   1.971   0.821
  351TIP3    H1  989   3.331   2.054   0.769
  351TIP3    H2  990   3.232   1.954   0.819
  352TIP3   OH2  991   3.456   1.736   0.770
  352TIP3    H1  992   3.427   1.828   0.784
  352TIP3    H2  993   3.425   1.693   0.851
  353TIP3   OH2  994   3.596   2.306   1.288
  353TIP3    H1  995   3.636   2.381   1.238
  353TIP3    H2  996   3.674   2.273   1.336
  354TIP3   OH2  997   3.249   2.206   0.670
  354TIP3    H1  998   3.164   2.219   0.717
  354TIP3    H2  999   3.285   2.298   0.671
  355TIP3   OH2 1000   3.979   1.946   1.250
  355TIP3    H1 1001   3.969   1.940   1.347
  355TIP3    H2 1002   4.060   1.895   1.236
  356TIP3   OH2 1003   3.974   1.853   0.125
  356TIP3    H1 1004   4.007   1.821   0.211
  356TIP3    H2 1005   3.895   1.796   0.112
  357TIP3   OH2 1006   4.230   2.474   1.296
  357TIP3    H1 1007   4.149   2.421   1.288
  357TIP3    H2 1008   4.216   2.540   1.224
  358TIP3   OH2 1009   4.300   2.316  -0.056
  358TIP3    H1 1010   4.347   2.394  -0.091
  358TIP3    H2 1011   4.220   2.361  -0.020
  359TIP3   OH2 1012   3.313   1.091   1.815
  359TIP3    H1 1013   3.219   1.106   1.836
  359TIP3    H2 1014   3.341   1.032   1.887
  360TIP3   OH2 1015   4.120   1.773   0.366
  360TIP3    H1 1016   4.112   1.699   0.429
  360TIP3    H2 1017   4.215   1.768   0.345
  361TIP3   OH2 1018   3.031   2.181   1.454
  361TIP3    H1 1019   3.082   2.108   1.492
  361TIP3    H2 1020   3.078   2.258   1.488
  362TIP3   OH2 1021   3.279   1.825   0.405
  362TIP3    H1 1022   3.337   1.819   0.482
  362TIP3    H2 1023   3.268   1.922   0.400
  363TIP3   OH2 1024   4.150   1.153   1.508
  363TIP3    H1 1025   4.233   1.193   1.538
  363TIP3    H2 1026   4.144   1.071   1.562
  364TIP3   OH2 1027   4.040   0.944   0.661
  364TIP3    H1 1028   4.005   0.982   0.578
  364TIP3    H2 1029   4.098   1.019   0.684
  365TIP3   OH2 1030   3.538   2.026   0.378
  365TIP3    H1 1031   3.452   2.063   0.404
  365TIP3    H2 1032   3.538   2.042   0.282
  366TIP3   OH2 1033   3.701   1.079   0.776
  366TIP3    H1 1034   3.765   1.145   0.741
  366TIP3    H2 1035   3.725   1.079   0.870
  367TIP3   OH2 1036   3.991   1.397   1.572
  367TIP3    H1 1037   4.020   1.449   1.650
  367TIP3    H2 1038   4.047   1.317   1.580
  368TIP3   OH2 1039   3.913   0.840   0.887
  368TIP3    H1 1040   3.849   0.911   0.901
  368TIP3    H2 1041   3.957   0.872   0.805
  369TIP3   OH2 1042   3.272   2.095   0.419
  369TIP3    H1 1043   3.250   2.167   0.357
  369TIP3    H2 1044   3.260   2.138   0.506
  370TIP3   OH2 1045   4.628   1.303   1.554
  370TIP3    H1 1046   4.530   1.299   1.559
  370TIP3    H2 1047   4.643   1.264   1.467
  371TIP3   OH2 1048   4.279   1.500   0.972
  371TIP3    H1 1049   4.256   1.453   0.888
  371TIP3    H2 1050   4.357   1.448   0.999
  372TIP3   OH2 1051   4.252   2.453   0.888
  372TIP3    H1 1052   4.210   2.500   0.814
  372TIP3    H2 1053   4.347   2.471   0.868
  373TIP3   OH2 1054   3.331   0.749   1.479
  373TIP3    H1 1055   3.322   0.700   1.394
  373TIP3    H2 1056   3.333   0.671   1.540
  374TIP3   OH2 1057   2.890   1.981   0.786
  374TIP3    H1 1058   2.809   1.928   0.801
  374TIP3    H2 1059   2.925   1.935   0.706
  375TIP3   OH2 1060   3.043   2.492   1.876
  375TIP3    H1 1061   3.122   2.515   1.931
  375TIP3    H2 1062   3.060   2.396   1.866
  376TIP3   OH2 1063   3.498   2.440   1.917
  376TIP3    H1 1064   3.594   2.434   1.930
  376TIP3    H2 1065   3.486   2.381   1.841
  377TIP3   OH2 1066   3.490   2.023   0.106
  377TIP3    H1 1067   3.432   1.945   0.103
  377TIP3    H2 1068   3.528   2.017   0.016
  378TIP3   OH2 1069   4.143   2.352   1.649
  378TIP3    H1 1070   4.136   2.281   1.718
  378TIP3    H2 1071   4.222   2.401   1.678
  379TIP3   OH2 1072   3.936   2.071  -0.036
  379TIP3    H1 1073   3.945   1.992   0.023
  379TIP3    H2 1074   4.023   2.072  -0.077
  380TIP3   OH2 1075   3.153   1.870   2.070
  380TIP3    H1 1076   3.202   1.785   2.075
  380TIP3    H2 1077   3.064   1.835   2.060
  381TIP3   OH2 1078   3.758   1.972   1.846
  381TIP3    H1 1079   3.726   1.993   1.756
  381TIP3    H2 1080   3.795   1.882   1.834
  382TIP3   OH2 1081   3.746   1.700   0.097
  382TIP3    H1 1082   3.710   1.731   0.183
  382TIP3    H2 1083   3.666   1.669   0.052
  383TIP3   OH2 1084   4.252   1.987   1.450
  383TIP3    H1 1085   4.331   2.027   1.407
  383TIP3    H2 1086   4.186   2.058   1.434
  384TIP3   OH2 1087   3.278   1.624   2.053
  384TIP3    H1 1088   3.351   1.568   2.023
  384TIP3    H2 1089   3.309   1.649   2.143
  385TIP3   OH2 1090   3.601   1.497   1.704
  385TIP3    H1 1091   3.530   1.565   1.711
  385TIP3    H2 1092   3.657   1.534   1.633
  386TIP3   OH2 1093   4.124   1.905   1.844
  386TIP3    H1 1094   4.210   1.884   1.805
  386TIP3    H2 1095   4.122   1.844   1.920
  387TIP3   OH2 1096   4.269   1.580  -0.034
  387TIP3    H1 1097   4.276   1.538  -0.121
  387TIP3    H2 1098   4.258   1.674  -0.055
  388TIP3   OH2 1099   3.730   1.296   1.841
  388TIP3    H1 1100   3.736   1.216   1.785
  388TIP3    H2 1101   3.688   1.360   1.780
  389TIP3   OH2 1102   3.739   1.081   1.652
  389TIP3    H1 1103   3.769   1.124   1.570
  389TIP3    H2 1104   3.645   1.062   1.633
  390TIP3   OH2 1105   3.756   1.614   1.520
  390TIP3    H1 1106   3.845   1.626   1.482
  390TIP3    H2 1107   3.705   1.684   1.474
  391TIP3   OH2 1108   4.339   1.585   1.899
  391TIP3    H1 1109   4.389   1.504   1.917
  391TIP3    H2 1110   4.408   1.645   1.867
  392TIP3   OH2 1111   4.383   1.834   1.630
  392TIP3    H1 1112   4.325   1.891   1.574
  392TIP3    H2 1113   4.471   1.856   1.592
  393TIP3   OH2 1114   3.607   1.404   2.070
  393TIP3    H1 1115   3.542   1.333   2.087
  393TIP3    H2 1116   3.645   1.375   1.984
  394TIP3   OH2 1117   3.869   0.842   1.719
  394TIP3    H1 1118   3.820   0.925   1.697
  394TIP3    H2 1119   3.800   0.774   1.707
  395TIP3   OH2 1120   3.995   1.346   1.932
  395TIP3    H1 1121   3.987   1.333   2.028
  395TIP3    H2 1122   3.904   1.322   1.904
  396TIP3   OH2 1123   4.235   1.297   1.788
  396TIP3    H1 1124   4.159   1.297   1.849
  396TIP3    H2 1125   4.307   1.261   1.843
  397TIP3   OH2 1126   4.460   1.226   1.943
  397TIP3    H1 1127   4.478   1.137   1.975
  397TIP3    H2 1128   4.455   1.278   2.026
  398TIP3   OH2 1129   3.450   1.182   2.127
  398TIP3    H1 1130   3.455   1.090   2.094
  398TIP3    H2 1131   3.489   1.171   2.216
  399TIP3   OH2 1132   3.964   0.855   1.977
  399TIP3    H1 1133   4.039   0.795   1.970
  399TIP3    H2 1134   3.925   0.848   1.887
  400TIP3   OH2 1135   4.024   1.071   2.136
  400TIP3    H1 1136   4.004   1.000   2.071
  400TIP3    H2 1137   3.946   1.129   2.128
  401TIP3   OH2 1138   3.239   2.285   0.226
  401TIP3    H1 1139   3.334   2.298   0.205
  401TIP3    H2 1140   3.196   2.342   0.162
  402TIP3   OH2 1141   2.631   2.281   0.859
  402TIP3    H1 1142   2.598   2.210   0.802
  402TIP3    H2 1143   2.682   2.232   0.926
  403TIP3   OH2 1144   2.762   2.154   1.058
  403TIP3    H1 1145   2.773   2.071   1.108
  403TIP3    H2 1146   2.826   2.212   1.104
  404TIP3   OH2 1147   4.510   2.535   0.851
  404TIP3    H1 1148   4.531   2.569   0.939
  404TIP3    H2 1149   4.568   2.588   0.794
  405TIP3   OH2 1150   4.535   2.561   1.131
  405TIP3    H1 1151   4.491   2.474   1.129
  405TIP3    H2 1152   4.607   2.540   1.193
  406TIP3   OH2 1153   4.580   2.239   1.703
  406TIP3    H1 1154   4.509   2.248   1.769
  406TIP3    H2 1155   4.625   2.326   1.710
  407TIP3   OH2 1156   4.400   1.747   0.322
  407TIP3    H1 1157   4.466   1.815   0.298
  407TIP3    H2 1158   4.440   1.711   0.405
  408TIP3   OH2 1159   4.521   1.619   0.537
  408TIP3    H1 1160   4.455   1.576   0.595
  408TIP3    H2 1161   4.583   1.659   0.602
  409TIP3   OH2 1162   4.585   2.014   0.961
  409TIP3    H1 1163   4.635   1.948   0.909
  409TIP3    H2 1164   4.577   2.088   0.897
  410TIP3   OH2 1165   4.409   2.312   1.153
  410TIP3    H1 1166   4.339   2.355   1.205
  410TIP3    H2 1167   4.358   2.266   1.083
  411TIP3   OH2 1168   4.453   1.529   0.163
  411TIP3    H1 1169   4.384   1.542   0.095
  411TIP3    H2 1170   4.430   1.603   0.225
  412TIP3   OH2 1171   4.334   1.163   0.096
  412TIP3    H1 1172   4.299   1.252   0.084
  412TIP3    H2 1173   4.250   1.122   0.131
  413TIP3   OH2 1174   2.966   1.563   1.431
  413TIP3    H1 1175   2.966   1.530   1.339
  413TIP3    H2 1176   3.063   1.562   1.449
  414TIP3   OH2 1177   4.627   1.901   1.528
  414TIP3    H1 1178   4.700   1.835   1.518
  414TIP3    H2 1179   4.657   1.973   1.470
  415TIP3   OH2 1180   4.812   1.703   1.533
  415TIP3    H1 1181   4.739   1.656   1.577
  415TIP3    H2 1182   4.886   1.641   1.552
  416TIP3   OH2 1183   4.501   1.362   1.072
  416TIP3    H1 1184   4.584   1.384   1.025
  416TIP3    H2 1185   4.516   1.408   1.157
  417TIP3   OH2 1186   4.570   1.514   1.296
  417TIP3    H1 1187   4.491   1.545   1.345
  417TIP3    H2 1188   4.600   1.596   1.252
  418TIP3   OH2 1189   3.184   1.247   2.108
  418TIP3    H1 1190   3.282   1.239   2.109
  418TIP3    H2 1191   3.161   1.158   2.143
  419TIP3   OH2 1192   5.012   1.106   1.850
  419TIP3    H1 1193   5.083   1.046   1.818
  419TIP3    H2 1194   4.991   1.158   1.770
  420TIP3   OH2 1195   4.467   0.923   0.592
  420TIP3    H1 1196   4.459   0.963   0.680
  420TIP3    H2 1197   4.395   0.856   0.597
  421TIP3   OH2 1198   3.157   0.949   1.452
  421TIP3    H1 1199   3.221   0.884   1.489
  421TIP3    H2 1200   3.211   1.030   1.452
  422TIP3   OH2 1201   2.964   1.218   1.496
  422TIP3    H1 1202   3.008   1.223   1.408
  422TIP3    H2 1203   2.990   1.301   1.536
  423TIP3   OH2 1204   4.889   1.243   1.648
  423TIP3    H1 1205   4.805   1.283   1.679
  423TIP3    H2 1206   4.854   1.170   1.592
  424TIP3   OH2 1207   4.094   2.407   0.508
  424TIP3    H1 1208   4.144   2.397   0.425
  424TIP3    H2 1209   4.143   2.478   0.553
  425TIP3   OH2 1210   3.164   0.773   1.832
  425TIP3    H1 1211   3.118   0.773   1.917
  425TIP3    H2 1212   3.102   0.827   1.778
  426TIP3   OH2 1213   3.172   2.224   1.883
  426TIP3    H1 1214   3.158   2.131   1.853
  426TIP3    H2 1215   3.202   2.211   1.976
  427TIP3   OH2 1216   3.369   2.250   1.437
  427TIP3    H1 1217   3.325   2.328   1.397
  427TIP3    H2 1218   3.455   2.259   1.392
  428TIP3   OH2 1219   3.808   2.491   1.574
  428TIP3    H1 1220   3.851   2.489   1.662
  428TIP3    H2 1221   3.875   2.542   1.523
  429TIP3   OH2 1222   3.990   2.644   1.437
  429TIP3    H1 1223   4.062   2.594   1.394
  429TIP3    H2 1224   4.042   2.701   1.498
  430TIP3   OH2 1225   4.790   1.009   1.524
  430TIP3    H1 1226   4.695   0.994   1.507
  430TIP3    H2 1227   4.822   0.917   1.528
  431TIP3   OH2 1228   3.044   2.499   1.471
  431TIP3    H1 1229   2.952   2.526   1.447
  431TIP3    H2 1230   3.064   2.565   1.540
  432TIP3   OH2 1231   3.278   2.480   1.321
  432TIP3    H1 1232   3.191   2.494   1.363
  432TIP3    H2 1233   3.261   2.514   1.230
  433TIP3   OH2 1234   3.704   2.506   1.121
  433TIP3    H1 1235   3.638   2.527   1.052
  433TIP3    H2 1236   3.718   2.595   1.161
  434TIP3   OH2 1237   3.975   2.446   1.171
  434TIP3    H1 1238   3.881   2.465   1.152
  434TIP3    H2 1239   4.019   2.521   1.126
  435TIP3   OH2 1240   4.179   2.638   1.082
  435TIP3    H1 1241   4.166   2.723   1.036
  435TIP3    H2 1242   4.206   2.579   1.008
  436TIP3   OH2 1243   2.953   2.294   1.204
  436TIP3    H1 1244   2.979   2.272   1.296
  436TIP3    H2 1245   3.028   2.254   1.155
  437TIP3   OH2 1246   3.152   2.169   1.070
  437TIP3    H1 1247   3.170   2.085   1.117
  437TIP3    H2 1248   3.243   2.207   1.064
  438TIP3   OH2 1249   3.417   2.262   1.071
  438TIP3    H1 1250   3.452   2.172   1.055
  438TIP3    H2 1251   3.467   2.285   1.152
  439TIP3   OH2 1252   4.018   0.900   1.156
  439TIP3    H1 1253   3.957   0.847   1.210
  439TIP3    H2 1254   3.991   0.876   1.065
  440TIP3   OH2 1255   4.593   0.897   0.859
  440TIP3    H1 1256   4.676   0.857   0.824
  440TIP3    H2 1257   4.616   0.992   0.849
  441TIP3   OH2 1258   3.689   0.686   1.073
  441TIP3    H1 1259   3.704   0.775   1.041
  441TIP3    H2 1260   3.726   0.694   1.164
  442TIP3   OH2 1261   4.262   0.752   0.639
  442TIP3    H1 1262   4.185   0.807   0.612
  442TIP3    H2 1263   4.221   0.697   0.708
  443TIP3   OH2 1264   3.508   2.289   0.175
  443TIP3    H1 1265   3.600   2.304   0.142
  443TIP3    H2 1266   3.499   2.196   0.147
  444TIP3   OH2 1267   4.239   2.374   0.273
  444TIP3    H1 1268   4.232   2.277   0.260
  444TIP3    H2 1269   4.191   2.407   0.194
  445TIP3   OH2 1270   3.449   0.906   2.059
  445TIP3    H1 1271   3.414   0.836   2.118
  445TIP3    H2 1272   3.543   0.907   2.087
  446TIP3   OH2 1273   3.697   0.904   2.179
  446TIP3    H1 1274   3.783   0.883   2.139
  446TIP3    H2 1275   3.688   0.832   2.244
  447TIP3   OH2 1276   4.462   2.520   1.454
  447TIP3    H1 1277   4.381   2.489   1.408
  447TIP3    H2 1278   4.441   2.615   1.465
  448TIP3   OH2 1279   5.677   1.910   0.259
  448TIP3    H1 1280   5.667   1.993   0.209
  448TIP3    H2 1281   5.627   1.847   0.206
  449TIP3   OH2 1282   5.728   1.900   0.612
  449TIP3    H1 1283   5.756   1.866   0.699
  449TIP3    H2 1284   5.689   1.821   0.572
  450TIP3   OH2 1285   5.041   1.793   0.964
  450TIP3    H1 1286   5.058   1.715   1.021
  450TIP3    H2 1287   5.087   1.862   1.016
  451TIP3   OH2 1288   5.976   2.201   0.290
  451TIP3    H1 1289   5.950   2.136   0.358
  451TIP3    H2 1290   6.003   2.277   0.344
  452TIP3   OH2 1291   4.999   2.199   0.692
  452TIP3    H1 1292   4.987   2.103   0.702
  452TIP3    H2 1293   5.096   2.206   0.688
  453TIP3   OH2 1294   4.713   1.422   0.490
  453TIP3    H1 1295   4.650   1.496   0.499
  453TIP3    H2 1296   4.650   1.350   0.475
  454TIP3   OH2 1297   4.759   1.690   0.661
  454TIP3    H1 1298   4.809   1.611   0.693
  454TIP3    H2 1299   4.805   1.711   0.579
  455TIP3   OH2 1300   5.624   2.655   0.305
  455TIP3    H1 1301   5.669   2.582   0.256
  455TIP3    H2 1302   5.614   2.616   0.393
  456TIP3   OH2 1303   5.526   2.113   0.653
  456TIP3    H1 1304   5.574   2.041   0.609
  456TIP3    H2 1305   5.604   2.165   0.682
  457TIP3   OH2 1306   5.939   1.626   0.688
  457TIP3    H1 1307   5.969   1.538   0.719
  457TIP3    H2 1308   5.886   1.597   0.611
  458TIP3   OH2 1309   5.226   1.311   0.643
  458TIP3    H1 1310   5.142   1.323   0.593
  458TIP3    H2 1311   5.248   1.217   0.621
  459TIP3   OH2 1312   4.908   1.482   0.757
  459TIP3    H1 1313   4.986   1.462   0.813
  459TIP3    H2 1314   4.920   1.417   0.686
  460TIP3   OH2 1315   6.578   1.621   0.839
  460TIP3    H1 1316   6.514   1.693   0.821
  460TIP3    H2 1317   6.651   1.668   0.884
  461TIP3   OH2 1318   5.271   1.263   1.092
  461TIP3    H1 1319   5.211   1.305   1.028
  461TIP3    H2 1320   5.220   1.277   1.175
  462TIP3   OH2 1321   5.626   2.124   0.085
  462TIP3    H1 1322   5.579   2.101   0.003
  462TIP3    H2 1323   5.574   2.203   0.115
  463TIP3   OH2 1324   5.373   2.036   0.880
  463TIP3    H1 1325   5.313   2.105   0.918
  463TIP3    H2 1326   5.417   2.086   0.808
  464TIP3   OH2 1327   5.137   1.390   0.887
  464TIP3    H1 1328   5.199   1.464   0.911
  464TIP3    H2 1329   5.179   1.362   0.802
  465TIP3   OH2 1330   5.208   2.234   0.977
  465TIP3    H1 1331   5.184   2.323   0.942
  465TIP3    H2 1332   5.129   2.218   1.034
  466TIP3   OH2 1333   4.608   1.918   0.218
  466TIP3    H1 1334   4.563   1.937   0.134
  466TIP3    H2 1335   4.630   2.009   0.249
  467TIP3   OH2 1336   6.041   2.441   0.453
  467TIP3    H1 1337   5.952   2.433   0.493
  467TIP3    H2 1338   6.032   2.527   0.407
  468TIP3   OH2 1339   5.746   2.479   0.128
  468TIP3    H1 1340   5.795   2.397   0.104
  468TIP3    H2 1341   5.803   2.545   0.083
  469TIP3   OH2 1342   5.872   2.245   0.037
  469TIP3    H1 1343   5.794   2.188   0.053
  469TIP3    H2 1344   5.925   2.225   0.118
  470TIP3   OH2 1345   6.295   2.345   0.803
  470TIP3    H1 1346   6.268   2.273   0.742
  470TIP3    H2 1347   6.266   2.424   0.751
  471TIP3   OH2 1348   6.469   2.012   0.663
  471TIP3    H1 1349   6.379   2.051   0.654
  471TIP3    H2 1350   6.495   2.008   0.568
  472TIP3   OH2 1351   6.129   1.873   0.947
  472TIP3    H1 1352   6.120   1.951   1.005
  472TIP3    H2 1353   6.041   1.873   0.903
  473TIP3   OH2 1354   5.269   2.230   0.591
  473TIP3    H1 1355   5.255   2.210   0.497
  473TIP3    H2 1356   5.359   2.194   0.608
  474TIP3   OH2 1357   5.298   1.798   0.769
  474TIP3    H1 1358   5.379   1.796   0.716
  474TIP3    H2 1359   5.310   1.881   0.819
  475TIP3   OH2 1360   5.802   2.433   0.576
  475TIP3    H1 1361   5.786   2.515   0.627
  475TIP3    H2 1362   5.784   2.362   0.641
  476TIP3   OH2 1363   5.413   2.349   1.124
  476TIP3    H1 1364   5.353   2.412   1.171
  476TIP3    H2 1365   5.347   2.298   1.073
  477TIP3   OH2 1366   5.161   1.909   1.213
  477TIP3    H1 1367   5.172   1.995   1.260
  477TIP3    H2 1368   5.071   1.885   1.245
  478TIP3   OH2 1369   5.493   2.359   0.136
  478TIP3    H1 1370   5.575   2.413   0.141
  478TIP3    H2 1371   5.434   2.416   0.086
  479TIP3   OH2 1372   5.207   2.515   1.212
  479TIP3    H1 1373   5.170   2.519   1.122
  479TIP3    H2 1374   5.127   2.494   1.267
  480TIP3   OH2 1375   5.019   1.635   0.256
  480TIP3    H1 1376   4.966   1.708   0.217
  480TIP3    H2 1377   4.946   1.573   0.272
  481TIP3   OH2 1378   4.786   2.049   1.157
  481TIP3    H1 1379   4.715   2.030   1.092
  481TIP3    H2 1380   4.819   1.960   1.180
  482TIP3   OH2 1381   4.639   2.244   0.790
  482TIP3    H1 1382   4.736   2.249   0.786
  482TIP3    H2 1383   4.618   2.324   0.842
  483TIP3   OH2 1384   6.499   2.729   0.840
  483TIP3    H1 1385   6.515   2.634   0.847
  483TIP3    H2 1386   6.415   2.738   0.891
  484TIP3   OH2 1387   5.610   2.477   0.981
  484TIP3    H1 1388   5.607   2.571   1.012
  484TIP3    H2 1389   5.538   2.438   1.035
  485TIP3   OH2 1390   5.378   2.617  -0.073
  485TIP3    H1 1391   5.307   2.601  -0.137
  485TIP3    H2 1392   5.352   2.703  -0.034
  486TIP3   OH2 1393   4.811   2.456   0.315
  486TIP3    H1 1394   4.855   2.448   0.403
  486TIP3    H2 1395   4.754   2.377   0.316
  487TIP3   OH2 1396   5.604   2.490  -0.164
  487TIP3    H1 1397   5.525   2.536  -0.127
  487TIP3    H2 1398   5.674   2.522  -0.104
  488TIP3   OH2 1399   6.406   1.834   1.127
  488TIP3    H1 1400   6.324   1.835   1.075
  488TIP3    H2 1401   6.424   1.737   1.129
  489TIP3   OH2 1402   4.991   2.231   1.140
  489TIP3    H1 1403   5.038   2.219   1.226
  489TIP3    H2 1404   4.915   2.170   1.151
  490TIP3   OH2 1405   5.374   1.065   0.930
  490TIP3    H1 1406   5.286   1.030   0.906
  490TIP3    H2 1407   5.348   1.141   0.986
  491TIP3   OH2 1408   5.919   1.155   1.111
  491TIP3    H1 1409   5.985   1.139   1.183
  491TIP3    H2 1410   5.834   1.144   1.159
  492TIP3   OH2 1411   6.162   1.603   1.041
  492TIP3    H1 1412   6.115   1.598   1.127
  492TIP3    H2 1413   6.135   1.690   1.007
  493TIP3   OH2 1414   5.324   1.583   0.945
  493TIP3    H1 1415   5.276   1.606   1.027
  493TIP3    H2 1416   5.306   1.661   0.888
  494TIP3   OH2 1417   5.870   1.818   1.273
  494TIP3    H1 1418   5.846   1.747   1.337
  494TIP3    H2 1419   5.963   1.833   1.298
  495TIP3   OH2 1420   5.818   1.550   0.458
  495TIP3    H1 1421   5.831   1.602   0.375
  495TIP3    H2 1422   5.832   1.459   0.425
  496TIP3   OH2 1423   5.141   1.600   1.155
  496TIP3    H1 1424   5.160   1.663   1.226
  496TIP3    H2 1425   5.127   1.517   1.206
  497TIP3   OH2 1426   4.718   1.122   0.771
  497TIP3    H1 1427   4.803   1.151   0.810
  497TIP3    H2 1428   4.744   1.095   0.681
  498TIP3   OH2 1429   4.768   1.195   0.307
  498TIP3    H1 1430   4.807   1.266   0.254
  498TIP3    H2 1431   4.674   1.224   0.308
  499TIP3   OH2 1432   5.858   1.821   0.855
  499TIP3    H1 1433   5.893   1.752   0.794
  499TIP3    H2 1434   5.827   1.764   0.929
  500TIP3   OH2 1435   5.514   1.292   0.615
  500TIP3    H1 1436   5.423   1.320   0.637
  500TIP3    H2 1437   5.563   1.324   0.692
  501TIP3   OH2 1438   4.971   1.335   0.519
  501TIP3    H1 1439   4.878   1.365   0.504
  501TIP3    H2 1440   4.970   1.252   0.469
  502TIP3   OH2 1441   5.941   1.351   0.725
  502TIP3    H1 1442   5.938   1.376   0.820
  502TIP3    H2 1443   5.964   1.258   0.732
  503TIP3   OH2 1444   6.198   3.043   0.946
  503TIP3    H1 1445   6.192   3.068   0.851
  503TIP3    H2 1446   6.273   3.098   0.975
  504TIP3   OH2 1447   5.155   2.152   1.363
  504TIP3    H1 1448   5.232   2.185   1.413
  504TIP3    H2 1449   5.088   2.151   1.434
  505TIP3   OH2 1450   5.615   1.627   0.636
  505TIP3    H1 1451   5.676   1.583   0.574
  505TIP3    H2 1452   5.621   1.572   0.716
  506TIP3   OH2 1453   5.590   1.505   0.905
  506TIP3    H1 1454   5.502   1.545   0.921
  506TIP3    H2 1455   5.649   1.564   0.956
  507TIP3   OH2 1456   5.298   1.924  -0.006
  507TIP3    H1 1457   5.268   1.832  -0.011
  507TIP3    H2 1458   5.301   1.938   0.091
  508TIP3   OH2 1459   6.226   2.134   0.636
  508TIP3    H1 1460   6.246   2.188   0.556
  508TIP3    H2 1461   6.136   2.100   0.615
  509TIP3   OH2 1462   5.728   2.213   1.006
  509TIP3    H1 1463   5.752   2.198   1.098
  509TIP3    H2 1464   5.688   2.302   1.008
  510TIP3   OH2 1465   5.020   1.917   0.701
  510TIP3    H1 1466   5.093   1.883   0.649
  510TIP3    H2 1467   5.034   1.869   0.785
  511TIP3   OH2 1468   5.489   2.058  -0.157
  511TIP3    H1 1469   5.433   2.138  -0.169
  511TIP3    H2 1470   5.421   1.999  -0.116
  512TIP3   OH2 1471   4.907   1.832   1.292
  512TIP3    H1 1472   4.921   1.821   1.388
  512TIP3    H2 1473   4.832   1.771   1.278
  513TIP3   OH2 1474   5.628   1.956   1.313
  513TIP3    H1 1475   5.566   1.891   1.276
  513TIP3    H2 1476   5.714   1.918   1.284
  514TIP3   OH2 1477   5.888   2.468   0.903
  514TIP3    H1 1478   5.791   2.471   0.913
  514TIP3    H2 1479   5.915   2.523   0.979
  515TIP3   OH2 1480   6.559   2.377   0.890
  515TIP3    H1 1481   6.463   2.402   0.913
  515TIP3    H2 1482   6.551   2.379   0.791
  516TIP3   OH2 1483   5.981   2.017   0.565
  516TIP3    H1 1484   5.887   1.990   0.573
  516TIP3    H2 1485   6.019   1.934   0.528
  517TIP3   OH2 1486   5.125   2.222   0.306
  517TIP3    H1 1487   5.126   2.303   0.252
  517TIP3    H2 1488   5.030   2.210   0.319
  518TIP3   OH2 1489   4.715   1.515   0.058
  518TIP3    H1 1490   4.736   1.608   0.042
  518TIP3    H2 1491   4.621   1.519   0.085
  519TIP3   OH2 1492   5.254   1.975   0.262
  519TIP3    H1 1493   5.246   2.071   0.250
  519TIP3    H2 1494   5.204   1.966   0.343
  520TIP3   OH2 1495   5.394   2.565   0.773
  520TIP3    H1 1496   5.434   2.639   0.723
  520TIP3    H2 1497   5.470   2.532   0.823
  521TIP3   OH2 1498   5.042   2.459   0.160
  521TIP3    H1 1499   4.955   2.467   0.204
  521TIP3    H2 1500   5.073   2.552   0.165
  522TIP3   OH2 1501   5.775   2.203   0.736
  522TIP3    H1 1502   5.767   2.199   0.834
  522TIP3    H2 1503   5.855   2.151   0.721
  523TIP3   OH2 1504   6.029   2.730   0.781
  523TIP3    H1 1505   5.946   2.679   0.774
  523TIP3    H2 1506   6.015   2.797   0.710
  524TIP3   OH2 1507   5.111   1.342   1.302
  524TIP3    H1 1508   5.015   1.348   1.317
  524TIP3    H2 1509   5.140   1.291   1.380
  525TIP3   OH2 1510   4.833   2.427   0.932
  525TIP3    H1 1511   4.885   2.358   0.976
  525TIP3    H2 1512   4.850   2.503   0.989
  526TIP3   OH2 1513   5.175   1.995  -0.327
  526TIP3    H1 1514   5.115   1.996  -0.404
  526TIP3    H2 1515   5.115   2.020  -0.254
  527TIP3   OH2 1516   5.056   2.083  -0.087
  527TIP3    H1 1517   5.144   2.051  -0.059
  527TIP3    H2 1518   5.068   2.181  -0.084
  528TIP3   OH2 1519   4.832   1.786   0.113
  528TIP3    H1 1520   4.754   1.824   0.160
  528TIP3    H2 1521   4.834   1.846   0.035
  529TIP3   OH2 1522   5.952   1.406   0.991
  529TIP3    H1 1523   6.032   1.446   1.031
  529TIP3    H2 1524   5.941   1.324   1.043
  530TIP3   OH2 1525   5.329   2.277  -0.177
  530TIP3    H1 1526   5.244   2.306  -0.138
  530TIP3    H2 1527   5.337   2.337  -0.253
  531TIP3   OH2 1528   5.789   1.651   1.059
  531TIP3    H1 1529   5.810   1.708   1.136
  531TIP3    H2 1530   5.843   1.573   1.075
  532TIP3   OH2 1531   5.083   2.356  -0.092
  532TIP3    H1 1532   5.054   2.425  -0.156
  532TIP3    H2 1533   5.059   2.398  -0.006
  533TIP3   OH2 1534   6.432   1.562   1.063
  533TIP3    H1 1535   6.335   1.554   1.049
  533TIP3    H2 1536   6.466   1.555   0.971
  534TIP3   OH2 1537   6.072   1.772   0.476
  534TIP3    H1 1538   5.996   1.717   0.502
  534TIP3    H2 1539   6.141   1.727   0.530
  535TIP3   OH2 1540   4.795   1.989  -0.088
  535TIP3    H1 1541   4.873   2.047  -0.075
  535TIP3    H2 1542   4.835   1.927  -0.153
  536TIP3   OH2 1543   6.044   2.713   0.369
  536TIP3    H1 1544   6.006   2.756   0.289
  536TIP3    H2 1545   6.140   2.731   0.354
  537TIP3   OH2 1546   5.119   0.967   0.905
  537TIP3    H1 1547   5.088   0.925   0.824
  537TIP3    H2 1548   5.104   0.895   0.971
  538TIP3   OH2 1549   4.659   2.191   0.282
  538TIP3    H1 1550   4.597   2.223   0.349
  538TIP3    H2 1551   4.624   2.237   0.201
  539TIP3   OH2 1552   4.824   2.743   1.355
  539TIP3    H1 1553   4.908   2.745   1.405
  539TIP3    H2 1554   4.802   2.649   1.358
  540TIP3   OH2 1555   5.300   2.699   1.401
  540TIP3    H1 1556   5.394   2.680   1.408
  540TIP3    H2 1557   5.273   2.637   1.330
  541TIP3   OH2 1558   5.943   2.606   1.132
  541TIP3    H1 1559   5.935   2.538   1.203
  541TIP3    H2 1560   6.016   2.662   1.166
  542TIP3   OH2 1561   4.953   2.144   1.552
  542TIP3    H1 1562   4.964   2.048   1.567
  542TIP3    H2 1563   4.863   2.147   1.512
  543TIP3   OH2 1564   4.930   1.801  -0.224
  543TIP3    H1 1565   4.938   1.703  -0.240
  543TIP3    H2 1566   4.955   1.831  -0.315
  544TIP3   OH2 1567   5.562   2.233   1.329
  544TIP3    H1 1568   5.515   2.252   1.245
  544TIP3    H2 1569   5.589   2.139   1.318
  545TIP3   OH2 1570   6.055   2.243   0.936
  545TIP3    H1 1571   6.126   2.293   0.892
  545TIP3    H2 1572   5.981   2.306   0.925
  546TIP3   OH2 1573   5.074   1.877   1.539
  546TIP3    H1 1574   5.148   1.816   1.526
  546TIP3    H2 1575   5.097   1.914   1.627
  547TIP3   OH2 1576   5.157   1.658   0.002
  547TIP3    H1 1577   5.080   1.683   0.056
  547TIP3    H2 1578   5.114   1.655  -0.087
  548TIP3   OH2 1579   5.408   1.766   1.200
  548TIP3    H1 1580   5.329   1.824   1.199
  548TIP3    H2 1581   5.457   1.798   1.121
  549TIP3   OH2 1582   5.923   2.164   1.333
  549TIP3    H1 1583   6.000   2.129   1.286
  549TIP3    H2 1584   5.914   2.101   1.407
  550TIP3   OH2 1585   5.531   1.553   1.324
  550TIP3    H1 1586   5.529   1.474   1.268
  550TIP3    H2 1587   5.485   1.620   1.268
  551TIP3   OH2 1588   5.531   1.339   1.134
  551TIP3    H1 1589   5.556   1.379   1.049
  551TIP3    H2 1590   5.438   1.314   1.118
  552TIP3   OH2 1591   5.555   1.868   0.998
  552TIP3    H1 1592   5.642   1.889   0.962
  552TIP3    H2 1593   5.499   1.937   0.958
  553TIP3   OH2 1594   6.137   1.837   1.384
  553TIP3    H1 1595   6.184   1.754   1.403
  553TIP3    H2 1596   6.209   1.893   1.351
  554TIP3   OH2 1597   6.174   2.096   1.127
  554TIP3    H1 1598   6.118   2.151   1.067
  554TIP3    H2 1599   6.262   2.113   1.088
  555TIP3   OH2 1600   5.409   1.658   1.557
  555TIP3    H1 1601   5.339   1.592   1.575
  555TIP3    H2 1602   5.442   1.628   1.470
  556TIP3   OH2 1603   5.664   1.102   1.204
  556TIP3    H1 1604   5.614   1.184   1.184
  556TIP3    H2 1605   5.593   1.035   1.192
  557TIP3   OH2 1606   5.790   1.603   1.418
  557TIP3    H1 1607   5.775   1.589   1.514
  557TIP3    H2 1608   5.700   1.580   1.386
  558TIP3   OH2 1609   6.028   1.550   1.270
  558TIP3    H1 1610   5.953   1.554   1.334
  558TIP3    H2 1611   6.102   1.522   1.328
  559TIP3   OH2 1612   6.256   1.496   1.422
  559TIP3    H1 1613   6.265   1.400   1.439
  559TIP3    H2 1614   6.253   1.534   1.512
  560TIP3   OH2 1615   5.246   1.439   1.606
  560TIP3    H1 1616   5.251   1.346   1.578
  560TIP3    H2 1617   5.286   1.432   1.696
  561TIP3   OH2 1618   5.759   1.113   1.462
  561TIP3    H1 1619   5.818   1.036   1.455
  561TIP3    H2 1620   5.716   1.110   1.374
  562TIP3   OH2 1621   5.824   1.327   1.619
  562TIP3    H1 1622   5.801   1.255   1.556
  562TIP3    H2 1623   5.745   1.384   1.615
  563TIP3   OH2 1624   5.058   2.538  -0.296
  563TIP3    H1 1625   5.141   2.533  -0.349
  563TIP3    H2 1626   5.010   2.607  -0.342
  564TIP3   OH2 1627   4.528   1.934  -0.051
  564TIP3    H1 1628   4.618   1.971  -0.068
  564TIP3    H2 1629   4.523   1.865  -0.118
  565TIP3   OH2 1630   4.441   2.546   0.351
  565TIP3    H1 1631   4.373   2.486   0.312
  565TIP3    H2 1632   4.485   2.486   0.415
  566TIP3   OH2 1633   4.578   2.392   0.535
  566TIP3    H1 1634   4.561   2.324   0.603
  566TIP3    H2 1635   4.627   2.457   0.588
  567TIP3   OH2 1636   6.304   2.786   0.340
  567TIP3    H1 1637   6.329   2.838   0.419
  567TIP3    H2 1638   6.372   2.814   0.276
  568TIP3   OH2 1639   6.327   2.822   0.625
  568TIP3    H1 1640   6.288   2.733   0.614
  568TIP3    H2 1641   6.406   2.801   0.678
  569TIP3   OH2 1642   6.381   2.495   1.189
  569TIP3    H1 1643   6.307   2.502   1.253
  569TIP3    H2 1644   6.418   2.585   1.193
  570TIP3   OH2 1645   6.378   2.274   0.451
  570TIP3    H1 1646   6.424   2.209   0.396
  570TIP3    H2 1647   6.375   2.353   0.391
  571TIP3   OH2 1648   6.207   2.560   0.648
  571TIP3    H1 1649   6.137   2.611   0.693
  571TIP3    H2 1650   6.157   2.519   0.574
  572TIP3   OH2 1651   4.766   1.802   0.911
  572TIP3    H1 1652   4.758   1.772   0.818
  572TIP3    H2 1653   4.863   1.806   0.921
  573TIP3   OH2 1654   6.419   2.155   1.019
  573TIP3    H1 1655   6.485   2.086   1.002
  573TIP3    H2 1656   6.409   2.201   0.932
  574TIP3   OH2 1657   6.618   1.967   1.026
  574TIP3    H1 1658   6.541   1.923   1.068
  574TIP3    H2 1659   6.685   1.896   1.045
  575TIP3   OH2 1660   6.271   1.634   0.623
  575TIP3    H1 1661   6.364   1.621   0.588
  575TIP3    H2 1662   6.292   1.688   0.702
  576TIP3   OH2 1663   6.369   1.806   0.819
  576TIP3    H1 1664   6.283   1.839   0.854
  576TIP3    H2 1665   6.400   1.883   0.765
  577TIP3   OH2 1666   4.980   1.493   1.576
  577TIP3    H1 1667   5.078   1.488   1.584
  577TIP3    H2 1668   4.956   1.407   1.617
  578TIP3   OH2 1669   6.821   1.357   1.335
  578TIP3    H1 1670   6.878   1.298   1.281
  578TIP3    H2 1671   6.783   1.415   1.266
  579TIP3   OH2 1672   4.950   1.184   0.905
  579TIP3    H1 1673   5.011   1.110   0.920
  579TIP3    H2 1674   5.008   1.261   0.916
  580TIP3   OH2 1675   4.747   1.454   0.988
  580TIP3    H1 1676   4.788   1.454   0.900
  580TIP3    H2 1677   4.766   1.543   1.020
  581TIP3   OH2 1678   6.685   1.510   1.153
  581TIP3    H1 1679   6.590   1.535   1.150
  581TIP3    H2 1680   6.682   1.427   1.103
  582TIP3   OH2 1681   4.711   1.001   0.516
  582TIP3    H1 1682   4.621   0.973   0.546
  582TIP3    H2 1683   4.686   1.060   0.443
  583TIP3   OH2 1684   5.880   2.662  -0.023
  583TIP3    H1 1685   5.918   2.672  -0.113
  583TIP3    H2 1686   5.933   2.727   0.028
  584TIP3   OH2 1687   4.946   1.031   1.291
  584TIP3    H1 1688   4.900   1.035   1.377
  584TIP3    H2 1689   4.882   1.080   1.235
  585TIP3   OH2 1690   4.988   2.466   1.378
  585TIP3    H1 1691   4.893   2.447   1.363
  585TIP3    H2 1692   4.996   2.451   1.473
  586TIP3   OH2 1693   5.168   2.503   0.923
  586TIP3    H1 1694   5.117   2.578   0.886
  586TIP3    H2 1695   5.253   2.520   0.877
  587TIP3   OH2 1696   5.606   2.743   1.059
  587TIP3    H1 1697   5.647   2.744   1.149
  587TIP3    H2 1698   5.671   2.797   1.009
  588TIP3   OH2 1699   5.785   2.900   0.924
  588TIP3    H1 1700   5.857   2.853   0.879
  588TIP3    H2 1701   5.837   2.958   0.984
  589TIP3   OH2 1702   4.842   2.758   0.951
  589TIP3    H1 1703   4.751   2.788   0.928
  589TIP3    H2 1704   4.855   2.807   1.033
  590TIP3   OH2 1705   5.076   2.737   0.807
  590TIP3    H1 1706   4.990   2.749   0.852
  590TIP3    H2 1707   5.056   2.771   0.718
  591TIP3   OH2 1708   5.503   2.764   0.605
  591TIP3    H1 1709   5.432   2.783   0.541
  591TIP3    H2 1710   5.515   2.851   0.648
  592TIP3   OH2 1711   5.773   2.702   0.657
  592TIP3    H1 1712   5.679   2.722   0.639
  592TIP3    H2 1713   5.817   2.776   0.612
  593TIP3   OH2 1714   5.975   2.892   0.569
  593TIP3    H1 1715   5.960   2.979   0.526
  593TIP3    H2 1716   6.001   2.837   0.492
  594TIP3   OH2 1717   4.752   2.553   0.691
  594TIP3    H1 1718   4.778   2.525   0.781
  594TIP3    H2 1719   4.825   2.511   0.640
  595TIP3   OH2 1720   4.948   2.426   0.550
  595TIP3    H1 1721   4.961   2.343   0.602
  595TIP3    H2 1722   5.038   2.464   0.550
  596TIP3   OH2 1723   5.214   2.520   0.557
  596TIP3    H1 1724   5.246   2.429   0.548
  596TIP3    H2 1725   5.259   2.545   0.640
  597TIP3   OH2 1726   4.541   2.326   0.082
  597TIP3    H1 1727   4.455   2.293   0.051
  597TIP3    H2 1728   4.530   2.420   0.057
  598TIP3   OH2 1729   5.245   1.161   1.542
  598TIP3    H1 1730   5.208   1.093   1.602
  598TIP3    H2 1731   5.338   1.162   1.574
  599TIP3   OH2 1732   5.490   1.158   1.668
  599TIP3    H1 1733   5.578   1.128   1.639
  599TIP3    H2 1734   5.472   1.093   1.740
  600TIP3   OH2 1735   4.665   2.366  -0.239
  600TIP3    H1 1736   4.601   2.407  -0.180
  600TIP3    H2 1737   4.679   2.279  -0.196
  601TIP3   OH2 1738   6.302   1.224   1.458
  601TIP3    H1 1739   6.325   1.197   1.550
  601TIP3    H2 1740   6.390   1.225   1.416
  602TIP3   OH2 1741   6.249   2.772   0.952
  602TIP3    H1 1742   6.173   2.744   0.897
  602TIP3    H2 1743   6.234   2.869   0.953
  603TIP3   OH2 1744   6.840   2.063   0.459
  603TIP3    H1 1745   6.892   2.052   0.542
  603TIP3    H2 1746   6.887   2.140   0.421
  604TIP3   OH2 1747   6.783   2.423   0.221
  604TIP3    H1 1748   6.754   2.380   0.136
  604TIP3    H2 1749   6.874   2.448   0.199
  605TIP3   OH2 1750   7.065   2.305   0.314
  605TIP3    H1 1751   7.044   2.377   0.377
  605TIP3    H2 1752   7.160   2.288   0.338
  606TIP3   OH2 1753   6.980   2.507   0.490
  606TIP3    H1 1754   6.989   2.597   0.451
  606TIP3    H2 1755   6.884   2.499   0.488
  607TIP3   OH2 1756   7.209   2.616   0.623
  607TIP3    H1 1757   7.144   2.678   0.661
  607TIP3    H2 1758   7.150   2.554   0.577
  608TIP3   OH2 1759   6.944   2.182   0.697
  608TIP3    H1 1760   6.983   2.236   0.767
  608TIP3    H2 1761   6.860   2.150   0.736
  609TIP3   OH2 1762   7.000   2.788   0.689
  609TIP3    H1 1763   6.984   2.794   0.592
  609TIP3    H2 1764   6.910   2.775   0.722
  610TIP3   OH2 1765   6.583   2.306   0.628
  610TIP3    H1 1766   6.507   2.305   0.565
  610TIP3    H2 1767   6.600   2.210   0.634
  611TIP3   OH2 1768   6.432   2.496   0.294
  611TIP3    H1 1769   6.523   2.509   0.263
  611TIP3    H2 1770   6.413   2.584   0.332
  612TIP3   OH2 1771   7.406   2.732   0.464
  612TIP3    H1 1772   7.400   2.824   0.495
  612TIP3    H2 1773   7.341   2.688   0.524
  613TIP3   OH2 1774   6.787   2.466   0.715
  613TIP3    H1 1775   6.869   2.437   0.667
  613TIP3    H2 1776   6.716   2.420   0.664
  614TIP3   OH2 1777   6.956   1.881   0.729
  614TIP3    H1 1778   6.903   1.886   0.808
  614TIP3    H2 1779   6.933   1.793   0.694
  615TIP3   OH2 1780   7.484   2.454   0.575
  615TIP3    H1 1781   7.559   2.477   0.631
  615TIP3    H2 1782   7.497   2.511   0.497
  616TIP3   OH2 1783   6.686   2.100   0.808
  616TIP3    H1 1784   6.678   2.038   0.884
  616TIP3    H2 1785   6.625   2.054   0.746
  617TIP3   OH2 1786   7.419   2.206   0.799
  617TIP3    H1 1787   7.338   2.158   0.767
  617TIP3    H2 1788   7.478   2.185   0.724
  618TIP3   OH2 1789   7.186   2.829   0.302
  618TIP3    H1 1790   7.186   2.827   0.204
  618TIP3    H2 1791   7.276   2.798   0.323
  619TIP3   OH2 1792   6.617   2.692   0.433
  619TIP3    H1 1793   6.690   2.629   0.440
  619TIP3    H2 1794   6.653   2.772   0.475
  620TIP3   OH2 1795   6.616   2.992   0.845
  620TIP3    H1 1796   6.700   2.989   0.896
  620TIP3    H2 1797   6.588   2.898   0.845
  621TIP3   OH2 1798   7.098   2.947   0.896
  621TIP3    H1 1799   7.194   2.938   0.894
  621TIP3    H2 1800   7.072   2.895   0.817
  622TIP3   OH2 1801   7.356   2.483   0.825
  622TIP3    H1 1802   7.334   2.505   0.732
  622TIP3    H2 1803   7.387   2.391   0.813
  623TIP3   OH2 1804   6.861   2.200   1.009
  623TIP3    H1 1805   6.925   2.131   0.988
  623TIP3    H2 1806   6.886   2.217   1.103
  624TIP3   OH2 1807   7.216   2.062   0.689
  624TIP3    H1 1808   7.119   2.070   0.690
  624TIP3    H2 1809   7.227   1.995   0.620
  625TIP3   OH2 1810   7.168   1.947   1.053
  625TIP3    H1 1811   7.112   1.875   1.089
  625TIP3    H2 1812   7.195   1.908   0.967
  626TIP3   OH2 1813   7.034   1.717   1.121
  626TIP3    H1 1814   7.066   1.660   1.047
  626TIP3    H2 1815   7.077   1.676   1.199
  627TIP3   OH2 1816   6.392   2.622   0.022
  627TIP3    H1 1817   6.355   2.580   0.100
  627TIP3    H2 1818   6.422   2.708   0.057
  628TIP3   OH2 1819   6.568   2.058   0.413
  628TIP3    H1 1820   6.570   2.005   0.331
  628TIP3    H2 1821   6.664   2.073   0.425
  629TIP3   OH2 1822   6.773   1.754   1.063
  629TIP3    H1 1823   6.869   1.743   1.082
  629TIP3    H2 1824   6.739   1.671   1.103
  630TIP3   OH2 1825   6.954   2.769   0.418
  630TIP3    H1 1826   6.904   2.836   0.367
  630TIP3    H2 1827   7.043   2.788   0.379
  631TIP3   OH2 1828   7.405   3.006   0.545
  631TIP3    H1 1829   7.456   3.015   0.628
  631TIP3    H2 1830   7.463   3.049   0.478
  632TIP3   OH2 1831   7.572   3.135   0.340
  632TIP3    H1 1832   7.604   3.118   0.249
  632TIP3    H2 1833   7.587   3.231   0.346
  633TIP3   OH2 1834   6.635   3.004   0.459
  633TIP3    H1 1835   6.547   3.032   0.423
  633TIP3    H2 1836   6.642   3.068   0.531
  634TIP3   OH2 1837   6.850   2.993   0.291
  634TIP3    H1 1838   6.773   3.001   0.352
  634TIP3    H2 1839   6.822   3.056   0.222
  635TIP3   OH2 1840   6.537   2.799   0.194
  635TIP3    H1 1841   6.571   2.772   0.282
  635TIP3    H2 1842   6.618   2.785   0.141
  636TIP3   OH2 1843   6.774   2.702   0.077
  636TIP3    H1 1844   6.749   2.610   0.061
  636TIP3    H2 1845   6.832   2.719   0.001
  637TIP3   OH2 1846   0.881   2.674   2.052
  637TIP3    H1 1847   0.809   2.712   1.999
  637TIP3    H2 1848   0.900   2.748   2.113
  638TIP3   OH2 1849   0.354   3.487   1.649
  638TIP3    H1 1850   0.292   3.414   1.669
  638TIP3    H2 1851   0.327   3.515   1.559
  639TIP3   OH2 1852   0.530   3.399   1.985
  639TIP3    H1 1853   0.518   3.322   1.925
  639TIP3    H2 1854   0.509   3.474   1.927
  640TIP3   OH2 1855   0.730   3.021   1.835
  640TIP3    H1 1856   0.649   3.077   1.838
  640TIP3    H2 1857   0.759   3.037   1.743
  641TIP3   OH2 1858   0.748   3.750   2.018
  641TIP3    H1 1859   0.756   3.653   2.031
  641TIP3    H2 1860   0.664   3.766   2.066
  642TIP3   OH2 1861  -0.130   3.529   2.189
  642TIP3    H1 1862  -0.137   3.626   2.203
  642TIP3    H2 1863  -0.224   3.505   2.186
  643TIP3   OH2 1864   0.646   2.880   2.303
  643TIP3    H1 1865   0.553   2.913   2.307
  643TIP3    H2 1866   0.633   2.783   2.294
  644TIP3   OH2 1867   0.439   4.092   2.115
  644TIP3    H1 1868   0.429   4.101   2.018
  644TIP3    H2 1869   0.499   4.165   2.134
  645TIP3   OH2 1870   0.507   3.172   1.832
  645TIP3    H1 1871   0.498   3.188   1.735
  645TIP3    H2 1872   0.432   3.111   1.847
  646TIP3   OH2 1873   0.020   3.294   2.192
  646TIP3    H1 1874   0.041   3.278   2.286
  646TIP3    H2 1875  -0.033   3.377   2.199
  647TIP3   OH2 1876   0.118   3.575   2.063
  647TIP3    H1 1877   0.030   3.552   2.098
  647TIP3    H2 1878   0.164   3.598   2.147
  648TIP3   OH2 1879   0.776   3.480   2.067
  648TIP3    H1 1880   0.681   3.456   2.070
  648TIP3    H2 1881   0.803   3.432   1.985
  649TIP3   OH2 1882   0.273   3.784   1.970
  649TIP3    H1 1883   0.203   3.715   1.973
  649TIP3    H2 1884   0.244   3.840   1.895
  650TIP3   OH2 1885   0.656   2.595   2.230
  650TIP3    H1 1886   0.567   2.559   2.216
  650TIP3    H2 1887   0.687   2.610   2.139
  651TIP3   OH2 1888   0.289   3.799   1.573
  651TIP3    H1 1889   0.247   3.796   1.486
  651TIP3    H2 1890   0.384   3.802   1.548
  652TIP3   OH2 1891  -0.452   3.741   2.590
  652TIP3    H1 1892  -0.360   3.726   2.615
  652TIP3    H2 1893  -0.449   3.724   2.495
  653TIP3   OH2 1894   0.189   3.654   2.318
  653TIP3    H1 1895   0.181   3.580   2.384
  653TIP3    H2 1896   0.269   3.701   2.349
  654TIP3   OH2 1897  -0.184   3.289   2.523
  654TIP3    H1 1898  -0.212   3.268   2.431
  654TIP3    H2 1899  -0.107   3.231   2.533
  655TIP3   OH2 1900   0.263   3.271   2.012
  655TIP3    H1 1901   0.346   3.306   2.050
  655TIP3    H2 1902   0.207   3.264   2.092
  656TIP3   OH2 1903   0.144   3.201   2.506
  656TIP3    H1 1904   0.204   3.153   2.444
  656TIP3    H2 1905   0.168   3.153   2.588
  657TIP3   OH2 1906   0.429   2.881   2.627
  657TIP3    H1 1907   0.458   2.798   2.585
  657TIP3    H2 1908   0.415   2.936   2.547
  658TIP3   OH2 1909   0.550   2.544   2.606
  658TIP3    H1 1910   0.533   2.448   2.616
  658TIP3    H2 1911   0.526   2.580   2.694
  659TIP3   OH2 1912   0.553   3.846   1.519
  659TIP3    H1 1913   0.586   3.879   1.604
  659TIP3    H2 1914   0.611   3.891   1.455
  660TIP3   OH2 1915   0.599   3.874   1.799
  660TIP3    H1 1916   0.541   3.794   1.794
  660TIP3    H2 1917   0.666   3.836   1.860
  661TIP3   OH2 1918   0.625   3.542   2.368
  661TIP3    H1 1919   0.554   3.548   2.435
  661TIP3    H2 1920   0.667   3.630   2.376
  662TIP3   OH2 1921   0.722   3.363   1.602
  662TIP3    H1 1922   0.728   3.267   1.583
  662TIP3    H2 1923   0.656   3.394   1.538
  663TIP3   OH2 1924   0.471   3.635   1.839
  663TIP3    H1 1925   0.392   3.670   1.885
  663TIP3    H2 1926   0.430   3.586   1.763
  664TIP3   OH2 1927   0.686   3.214   2.201
  664TIP3    H1 1928   0.741   3.136   2.180
  664TIP3    H2 1929   0.672   3.256   2.116
  665TIP3   OH2 1930   0.860   3.003   2.193
  665TIP3    H1 1931   0.782   2.961   2.236
  665TIP3    H2 1932   0.931   2.945   2.227
  666TIP3   OH2 1933   0.640   2.793   1.960
  666TIP3    H1 1934   0.546   2.806   1.981
  666TIP3    H2 1935   0.663   2.882   1.924
  667TIP3   OH2 1936   1.065   2.410   2.514
  667TIP3    H1 1937   1.126   2.349   2.467
  667TIP3    H2 1938   1.026   2.460   2.439
  668TIP3   OH2 1939   0.927   2.543   2.323
  668TIP3    H1 1940   0.847   2.584   2.363
  668TIP3    H2 1941   0.894   2.528   2.232
  669TIP3   OH2 1942  -0.143   3.799   2.241
  669TIP3    H1 1943  -0.099   3.795   2.329
  669TIP3    H2 1944  -0.076   3.847   2.188
  670TIP3   OH2 1945   0.040   3.939   2.097
  670TIP3    H1 1946   0.113   3.887   2.058
  670TIP3    H2 1947   0.091   3.999   2.156
  671TIP3   OH2 1948   0.020   3.766   1.815
  671TIP3    H1 1949  -0.072   3.773   1.840
  671TIP3    H2 1950   0.046   3.858   1.796
  672TIP3   OH2 1951   0.226   3.972   1.767
  672TIP3    H1 1952   0.207   4.052   1.715
  672TIP3    H2 1953   0.245   3.907   1.695
  673TIP3   OH2 1954   0.575   2.262   2.638
  673TIP3    H1 1955   0.600   2.240   2.730
  673TIP3    H2 1956   0.661   2.255   2.592
  674TIP3   OH2 1957   0.504   3.822   2.127
  674TIP3    H1 1958   0.426   3.789   2.077
  674TIP3    H2 1959   0.482   3.918   2.130
  675TIP3   OH2 1960   1.769   3.201   0.889
  675TIP3    H1 1961   1.750   3.291   0.855
  675TIP3    H2 1962   1.683   3.180   0.928
  676TIP3   OH2 1963   1.777   3.193   1.271
  676TIP3    H1 1964   1.809   3.170   1.361
  676TIP3    H2 1965   1.733   3.111   1.244
  677TIP3   OH2 1966   1.077   3.089   1.634
  677TIP3    H1 1967   1.102   3.018   1.696
  677TIP3    H2 1968   1.160   3.139   1.628
  678TIP3   OH2 1969   2.017   3.497   0.955
  678TIP3    H1 1970   2.004   3.428   1.021
  678TIP3    H2 1971   2.049   3.572   1.008
  679TIP3   OH2 1972   1.048   3.494   1.355
  679TIP3    H1 1973   1.040   3.397   1.362
  679TIP3    H2 1974   1.144   3.503   1.338
  680TIP3   OH2 1975   1.668   3.959   0.972
  680TIP3    H1 1976   1.710   3.889   0.917
  680TIP3    H2 1977   1.662   3.914   1.057
  681TIP3   OH2 1978   1.567   3.422   1.323
  681TIP3    H1 1979   1.602   3.350   1.267
  681TIP3    H2 1980   1.653   3.464   1.347
  682TIP3   OH2 1981   2.588   2.736   1.319
  682TIP3    H1 1982   2.615   2.821   1.359
  682TIP3    H2 1983   2.611   2.751   1.225
  683TIP3   OH2 1984   1.981   2.916   1.352
  683TIP3    H1 1985   2.028   2.831   1.365
  683TIP3    H2 1986   1.951   2.906   1.260
  684TIP3   OH2 1987   2.011   2.676   0.958
  684TIP3    H1 1988   2.095   2.660   1.007
  684TIP3    H2 1989   2.046   2.695   0.870
  685TIP3   OH2 1990   1.405   2.968   1.235
  685TIP3    H1 1991   1.500   2.951   1.250
  685TIP3    H2 1992   1.394   2.932   1.145
  686TIP3   OH2 1993   2.658   2.945   1.493
  686TIP3    H1 1994   2.576   2.995   1.473
  686TIP3    H2 1995   2.689   2.991   1.573
  687TIP3   OH2 1996   1.324   2.556   1.764
  687TIP3    H1 1997   1.262   2.598   1.701
  687TIP3    H2 1998   1.271   2.569   1.846
  688TIP3   OH2 1999   1.650   3.416   0.770
  688TIP3    H1 2000   1.609   3.409   0.684
  688TIP3    H2 2001   1.616   3.503   0.798
  689TIP3   OH2 2002   1.426   3.341   1.543
  689TIP3    H1 2003   1.366   3.410   1.577
  689TIP3    H2 2004   1.471   3.388   1.469
  690TIP3   OH2 2005   2.229   2.670   1.122
  690TIP3    H1 2006   2.211   2.634   1.210
  690TIP3    H2 2007   2.279   2.751   1.142
  691TIP3   OH2 2008   1.165   2.685   1.591
  691TIP3    H1 2009   1.220   2.764   1.582
  691TIP3    H2 2010   1.163   2.651   1.499
  692TIP3   OH2 2011   1.255   3.536   1.642
  692TIP3    H1 2012   1.228   3.621   1.602
  692TIP3    H2 2013   1.176   3.521   1.699
  693TIP3   OH2 2014   2.084   3.741   1.119
  693TIP3    H1 2015   1.993   3.732   1.156
  693TIP3    H2 2016   2.077   3.826   1.072
  694TIP3   OH2 2017   2.379   2.632   1.481
  694TIP3    H1 2018   2.293   2.663   1.448
  694TIP3    H2 2019   2.441   2.667   1.413
  695TIP3   OH2 2020   1.782   3.786   0.790
  695TIP3    H1 2021   1.832   3.703   0.770
  695TIP3    H2 2022   1.845   3.851   0.751
  696TIP3   OH2 2023   1.924   3.570   0.703
  696TIP3    H1 2024   1.929   3.492   0.645
  696TIP3    H2 2025   1.961   3.534   0.787
  697TIP3   OH2 2026   2.310   3.650   1.463
  697TIP3    H1 2027   2.300   3.573   1.402
  697TIP3    H2 2028   2.293   3.725   1.402
  698TIP3   OH2 2029   2.505   3.287   1.308
  698TIP3    H1 2030   2.422   3.340   1.311
  698TIP3    H2 2031   2.538   3.311   1.219
  699TIP3   OH2 2032   1.947   3.129   0.691
  699TIP3    H1 2033   1.892   3.151   0.769
  699TIP3    H2 2034   2.031   3.104   0.734
  700TIP3   OH2 2035   2.185   3.162   1.610
  700TIP3    H1 2036   2.184   3.247   1.658
  700TIP3    H2 2037   2.100   3.168   1.562
  701TIP3   OH2 2038   1.308   3.527   1.256
  701TIP3    H1 2039   1.297   3.505   1.162
  701TIP3    H2 2040   1.398   3.492   1.274
  702TIP3   OH2 2041   1.314   3.101   1.461
  702TIP3    H1 2042   1.348   3.069   1.374
  702TIP3    H2 2043   1.363   3.185   1.475
  703TIP3   OH2 2044   1.842   3.735   1.240
  703TIP3    H1 2045   1.831   3.814   1.295
  703TIP3    H2 2046   1.828   3.661   1.303
  704TIP3   OH2 2047   1.458   3.653   1.788
  704TIP3    H1 2048   1.397   3.715   1.833
  704TIP3    H2 2049   1.394   3.600   1.736
  705TIP3   OH2 2050   1.215   3.205   1.894
  705TIP3    H1 2051   1.217   3.294   1.934
  705TIP3    H2 2052   1.121   3.182   1.907
  706TIP3   OH2 2053   1.533   3.669   0.784
  706TIP3    H1 2054   1.618   3.716   0.797
  706TIP3    H2 2055   1.474   3.741   0.759
  707TIP3   OH2 2056   1.248   3.822   1.874
  707TIP3    H1 2057   1.220   3.819   1.780
  707TIP3    H2 2058   1.167   3.797   1.922
  708TIP3   OH2 2059   2.095   3.600   0.107
  708TIP3    H1 2060   2.115   3.695   0.093
  708TIP3    H2 2061   2.186   3.562   0.104
  709TIP3   OH2 2062   0.852   3.356   1.841
  709TIP3    H1 2063   0.801   3.352   1.756
  709TIP3    H2 2064   0.881   3.263   1.852
  710TIP3   OH2 2065   0.709   3.585   1.413
  710TIP3    H1 2066   0.794   3.550   1.443
  710TIP3    H2 2067   0.684   3.643   1.488
  711TIP3   OH2 2068   2.547   3.998   1.511
  711TIP3    H1 2069   2.546   3.901   1.525
  711TIP3    H2 2070   2.463   4.023   1.557
  712TIP3   OH2 2071   1.655   3.782   1.645
  712TIP3    H1 2072   1.650   3.875   1.677
  712TIP3    H2 2073   1.584   3.741   1.698
  713TIP3   OH2 2074   1.420   3.902   0.607
  713TIP3    H1 2075   1.381   3.886   0.518
  713TIP3    H2 2076   1.389   3.992   0.627
  714TIP3   OH2 2077   0.851   3.768   0.974
  714TIP3    H1 2078   0.889   3.742   1.060
  714TIP3    H2 2079   0.804   3.685   0.947
  715TIP3   OH2 2080   1.612   3.803   0.242
  715TIP3    H1 2081   1.672   3.745   0.190
  715TIP3    H2 2082   1.660   3.812   0.326
  716TIP3   OH2 2083   1.673   3.864   0.512
  716TIP3    H1 2084   1.584   3.869   0.551
  716TIP3    H2 2085   1.723   3.821   0.584
  717TIP3   OH2 2086   2.435   3.124   1.789
  717TIP3    H1 2087   2.357   3.137   1.733
  717TIP3    H2 2088   2.452   3.028   1.778
  718TIP3   OH2 2089   1.041   3.549   1.814
  718TIP3    H1 2090   1.095   3.525   1.892
  718TIP3    H2 2091   0.968   3.483   1.822
  719TIP3   OH2 2092   1.883   2.422   1.809
  719TIP3    H1 2093   1.971   2.388   1.836
  719TIP3    H2 2094   1.877   2.499   1.869
  720TIP3   OH2 2095   2.195   2.895   1.700
  720TIP3    H1 2096   2.153   2.898   1.789
  720TIP3    H2 2097   2.182   2.987   1.668
  721TIP3   OH2 2098   1.369   2.879   1.609
  721TIP3    H1 2099   1.319   2.897   1.691
  721TIP3    H2 2100   1.350   2.961   1.557
  722TIP3   OH2 2101   1.768   2.880   0.846
  722TIP3    H1 2102   1.681   2.909   0.816
  722TIP3    H2 2103   1.821   2.889   0.766
  723TIP3   OH2 2104   1.915   3.119   1.937
  723TIP3    H1 2105   1.894   3.048   2.001
  723TIP3    H2 2106   2.008   3.137   1.960
  724TIP3   OH2 2107   1.894   2.878   1.095
  724TIP3    H1 2108   1.845   2.908   1.015
  724TIP3    H2 2109   1.933   2.796   1.056
  725TIP3   OH2 2110   1.193   2.907   1.818
  725TIP3    H1 2111   1.196   2.967   1.894
  725TIP3    H2 2112   1.166   2.822   1.859
  726TIP3   OH2 2113   1.905   3.117   1.514
  726TIP3    H1 2114   1.939   3.046   1.455
  726TIP3    H2 2115   1.875   3.063   1.590
  727TIP3   OH2 2116   2.075   2.657   1.393
  727TIP3    H1 2117   2.035   2.672   1.481
  727TIP3    H2 2118   2.015   2.587   1.359
  728TIP3   OH2 2119   2.242   4.347   1.610
  728TIP3    H1 2120   2.241   4.371   1.515
  728TIP3    H2 2121   2.323   4.393   1.640
  729TIP3   OH2 2122   1.197   3.461   2.028
  729TIP3    H1 2123   1.277   3.486   2.079
  729TIP3    H2 2124   1.133   3.449   2.102
  730TIP3   OH2 2125   1.671   2.912   1.281
  730TIP3    H1 2126   1.743   2.881   1.223
  730TIP3    H2 2127   1.687   2.862   1.363
  731TIP3   OH2 2128   1.633   2.794   1.607
  731TIP3    H1 2129   1.546   2.840   1.599
  731TIP3    H2 2130   1.692   2.867   1.634
  732TIP3   OH2 2131   2.272   3.433   1.296
  732TIP3    H1 2132   2.298   3.483   1.215
  732TIP3    H2 2133   2.187   3.392   1.268
  733TIP3   OH2 2134   1.768   3.513   1.668
  733TIP3    H1 2135   1.804   3.501   1.757
  733TIP3    H2 2136   1.734   3.604   1.670
  734TIP3   OH2 2137   1.053   3.213   1.341
  734TIP3    H1 2138   1.106   3.182   1.267
  734TIP3    H2 2139   1.093   3.165   1.415
  735TIP3   OH2 2140   0.957   3.122   1.956
  735TIP3    H1 2141   0.954   3.109   2.054
  735TIP3    H2 2142   0.881   3.067   1.930
  736TIP3   OH2 2143   1.673   3.255   1.980
  736TIP3    H1 2144   1.610   3.197   1.935
  736TIP3    H2 2145   1.759   3.220   1.947
  737TIP3   OH2 2146   1.931   3.773   1.567
  737TIP3    H1 2147   1.834   3.775   1.578
  737TIP3    H2 2148   1.959   3.828   1.643
  738TIP3   OH2 2149   2.345   2.846   0.464
  738TIP3    H1 2150   2.296   2.780   0.413
  738TIP3    H2 2151   2.324   2.930   0.417
  739TIP3   OH2 2152   2.560   3.707   1.552
  739TIP3    H1 2153   2.462   3.700   1.542
  739TIP3    H2 2154   2.588   3.678   1.462
  740TIP3   OH2 2155   2.046   3.665   0.378
  740TIP3    H1 2156   2.013   3.594   0.434
  740TIP3    H2 2157   2.051   3.622   0.290
  741TIP3   OH2 2158   2.038   3.297   1.214
  741TIP3    H1 2159   1.945   3.271   1.226
  741TIP3    H2 2160   2.073   3.217   1.169
  742TIP3   OH2 2161   1.197   3.539   0.980
  742TIP3    H1 2162   1.174   3.626   0.940
  742TIP3    H2 2163   1.109   3.498   0.991
  743TIP3   OH2 2164   1.366   3.312   0.981
  743TIP3    H1 2165   1.326   3.399   0.962
  743TIP3    H2 2166   1.287   3.254   0.980
  744TIP3   OH2 2167   1.438   3.865   1.438
  744TIP3    H1 2168   1.478   3.938   1.386
  744TIP3    H2 2169   1.516   3.829   1.483
  745TIP3   OH2 2170   1.104   3.768   0.861
  745TIP3    H1 2171   1.009   3.780   0.882
  745TIP3    H2 2172   1.128   3.859   0.833
  746TIP3   OH2 2173   1.822   3.502   1.399
  746TIP3    H1 2174   1.813   3.499   1.496
  746TIP3    H2 2175   1.902   3.450   1.384
  747TIP3   OH2 2176   1.813   3.427   0.292
  747TIP3    H1 2177   1.866   3.397   0.369
  747TIP3    H2 2178   1.743   3.360   0.289
  748TIP3   OH2 2179   2.071   4.035   1.448
  748TIP3    H1 2180   1.990   3.980   1.439
  748TIP3    H2 2181   2.058   4.099   1.375
  749TIP3   OH2 2182   2.139   3.875   0.092
  749TIP3    H1 2183   2.192   3.951   0.061
  749TIP3    H2 2184   2.061   3.923   0.129
  750TIP3   OH2 2185   1.153   2.636   1.972
  750TIP3    H1 2186   1.056   2.643   1.982
  750TIP3    H2 2187   1.178   2.591   2.054
  751TIP3   OH2 2188   1.965   3.354   0.521
  751TIP3    H1 2189   1.945   3.272   0.570
  751TIP3    H2 2190   2.057   3.334   0.493
  752TIP3   OH2 2191   0.883   3.734   1.608
  752TIP3    H1 2192   0.923   3.649   1.631
  752TIP3    H2 2193   0.923   3.790   1.675
  753TIP3   OH2 2194   1.998   2.707   1.652
  753TIP3    H1 2195   2.076   2.763   1.672
  753TIP3    H2 2196   2.006   2.635   1.714
  754TIP3   OH2 2197   1.372   3.561   0.478
  754TIP3    H1 2198   1.350   3.584   0.570
  754TIP3    H2 2199   1.389   3.650   0.440
  755TIP3   OH2 2200   1.834   2.957   1.723
  755TIP3    H1 2201   1.857   3.015   1.799
  755TIP3    H2 2202   1.892   2.881   1.738
  756TIP3   OH2 2203   2.466   2.861   1.710
  756TIP3    H1 2204   2.369   2.851   1.706
  756TIP3    H2 2205   2.491   2.836   1.620
  757TIP3   OH2 2206   2.124   3.054   1.095
  757TIP3    H1 2207   2.048   2.992   1.102
  757TIP3    H2 2208   2.195   3.004   1.140
  758TIP3   OH2 2209   2.093   4.012   1.040
  758TIP3    H1 2210   2.051   4.059   0.965
  758TIP3    H2 2211   2.188   4.031   1.020
  759TIP3   OH2 2212   0.890   4.033   2.021
  759TIP3    H1 2213   0.961   3.971   2.050
  759TIP3    H2 2214   0.815   3.972   2.023
  760TIP3   OH2 2215   1.320   4.016   2.062
  760TIP3    H1 2216   1.414   4.003   2.080
  760TIP3    H2 2217   1.305   3.946   1.994
  761TIP3   OH2 2218   1.981   3.912   1.801
  761TIP3    H1 2219   1.976   3.840   1.869
  761TIP3    H2 2220   2.061   3.961   1.829
  762TIP3   OH2 2221   1.771   3.616   0.103
  762TIP3    H1 2222   1.791   3.555   0.178
  762TIP3    H2 2223   1.859   3.623   0.062
  763TIP3   OH2 2224   1.000   3.449   2.224
  763TIP3    H1 2225   1.012   3.352   2.229
  763TIP3    H2 2226   0.912   3.454   2.182
  764TIP3   OH2 2227   1.601   3.531   1.995
  764TIP3    H1 2228   1.562   3.551   1.908
  764TIP3    H2 2229   1.633   3.439   1.983
  765TIP3   OH2 2230   2.095   3.544   1.603
  765TIP3    H1 2231   2.172   3.584   1.557
  765TIP3    H2 2232   2.027   3.613   1.586
  766TIP3   OH2 2233   1.119   3.192   2.206
  766TIP3    H1 2234   1.186   3.128   2.181
  766TIP3    H2 2235   1.148   3.218   2.296
  767TIP3   OH2 2236   1.459   3.069   1.869
  767TIP3    H1 2237   1.375   3.120   1.868
  767TIP3    H2 2238   1.503   3.101   1.787
  768TIP3   OH2 2239   1.966   3.465   1.997
  768TIP3    H1 2240   2.045   3.439   1.948
  768TIP3    H2 2241   1.964   3.400   2.069
  769TIP3   OH2 2242   1.578   2.856   1.987
  769TIP3    H1 2243   1.565   2.778   1.932
  769TIP3    H2 2244   1.534   2.926   1.934
  770TIP3   OH2 2245   1.594   2.579   1.770
  770TIP3    H1 2246   1.614   2.656   1.713
  770TIP3    H2 2247   1.495   2.586   1.776
  771TIP3   OH2 2248   1.602   3.173   1.667
  771TIP3    H1 2249   1.687   3.191   1.625
  771TIP3    H2 2250   1.544   3.240   1.624
  772TIP3   OH2 2251   2.184   3.139   2.048
  772TIP3    H1 2252   2.238   3.059   2.059
  772TIP3    H2 2253   2.249   3.201   2.011
  773TIP3   OH2 2254   2.224   3.394   1.786
  773TIP3    H1 2255   2.167   3.450   1.728
  773TIP3    H2 2256   2.312   3.415   1.748
  774TIP3   OH2 2257   1.457   2.959   2.225
  774TIP3    H1 2258   1.386   2.892   2.239
  774TIP3    H2 2259   1.485   2.939   2.134
  775TIP3   OH2 2260   1.836   2.902   2.083
  775TIP3    H1 2261   1.819   2.892   2.178
  775TIP3    H2 2262   1.746   2.883   2.048
  776TIP3   OH2 2263   2.068   2.845   1.934
  776TIP3    H1 2264   1.995   2.856   1.999
  776TIP3    H2 2265   2.144   2.823   1.992
  777TIP3   OH2 2266   2.293   2.797   2.088
  777TIP3    H1 2267   2.311   2.702   2.103
  777TIP3    H2 2268   2.295   2.834   2.179
  778TIP3   OH2 2269   1.294   2.740   2.276
  778TIP3    H1 2270   1.293   2.647   2.246
  778TIP3    H2 2271   1.327   2.730   2.368
  779TIP3   OH2 2272   1.808   2.422   2.109
  779TIP3    H1 2273   1.880   2.354   2.109
  779TIP3    H2 2274   1.739   2.376   2.060
  780TIP3   OH2 2275   1.866   2.626   2.286
  780TIP3    H1 2276   1.847   2.561   2.215
  780TIP3    H2 2277   1.790   2.687   2.280
  781TIP3   OH2 2278   0.619   3.740   1.212
  781TIP3    H1 2279   0.646   3.672   1.278
  781TIP3    H2 2280   0.671   3.814   1.246
  782TIP3   OH2 2281   2.347   4.103   1.000
  782TIP3    H1 2282   2.377   4.134   1.087
  782TIP3    H2 2283   2.416   4.137   0.941
  783TIP3   OH2 2284   2.375   4.121   1.284
  783TIP3    H1 2285   2.332   4.033   1.279
  783TIP3    H2 2286   2.454   4.097   1.336
  784TIP3   OH2 2287   2.423   3.797   1.856
  784TIP3    H1 2288   2.351   3.807   1.922
  784TIP3    H2 2289   2.466   3.885   1.860
  785TIP3   OH2 2290   2.241   3.302   0.466
  785TIP3    H1 2291   2.306   3.370   0.439
  785TIP3    H2 2292   2.284   3.267   0.547
  786TIP3   OH2 2293   2.366   3.178   0.677
  786TIP3    H1 2294   2.300   3.136   0.736
  786TIP3    H2 2295   2.431   3.214   0.740
  787TIP3   OH2 2296   2.422   3.570   1.109
  787TIP3    H1 2297   2.476   3.503   1.061
  787TIP3    H2 2298   2.420   3.644   1.044
  788TIP3   OH2 2299   2.250   3.869   1.304
  788TIP3    H1 2300   2.178   3.912   1.354
  788TIP3    H2 2301   2.202   3.823   1.233
  789TIP3   OH2 2302   2.282   3.074   0.312
  789TIP3    H1 2303   2.218   3.095   0.240
  789TIP3    H2 2304   2.265   3.151   0.371
  790TIP3   OH2 2305   2.178   3.039   0.822
  790TIP3    H1 2306   2.174   2.942   0.808
  790TIP3    H2 2307   2.165   3.047   0.919
  791TIP3   OH2 2308   0.811   3.098   1.584
  791TIP3    H1 2309   0.808   3.072   1.491
  791TIP3    H2 2310   0.909   3.099   1.599
  792TIP3   OH2 2311   2.469   3.459   1.681
  792TIP3    H1 2312   2.540   3.393   1.670
  792TIP3    H2 2313   2.495   3.529   1.618
  793TIP3   OH2 2314   2.649   3.259   1.692
  793TIP3    H1 2315   2.576   3.209   1.734
  793TIP3    H2 2316   2.724   3.198   1.707
  794TIP3   OH2 2317   2.173   2.775   0.739
  794TIP3    H1 2318   2.215   2.692   0.773
  794TIP3    H2 2319   2.226   2.789   0.660
  795TIP3   OH2 2320   2.337   2.920   1.214
  795TIP3    H1 2321   2.422   2.946   1.171
  795TIP3    H2 2322   2.353   2.960   1.302
  796TIP3   OH2 2323   2.409   3.069   1.446
  796TIP3    H1 2324   2.331   3.104   1.491
  796TIP3    H2 2325   2.442   3.148   1.398
  797TIP3   OH2 2326   1.028   2.802   2.263
  797TIP3    H1 2327   1.126   2.790   2.260
  797TIP3    H2 2328   1.001   2.716   2.302
  798TIP3   OH2 2329   2.856   2.657   2.000
  798TIP3    H1 2330   2.918   2.595   1.956
  798TIP3    H2 2331   2.825   2.712   1.924
  799TIP3   OH2 2332   2.281   2.542   0.806
  799TIP3    H1 2333   2.332   2.495   0.875
  799TIP3    H2 2334   2.261   2.474   0.739
  800TIP3   OH2 2335   2.725   2.798   1.807
  800TIP3    H1 2336   2.640   2.841   1.829
  800TIP3    H2 2337   2.692   2.724   1.752
  801TIP3   OH2 2338   1.933   3.968   0.658
  801TIP3    H1 2339   1.982   3.954   0.574
  801TIP3    H2 2340   1.988   4.033   0.703
  802TIP3   OH2 2341   1.026   3.791   2.051
  802TIP3    H1 2342   0.937   3.758   2.027
  802TIP3    H2 2343   1.045   3.740   2.131
  803TIP3   OH2 2344   1.213   3.810   1.591
  803TIP3    H1 2345   1.165   3.884   1.548
  803TIP3    H2 2346   1.298   3.820   1.544
  804TIP3   OH2 2347   1.647   4.052   1.726
  804TIP3    H1 2348   1.692   4.048   1.813
  804TIP3    H2 2349   1.715   4.100   1.674
  805TIP3   OH2 2350   1.830   4.201   1.587
  805TIP3    H1 2351   1.900   4.152   1.542
  805TIP3    H2 2352   1.884   4.258   1.646
  806TIP3   OH2 2353   2.625   2.568   1.690
  806TIP3    H1 2354   2.536   2.563   1.649
  806TIP3    H2 2355   2.657   2.475   1.679
  807TIP3   OH2 2356   0.891   4.083   1.625
  807TIP3    H1 2357   0.808   4.117   1.585
  807TIP3    H2 2358   0.854   4.031   1.696
  808TIP3   OH2 2359   1.122   4.041   1.473
  808TIP3    H1 2360   1.037   4.062   1.517
  808TIP3    H2 2361   1.104   4.069   1.381
  809TIP3   OH2 2362   1.546   4.065   1.271
  809TIP3    H1 2363   1.479   4.082   1.202
  809TIP3    H2 2364   1.559   4.154   1.309
  810TIP3   OH2 2365   1.817   4.006   1.324
  810TIP3    H1 2366   1.723   4.023   1.302
  810TIP3    H2 2367   1.862   4.077   1.275
  811TIP3   OH2 2368   2.020   4.196   1.232
  811TIP3    H1 2369   2.007   4.281   1.185
  811TIP3    H2 2370   2.049   4.137   1.159
  812TIP3   OH2 2371   0.813   3.873   1.368
  812TIP3    H1 2372   0.834   3.832   1.454
  812TIP3    H2 2373   0.875   3.820   1.311
  813TIP3   OH2 2374   0.986   3.726   1.216
  813TIP3    H1 2375   1.004   3.642   1.264
  813TIP3    H2 2376   1.077   3.762   1.207
  814TIP3   OH2 2377   1.257   3.822   1.218
  814TIP3    H1 2378   1.288   3.733   1.195
  814TIP3    H2 2379   1.308   3.837   1.301
  815TIP3   OH2 2380   1.849   2.481   1.326
  815TIP3    H1 2381   1.764   2.435   1.331
  815TIP3    H2 2382   1.890   2.439   1.248
  816TIP3   OH2 2383   2.375   2.344   1.213
  816TIP3    H1 2384   2.412   2.402   1.142
  816TIP3    H2 2385   2.282   2.374   1.218
  817TIP3   OH2 2386   2.469   2.456   0.988
  817TIP3    H1 2387   2.537   2.402   0.941
  817TIP3    H2 2388   2.499   2.547   0.965
  818TIP3   OH2 2389   2.105   2.378   1.226
  818TIP3    H1 2390   2.070   2.385   1.136
  818TIP3    H2 2391   2.070   2.290   1.252
  819TIP3   OH2 2392   1.362   3.823   0.347
  819TIP3    H1 2393   1.448   3.825   0.297
  819TIP3    H2 2394   1.301   3.789   0.279
  820TIP3   OH2 2395   2.077   3.933   0.423
  820TIP3    H1 2396   2.071   3.835   0.411
  820TIP3    H2 2397   2.031   3.964   0.342
  821TIP3   OH2 2398   1.285   2.471   2.216
  821TIP3    H1 2399   1.250   2.397   2.270
  821TIP3    H2 2400   1.380   2.467   2.241
  822TIP3   OH2 2401   1.537   2.461   2.331
  822TIP3    H1 2402   1.629   2.438   2.308
  822TIP3    H2 2403   1.518   2.392   2.399
  823TIP3   OH2 2404   2.358   2.527   2.117
  823TIP3    H1 2405   2.382   2.498   2.208
  823TIP3    H2 2406   2.447   2.527   2.073
  824TIP3   OH2 2407   2.298   4.076   1.612
  824TIP3    H1 2408   2.221   4.047   1.559
  824TIP3    H2 2409   2.281   4.172   1.615
  825TIP3   OH2 2410   3.573   3.448   0.369
  825TIP3    H1 2411   3.545   3.541   0.355
  825TIP3    H2 2412   3.491   3.402   0.345
  826TIP3   OH2 2413   3.610   3.429   0.746
  826TIP3    H1 2414   3.614   3.428   0.844
  826TIP3    H2 2415   3.526   3.384   0.728
  827TIP3   OH2 2416   2.865   3.344   1.127
  827TIP3    H1 2417   2.898   3.277   1.189
  827TIP3    H2 2418   2.946   3.392   1.107
  828TIP3   OH2 2419   3.814   3.753   0.441
  828TIP3    H1 2420   3.796   3.684   0.506
  828TIP3    H2 2421   3.841   3.827   0.498
  829TIP3   OH2 2422   2.842   3.753   0.845
  829TIP3    H1 2423   2.835   3.656   0.846
  829TIP3    H2 2424   2.939   3.763   0.832
  830TIP3   OH2 2425   2.543   2.964   0.634
  830TIP3    H1 2426   2.493   3.046   0.648
  830TIP3    H2 2427   2.474   2.908   0.595
  831TIP3   OH2 2428   2.602   3.244   0.809
  831TIP3    H1 2429   2.652   3.166   0.840
  831TIP3    H2 2430   2.665   3.286   0.749
  832TIP3   OH2 2431   3.464   4.208   0.463
  832TIP3    H1 2432   3.509   4.137   0.413
  832TIP3    H2 2433   3.437   4.160   0.544
  833TIP3   OH2 2434   4.384   2.995   0.805
  833TIP3    H1 2435   4.411   3.079   0.848
  833TIP3    H2 2436   4.400   3.015   0.711
  834TIP3   OH2 2437   3.779   3.171   0.840
  834TIP3    H1 2438   3.822   3.085   0.853
  834TIP3    H2 2439   3.745   3.162   0.749
  835TIP3   OH2 2440   3.119   2.834   0.802
  835TIP3    H1 2441   3.100   2.907   0.740
  835TIP3    H2 2442   3.071   2.760   0.757
  836TIP3   OH2 2443   3.813   2.928   0.422
  836TIP3    H1 2444   3.885   2.913   0.489
  836TIP3    H2 2445   3.866   2.963   0.348
  837TIP3   OH2 2446   2.749   3.035   0.910
  837TIP3    H1 2447   2.834   3.017   0.955
  837TIP3    H2 2448   2.762   2.981   0.829
  838TIP3   OH2 2449   3.189   3.234   0.708
  838TIP3    H1 2450   3.283   3.208   0.719
  838TIP3    H2 2451   3.150   3.151   0.674
  839TIP3   OH2 2452   4.455   3.205   0.974
  839TIP3    H1 2453   4.370   3.251   0.955
  839TIP3    H2 2454   4.475   3.239   1.062
  840TIP3   OH2 2455   3.112   2.819   1.238
  840TIP3    H1 2456   3.056   2.856   1.167
  840TIP3    H2 2457   3.059   2.841   1.317
  841TIP3   OH2 2458   3.466   3.674   0.237
  841TIP3    H1 2459   3.416   3.657   0.156
  841TIP3    H2 2460   3.419   3.754   0.269
  842TIP3   OH2 2461   3.224   3.604   1.028
  842TIP3    H1 2462   3.155   3.661   1.067
  842TIP3    H2 2463   3.275   3.670   0.979
  843TIP3   OH2 2464   4.019   2.932   0.602
  843TIP3    H1 2465   3.998   2.893   0.688
  843TIP3    H2 2466   4.070   3.012   0.628
  844TIP3   OH2 2467   2.985   2.933   1.020
  844TIP3    H1 2468   3.046   3.008   1.042
  844TIP3    H2 2469   3.035   2.893   0.945
  845TIP3   OH2 2470   3.047   3.791   1.131
  845TIP3    H1 2471   3.028   3.877   1.089
  845TIP3    H2 2472   2.967   3.781   1.185
  846TIP3   OH2 2473   2.441   3.480   0.370
  846TIP3    H1 2474   2.402   3.504   0.283
  846TIP3    H2 2475   2.472   3.568   0.402
  847TIP3   OH2 2476   3.862   3.997   0.617
  847TIP3    H1 2477   3.774   3.987   0.657
  847TIP3    H2 2478   3.856   4.084   0.573
  848TIP3   OH2 2479   4.176   2.891   0.968
  848TIP3    H1 2480   4.088   2.920   0.937
  848TIP3    H2 2481   4.235   2.926   0.898
  849TIP3   OH2 2482   3.468   2.537   0.952
  849TIP3    H1 2483   3.452   2.442   0.968
  849TIP3    H2 2484   3.391   2.576   0.998
  850TIP3   OH2 2485   3.583   4.042   0.273
  850TIP3    H1 2486   3.633   3.959   0.255
  850TIP3    H2 2487   3.648   4.107   0.239
  851TIP3   OH2 2488   3.727   3.823   0.188
  851TIP3    H1 2489   3.669   3.748   0.168
  851TIP3    H2 2490   3.768   3.793   0.272
  852TIP3   OH2 2491   4.109   3.906   0.951
  852TIP3    H1 2492   4.093   3.829   0.892
  852TIP3    H2 2493   4.088   3.981   0.891
  853TIP3   OH2 2494   3.397   3.297   0.207
  853TIP3    H1 2495   3.318   3.352   0.186
  853TIP3    H2 2496   3.445   3.298   0.122
  854TIP3   OH2 2497   3.350   3.076  -0.062
  854TIP3    H1 2498   3.420   3.137  -0.033
  854TIP3    H2 2499   3.401   2.998  -0.086
  855TIP3   OH2 2500   4.303   3.546   0.796
  855TIP3    H1 2501   4.219   3.597   0.800
  855TIP3    H2 2502   4.333   3.571   0.705
  856TIP3   OH2 2503   3.747   3.380   0.173
  856TIP3    H1 2504   3.692   3.406   0.251
  856TIP3    H2 2505   3.831   3.357   0.218
  857TIP3   OH2 2506   3.981   3.421   1.093
  857TIP3    H1 2507   3.978   3.507   1.138
  857TIP3    H2 2508   3.893   3.422   1.049
  858TIP3   OH2 2509   2.978   3.378   0.595
  858TIP3    H1 2510   2.943   3.320   0.525
  858TIP3    H2 2511   3.056   3.327   0.627
  859TIP3   OH2 2512   3.105   3.786   0.752
  859TIP3    H1 2513   3.112   3.753   0.661
  859TIP3    H2 2514   3.195   3.824   0.762
  860TIP3   OH2 2515   3.110   3.360   0.950
  860TIP3    H1 2516   3.145   3.332   0.863
  860TIP3    H2 2517   3.158   3.444   0.966
  861TIP3   OH2 2518   3.251   3.910   1.279
  861TIP3    H1 2519   3.189   3.974   1.320
  861TIP3    H2 2520   3.190   3.856   1.226
  862TIP3   OH2 2521   3.583   3.243  -0.001
  862TIP3    H1 2522   3.644   3.300   0.052
  862TIP3    H2 2523   3.612   3.266  -0.092
  863TIP3   OH2 2524   3.011   3.460   1.385
  863TIP3    H1 2525   3.016   3.551   1.420
  863TIP3    H2 2526   2.915   3.444   1.388
  864TIP3   OH2 2527   3.332   3.914   0.273
  864TIP3    H1 2528   3.409   3.967   0.300
  864TIP3    H2 2529   3.269   3.980   0.244
  865TIP3   OH2 2530   3.045   4.079   1.361
  865TIP3    H1 2531   3.015   4.080   1.267
  865TIP3    H2 2532   2.963   4.056   1.409
  866TIP3   OH2 2533   4.110   2.484   0.053
  866TIP3    H1 2534   4.026   2.505   0.099
  866TIP3    H2 2535   4.121   2.563  -0.004
  867TIP3   OH2 2536   2.851   3.222   0.387
  867TIP3    H1 2537   2.779   3.269   0.340
  867TIP3    H2 2538   2.806   3.141   0.414
  868TIP3   OH2 2539   2.624   3.609   1.308
  868TIP3    H1 2540   2.560   3.588   1.237
  868TIP3    H2 2541   2.664   3.522   1.329
  869TIP3   OH2 2542   2.483   3.799   0.941
  869TIP3    H1 2543   2.578   3.790   0.926
  869TIP3    H2 2544   2.480   3.878   0.998
  870TIP3   OH2 2545   4.345   4.256   1.000
  870TIP3    H1 2546   4.343   4.159   1.013
  870TIP3    H2 2547   4.261   4.281   1.043
  871TIP3   OH2 2548   3.468   4.031   1.153
  871TIP3    H1 2549   3.448   4.126   1.164
  871TIP3    H2 2550   3.389   3.991   1.193
  872TIP3   OH2 2551   3.204   4.166   0.084
  872TIP3    H1 2552   3.159   4.150  -0.001
  872TIP3    H2 2553   3.176   4.257   0.106
  873TIP3   OH2 2554   2.650   4.015   0.470
  873TIP3    H1 2555   2.699   4.006   0.555
  873TIP3    H2 2556   2.602   3.930   0.468
  874TIP3   OH2 2557   3.427   4.029  -0.232
  874TIP3    H1 2558   3.516   3.992  -0.242
  874TIP3    H2 2559   3.435   4.062  -0.139
  875TIP3   OH2 2560   3.461   4.116   0.022
  875TIP3    H1 2561   3.371   4.126   0.059
  875TIP3    H2 2562   3.510   4.085   0.101
  876TIP3   OH2 2563   4.234   3.383   1.272
  876TIP3    H1 2564   4.151   3.396   1.224
  876TIP3    H2 2565   4.249   3.287   1.262
  877TIP3   OH2 2566   2.829   3.794   1.295
  877TIP3    H1 2567   2.880   3.775   1.376
  877TIP3    H2 2568   2.755   3.729   1.302
  878TIP3   OH2 2569   3.230   2.612   1.084
  878TIP3    H1 2570   3.141   2.583   1.055
  878TIP3    H2 2571   3.206   2.696   1.128
  879TIP3   OH2 2572   3.767   2.727   1.276
  879TIP3    H1 2573   3.837   2.701   1.340
  879TIP3    H2 2574   3.685   2.709   1.325
  880TIP3   OH2 2575   4.000   3.159   1.192
  880TIP3    H1 2576   3.951   3.157   1.277
  880TIP3    H2 2577   3.977   3.246   1.155
  881TIP3   OH2 2578   3.667   3.304  -0.253
  881TIP3    H1 2579   3.674   3.264  -0.341
  881TIP3    H2 2580   3.708   3.391  -0.267
  882TIP3   OH2 2581   3.387   2.687   0.055
  882TIP3    H1 2582   3.352   2.674   0.145
  882TIP3    H2 2583   3.360   2.605   0.012
  883TIP3   OH2 2584   3.159   3.132   1.095
  883TIP3    H1 2585   3.113   3.154   1.178
  883TIP3    H2 2586   3.145   3.215   1.043
  884TIP3   OH2 2587   3.044   3.016   0.616
  884TIP3    H1 2588   2.952   2.988   0.634
  884TIP3    H2 2589   3.058   2.976   0.528
  885TIP3   OH2 2590   3.534   3.098   0.341
  885TIP3    H1 2591   3.484   3.170   0.298
  885TIP3    H2 2592   3.591   3.066   0.268
  886TIP3   OH2 2593   3.713   3.376   1.424
  886TIP3    H1 2594   3.690   3.305   1.487
  886TIP3    H2 2595   3.807   3.391   1.447
  887TIP3   OH2 2596   3.690   3.126   0.583
  887TIP3    H1 2597   3.631   3.161   0.513
  887TIP3    H2 2598   3.723   3.047   0.535
  888TIP3   OH2 2599   2.981   3.161   1.308
  888TIP3    H1 2600   3.019   3.225   1.371
  888TIP3    H2 2601   2.973   3.080   1.363
  889TIP3   OH2 2602   3.032   2.611   0.025
  889TIP3    H1 2603   3.039   2.621   0.122
  889TIP3    H2 2604   2.957   2.668   0.007
  890TIP3   OH2 2605   2.584   2.679   0.890
  890TIP3    H1 2606   2.652   2.717   0.949
  890TIP3    H2 2607   2.633   2.660   0.809
  891TIP3   OH2 2608   2.611   2.730   0.456
  891TIP3    H1 2609   2.647   2.742   0.366
  891TIP3    H2 2610   2.528   2.780   0.450
  892TIP3   OH2 2611   3.709   3.370   1.009
  892TIP3    H1 2612   3.737   3.302   0.944
  892TIP3    H2 2613   3.673   3.314   1.080
  893TIP3   OH2 2614   3.376   2.830   0.671
  893TIP3    H1 2615   3.296   2.833   0.727
  893TIP3    H2 2616   3.447   2.840   0.737
  894TIP3   OH2 2617   2.806   2.893   0.679
  894TIP3    H1 2618   2.712   2.901   0.649
  894TIP3    H2 2619   2.830   2.803   0.649
  895TIP3   OH2 2620   3.078   2.892   0.378
  895TIP3    H1 2621   3.173   2.907   0.359
  895TIP3    H2 2622   3.034   2.911   0.291
  896TIP3   OH2 2623   3.869   2.910   0.875
  896TIP3    H1 2624   3.837   2.925   0.967
  896TIP3    H2 2625   3.797   2.853   0.841
  897TIP3   OH2 2626   2.925   2.912   0.155
  897TIP3    H1 2627   2.828   2.901   0.144
  897TIP3    H2 2628   2.954   2.958   0.074
  898TIP3   OH2 2629   4.040   4.603   1.096
  898TIP3    H1 2630   4.036   4.625   1.001
  898TIP3    H2 2631   4.121   4.650   1.124
  899TIP3   OH2 2632   2.991   3.711   1.515
  899TIP3    H1 2633   3.072   3.743   1.559
  899TIP3    H2 2634   2.928   3.714   1.590
  900TIP3   OH2 2635   3.449   3.157   0.767
  900TIP3    H1 2636   3.531   3.140   0.718
  900TIP3    H2 2637   3.469   3.120   0.855
  901TIP3   OH2 2638   2.977   2.652   0.649
  901TIP3    H1 2639   2.938   2.574   0.694
  901TIP3    H2 2640   3.017   2.611   0.571
  902TIP3   OH2 2641   3.431   3.061   1.071
  902TIP3    H1 2642   3.343   3.103   1.077
  902TIP3    H2 2643   3.490   3.126   1.116
  903TIP3   OH2 2644   3.171   3.453   0.152
  903TIP3    H1 2645   3.096   3.391   0.141
  903TIP3    H2 2646   3.152   3.489   0.242
  904TIP3   OH2 2647   4.071   3.689   0.784
  904TIP3    H1 2648   4.092   3.741   0.703
  904TIP3    H2 2649   3.985   3.647   0.758
  905TIP3   OH2 2650   3.649   2.762   0.019
  905TIP3    H1 2651   3.553   2.742   0.019
  905TIP3    H2 2652   3.651   2.858   0.038
  906TIP3   OH2 2653   3.531   3.751   1.193
  906TIP3    H1 2654   3.600   3.776   1.258
  906TIP3    H2 2655   3.519   3.836   1.146
  907TIP3   OH2 2656   3.694   3.015   0.124
  907TIP3    H1 2657   3.791   3.019   0.139
  907TIP3    H2 2658   3.678   3.095   0.070
  908TIP3   OH2 2659   2.857   3.471   0.829
  908TIP3    H1 2660   2.898   3.450   0.742
  908TIP3    H2 2661   2.915   3.421   0.889
  909TIP3   OH2 2662   3.315   3.603  -0.029
  909TIP3    H1 2663   3.268   3.689  -0.018
  909TIP3    H2 2664   3.264   3.547   0.034
  910TIP3   OH2 2665   2.743   3.398   1.447
  910TIP3    H1 2666   2.765   3.384   1.541
  910TIP3    H2 2667   2.675   3.330   1.431
  911TIP3   OH2 2668   3.472   3.508   1.470
  911TIP3    H1 2669   3.413   3.459   1.409
  911TIP3    H2 2670   3.560   3.479   1.437
  912TIP3   OH2 2671   3.738   4.024   1.049
  912TIP3    H1 2672   3.641   4.025   1.037
  912TIP3    H2 2673   3.746   4.080   1.129
  913TIP3   OH2 2674   4.130   3.106  -0.044
  913TIP3    H1 2675   4.070   3.064  -0.110
  913TIP3    H2 2676   4.127   3.197  -0.081
  914TIP3   OH2 2677   4.359   3.965   1.038
  914TIP3    H1 2678   4.261   3.958   1.029
  914TIP3    H2 2679   4.386   3.935   0.948
  915TIP3   OH2 2680   3.861   3.918  -0.143
  915TIP3    H1 2681   3.831   3.866  -0.066
  915TIP3    H2 2682   3.817   3.874  -0.217
  916TIP3   OH2 2683   3.850   3.554   0.686
  916TIP3    H1 2684   3.759   3.530   0.715
  916TIP3    H2 2685   3.876   3.470   0.644
  917TIP3   OH2 2686   2.965   3.779   0.449
  917TIP3    H1 2687   2.963   3.864   0.400
  917TIP3    H2 2688   2.872   3.768   0.470
  918TIP3   OH2 2689   2.531   3.081   0.177
  918TIP3    H1 2690   2.572   3.169   0.189
  918TIP3    H2 2691   2.445   3.093   0.222
  919TIP3   OH2 2692   3.093   3.542   0.395
  919TIP3    H1 2693   3.063   3.633   0.414
  919TIP3    H2 2694   3.062   3.495   0.474
  920TIP3   OH2 2695   3.232   4.129   0.931
  920TIP3    H1 2696   3.278   4.197   0.878
  920TIP3    H2 2697   3.289   4.052   0.906
  921TIP3   OH2 2698   2.880   4.023   0.308
  921TIP3    H1 2699   2.795   4.030   0.356
  921TIP3    H2 2700   2.913   4.115   0.313
  922TIP3   OH2 2701   3.572   3.615  -0.227
  922TIP3    H1 2702   3.641   3.607  -0.158
  922TIP3    H2 2703   3.493   3.626  -0.172
  923TIP3   OH2 2704   3.875   4.290   0.932
  923TIP3    H1 2705   3.791   4.240   0.927
  923TIP3    H2 2706   3.858   4.357   0.862
  924TIP3   OH2 2707   2.952   2.901   1.452
  924TIP3    H1 2708   2.856   2.905   1.465
  924TIP3    H2 2709   2.981   2.847   1.528
  925TIP3   OH2 2710   3.755   3.576  -0.026
  925TIP3    H1 2711   3.746   3.516   0.051
  925TIP3    H2 2712   3.853   3.581  -0.031
  926TIP3   OH2 2713   2.668   3.987   1.084
  926TIP3    H1 2714   2.725   3.914   1.116
  926TIP3    H2 2715   2.704   4.061   1.135
  927TIP3   OH2 2716   2.956   3.646  -0.230
  927TIP3    H1 2717   2.992   3.562  -0.260
  927TIP3    H2 2718   2.934   3.629  -0.136
  928TIP3   OH2 2719   2.904   3.637   0.045
  928TIP3    H1 2720   2.978   3.615   0.103
  928TIP3    H2 2721   2.907   3.736   0.048
  929TIP3   OH2 2722   2.638   3.331   0.246
  929TIP3    H1 2723   2.574   3.378   0.303
  929TIP3    H2 2724   2.654   3.398   0.177
  930TIP3   OH2 2725   3.795   2.964   1.134
  930TIP3    H1 2726   3.874   3.006   1.172
  930TIP3    H2 2727   3.784   2.884   1.190
  931TIP3   OH2 2728   3.668   2.717   0.301
  931TIP3    H1 2729   3.661   2.737   0.206
  931TIP3    H2 2730   3.711   2.798   0.336
  932TIP3   OH2 2731   3.172   3.829  -0.011
  932TIP3    H1 2732   3.087   3.861   0.027
  932TIP3    H2 2733   3.185   3.892  -0.083
  933TIP3   OH2 2734   3.355   2.898   0.403
  933TIP3    H1 2735   3.421   2.969   0.384
  933TIP3    H2 2736   3.364   2.888   0.500
  934TIP3   OH2 2737   3.626   3.208   1.214
  934TIP3    H1 2738   3.654   3.266   1.288
  934TIP3    H2 2739   3.685   3.132   1.224
  935TIP3   OH2 2740   3.503   2.618   0.503
  935TIP3    H1 2741   3.493   2.695   0.562
  935TIP3    H2 2742   3.565   2.655   0.435
  936TIP3   OH2 2743   2.918   3.909   0.060
  936TIP3    H1 2744   2.890   3.981  -0.002
  936TIP3    H2 2745   2.902   3.952   0.147
  937TIP3   OH2 2746   3.027   2.632   0.305
  937TIP3    H1 2747   3.023   2.724   0.339
  937TIP3    H2 2748   3.123   2.616   0.312
  938TIP3   OH2 2749   4.267   3.115   1.192
  938TIP3    H1 2750   4.168   3.114   1.198
  938TIP3    H2 2751   4.279   3.077   1.104
  939TIP3   OH2 2752   3.922   3.302   0.575
  939TIP3    H1 2753   3.841   3.251   0.594
  939TIP3    H2 2754   3.990   3.256   0.627
  940TIP3   OH2 2755   2.634   3.542   0.055
  940TIP3    H1 2756   2.710   3.602   0.063
  940TIP3    H2 2757   2.674   3.478  -0.009
  941TIP3   OH2 2758   2.629   2.830   0.164
  941TIP3    H1 2759   2.593   2.922   0.167
  941TIP3    H2 2760   2.556   2.783   0.121
  942TIP3   OH2 2761   3.888   4.264   0.529
  942TIP3    H1 2762   3.844   4.314   0.457
  942TIP3    H2 2763   3.982   4.284   0.508
  943TIP3   OH2 2764   2.964   2.536   1.057
  943TIP3    H1 2765   2.933   2.506   0.969
  943TIP3    H2 2766   2.953   2.455   1.111
  944TIP3   OH2 2767   2.502   3.754   0.434
  944TIP3    H1 2768   2.435   3.783   0.497
  944TIP3    H2 2769   2.470   3.797   0.350
  945TIP3   OH2 2770   2.664   4.301   1.508
  945TIP3    H1 2771   2.751   4.302   1.555
  945TIP3    H2 2772   2.648   4.205   1.505
  946TIP3   OH2 2773   3.139   4.254   1.553
  946TIP3    H1 2774   3.234   4.239   1.557
  946TIP3    H2 2775   3.114   4.195   1.479
  947TIP3   OH2 2776   3.136   3.833  -0.313
  947TIP3    H1 2777   3.057   3.781  -0.286
  947TIP3    H2 2778   3.199   3.761  -0.325
  948TIP3   OH2 2779   3.770   4.174   1.292
  948TIP3    H1 2780   3.766   4.099   1.356
  948TIP3    H2 2781   3.852   4.219   1.316
  949TIP3   OH2 2782   2.790   3.702   1.709
  949TIP3    H1 2783   2.807   3.606   1.712
  949TIP3    H2 2784   2.704   3.705   1.662
  950TIP3   OH2 2785   2.779   3.356  -0.075
  950TIP3    H1 2786   2.850   3.328  -0.014
  950TIP3    H2 2787   2.816   3.340  -0.162
  951TIP3   OH2 2788   3.395   3.787   1.483
  951TIP3    H1 2789   3.366   3.812   1.392
  951TIP3    H2 2790   3.434   3.698   1.467
  952TIP3   OH2 2791   3.247   3.541  -0.287
  952TIP3    H1 2792   3.271   3.572  -0.198
  952TIP3    H2 2793   3.287   3.454  -0.288
  953TIP3   OH2 2794   3.896   3.795   1.095
  953TIP3    H1 2795   3.968   3.842   1.051
  953TIP3    H2 2796   3.821   3.854   1.072
  954TIP3   OH2 2797   2.909   3.434   1.693
  954TIP3    H1 2798   2.991   3.398   1.657
  954TIP3    H2 2799   2.939   3.468   1.780
  955TIP3   OH2 2800   2.972   3.258   0.115
  955TIP3    H1 2801   2.947   3.228   0.205
  955TIP3    H2 2802   3.011   3.178   0.075
  956TIP3   OH2 2803   3.243   3.313   1.345
  956TIP3    H1 2804   3.170   3.379   1.351
  956TIP3    H2 2805   3.296   3.349   1.269
  957TIP3   OH2 2806   3.076   3.045  -0.040
  957TIP3    H1 2807   3.077   3.012  -0.131
  957TIP3    H2 2808   3.173   3.061  -0.029
  958TIP3   OH2 2809   3.764   3.722   1.486
  958TIP3    H1 2810   3.835   3.689   1.430
  958TIP3    H2 2811   3.761   3.655   1.557
  959TIP3   OH2 2812   3.368   3.110   1.477
  959TIP3    H1 2813   3.371   3.032   1.418
  959TIP3    H2 2814   3.327   3.177   1.418
  960TIP3   OH2 2815   3.372   2.894   1.287
  960TIP3    H1 2816   3.401   2.939   1.205
  960TIP3    H2 2817   3.279   2.873   1.266
  961TIP3   OH2 2818   3.396   3.429   1.157
  961TIP3    H1 2819   3.486   3.453   1.129
  961TIP3    H2 2820   3.343   3.499   1.113
  962TIP3   OH2 2821   3.979   3.397   1.536
  962TIP3    H1 2822   4.030   3.315   1.546
  962TIP3    H2 2823   4.045   3.457   1.497
  963TIP3   OH2 2824   4.023   3.649   1.280
  963TIP3    H1 2825   3.965   3.703   1.221
  963TIP3    H2 2826   4.110   3.669   1.240
  964TIP3   OH2 2827   3.248   3.216   1.711
  964TIP3    H1 2828   3.179   3.148   1.723
  964TIP3    H2 2829   3.282   3.193   1.622
  965TIP3   OH2 2830   3.504   2.658   1.356
  965TIP3    H1 2831   3.457   2.741   1.331
  965TIP3    H2 2832   3.435   2.591   1.341
  966TIP3   OH2 2833   3.631   3.159   1.568
  966TIP3    H1 2834   3.618   3.147   1.664
  966TIP3    H2 2835   3.541   3.137   1.536
  967TIP3   OH2 2836   3.868   3.110   1.422
  967TIP3    H1 2837   3.794   3.113   1.485
  967TIP3    H2 2838   3.943   3.082   1.479
  968TIP3   OH2 2839   4.097   3.054   1.574
  968TIP3    H1 2840   4.111   2.958   1.590
  968TIP3    H2 2841   4.093   3.091   1.665
  969TIP3   OH2 2842   3.083   2.996   1.764
  969TIP3    H1 2843   3.098   2.907   1.728
  969TIP3    H2 2844   3.122   2.986   1.854
  970TIP3   OH2 2845   3.592   2.665   1.616
  970TIP3    H1 2846   3.662   2.597   1.608
  970TIP3    H2 2847   3.556   2.663   1.525
  971TIP3   OH2 2848   3.662   2.882   1.771
  971TIP3    H1 2849   3.641   2.811   1.706
  971TIP3    H2 2850   3.585   2.942   1.763
  972TIP3   OH2 2851   2.878   4.109  -0.126
  972TIP3    H1 2852   2.970   4.111  -0.158
  972TIP3    H2 2853   2.829   4.145  -0.201
  973TIP3   OH2 2854   2.363   3.500   0.100
  973TIP3    H1 2855   2.454   3.530   0.076
  973TIP3    H2 2856   2.359   3.415   0.053
  974TIP3   OH2 2857   2.280   4.105   0.501
  974TIP3    H1 2858   2.214   4.042   0.463
  974TIP3    H2 2859   2.326   4.047   0.565
  975TIP3   OH2 2860   2.414   3.953   0.687
  975TIP3    H1 2861   2.404   3.882   0.753
  975TIP3    H2 2862   2.469   4.015   0.738
  976TIP3   OH2 2863   4.143   4.355   0.486
  976TIP3    H1 2864   4.167   4.389   0.574
  976TIP3    H2 2865   4.210   4.397   0.429
  977TIP3   OH2 2866   4.171   4.376   0.769
  977TIP3    H1 2867   4.125   4.290   0.767
  977TIP3    H2 2868   4.250   4.352   0.820
  978TIP3   OH2 2869   4.221   4.053   1.343
  978TIP3    H1 2870   4.148   4.063   1.408
  978TIP3    H2 2871   4.262   4.142   1.347
  979TIP3   OH2 2872   4.032   3.560  -0.034
  979TIP3    H1 2873   4.101   3.626  -0.059
  979TIP3    H2 2874   4.075   3.519   0.045
  980TIP3   OH2 2875   4.165   3.429   0.165
  980TIP3    H1 2876   4.098   3.389   0.225
  980TIP3    H2 2877   4.230   3.468   0.227
  981TIP3   OH2 2878   4.222   3.830   0.597
  981TIP3    H1 2879   4.273   3.763   0.548
  981TIP3    H2 2880   4.216   3.903   0.532
  982TIP3   OH2 2881   4.045   4.124   0.791
  982TIP3    H1 2882   3.977   4.170   0.844
  982TIP3    H2 2883   3.991   4.079   0.723
  983TIP3   OH2 2884   4.093   3.345  -0.192
  983TIP3    H1 2885   4.019   3.336  -0.254
  983TIP3    H2 2886   4.064   3.422  -0.139
  984TIP3   OH2 2887   3.975   3.023  -0.253
  984TIP3    H1 2888   3.970   3.043  -0.349
  984TIP3    H2 2889   3.943   2.931  -0.251
  985TIP3   OH2 2890   3.975   3.290   0.307
  985TIP3    H1 2891   3.981   3.194   0.301
  985TIP3    H2 2892   3.960   3.304   0.403
  986TIP3   OH2 2893   2.601   3.362   1.061
  986TIP3    H1 2894   2.599   3.329   0.968
  986TIP3    H2 2895   2.699   3.366   1.075
  987TIP3   OH2 2896   4.265   3.715   1.170
  987TIP3    H1 2897   4.338   3.650   1.156
  987TIP3    H2 2898   4.285   3.783   1.104
  988TIP3   OH2 2899   4.449   3.516   1.173
  988TIP3    H1 2900   4.374   3.469   1.216
  988TIP3    H2 2901   4.522   3.453   1.192
  989TIP3   OH2 2902   3.913   2.758  -0.227
  989TIP3    H1 2903   3.999   2.721  -0.198
  989TIP3    H2 2904   3.849   2.709  -0.173
  990TIP3   OH2 2905   3.972   3.007   0.201
  990TIP3    H1 2906   4.014   2.919   0.217
  990TIP3    H2 2907   4.028   3.040   0.129
  991TIP3   OH2 2908   4.134   3.174   0.702
  991TIP3    H1 2909   4.218   3.201   0.660
  991TIP3    H2 2910   4.146   3.216   0.790
  992TIP3   OH2 2911   4.204   3.326   0.930
  992TIP3    H1 2912   4.126   3.359   0.979
  992TIP3    H2 2913   4.235   3.407   0.886
  993TIP3   OH2 2914   2.816   3.046   1.723
  993TIP3    H1 2915   2.914   3.044   1.731
  993TIP3    H2 2916   2.794   2.961   1.766
  994TIP3   OH2 2917   4.654   2.919   1.486
  994TIP3    H1 2918   4.714   2.854   1.444
  994TIP3    H2 2919   4.624   2.971   1.408
  995TIP3   OH2 2920   4.083   2.758   0.241
  995TIP3    H1 2921   4.128   2.741   0.326
  995TIP3    H2 2922   4.021   2.681   0.239
  996TIP3   OH2 2923   2.781   2.745   1.072
  996TIP3    H1 2924   2.844   2.670   1.075
  996TIP3    H2 2925   2.842   2.819   1.057
  997TIP3   OH2 2926   2.582   3.015   1.136
  997TIP3    H1 2927   2.631   3.009   1.051
  997TIP3    H2 2928   2.609   3.103   1.166
  998TIP3   OH2 2929   4.523   3.054   1.290
  998TIP3    H1 2930   4.437   3.097   1.312
  998TIP3    H2 2931   4.490   2.981   1.233
  999TIP3   OH2 2932   4.173   2.685  -0.142
  999TIP3    H1 2933   4.218   2.646  -0.219
  999TIP3    H2 2934   4.227   2.766  -0.129
 1000TIP3   OH2 2935   2.568   2.526   0.631
 1000TIP3    H1 2936   2.480   2.544   0.664
 1000TIP3    H2 2937   2.583   2.598   0.565
 1001TIP3   OH2 2938   3.735   4.224   0.145
 1001TIP3    H1 2939   3.775   4.214   0.056
 1001TIP3    H2 2940   3.785   4.300   0.180
 1002TIP3   OH2 2941   2.781   2.581   1.448
 1002TIP3    H1 2942   2.736   2.597   1.533
 1002TIP3    H2 2943   2.723   2.630   1.387
 1003TIP3   OH2 2944   2.825   4.031   1.525
 1003TIP3    H1 2945   2.732   4.004   1.511
 1003TIP3    H2 2946   2.838   4.012   1.618
 1004TIP3   OH2 2947   3.010   4.065   1.077
 1004TIP3    H1 2948   2.966   4.142   1.034
 1004TIP3    H2 2949   3.099   4.078   1.038
 1005TIP3   OH2 2950   3.442   4.312   1.217
 1005TIP3    H1 2951   3.490   4.306   1.302
 1005TIP3    H2 2952   3.508   4.359   1.162
 1006TIP3   OH2 2953   3.620   4.463   1.073
 1006TIP3    H1 2954   3.679   4.409   1.019
 1006TIP3    H2 2955   3.683   4.512   1.130
 1007TIP3   OH2 2956   4.425   2.817   1.170
 1007TIP3    H1 2957   4.334   2.811   1.135
 1007TIP3    H2 2958   4.456   2.725   1.160
 1008TIP3   OH2 2959   2.679   4.316   1.099
 1008TIP3    H1 2960   2.589   4.349   1.079
 1008TIP3    H2 2961   2.697   4.362   1.182
 1009TIP3   OH2 2962   2.917   4.298   0.959
 1009TIP3    H1 2963   2.829   4.308   1.000
 1009TIP3    H2 2964   2.900   4.327   0.867
 1010TIP3   OH2 2965   3.341   4.324   0.754
 1010TIP3    H1 2966   3.274   4.349   0.688
 1010TIP3    H2 2967   3.361   4.409   0.798
 1011TIP3   OH2 2968   3.622   4.281   0.821
 1011TIP3    H1 2969   3.532   4.251   0.798
 1011TIP3    H2 2970   3.638   4.348   0.754
 1012TIP3   OH2 2971   3.837   4.465   0.718
 1012TIP3    H1 2972   3.814   4.545   0.666
 1012TIP3    H2 2973   3.853   4.399   0.648
 1013TIP3   OH2 2974   2.592   4.108   0.842
 1013TIP3    H1 2975   2.620   4.082   0.933
 1013TIP3    H2 2976   2.666   4.068   0.791
 1014TIP3   OH2 2977   2.791   3.983   0.704
 1014TIP3    H1 2978   2.807   3.899   0.752
 1014TIP3    H2 2979   2.883   4.019   0.702
 1015TIP3   OH2 2980   3.056   4.082   0.710
 1015TIP3    H1 2981   3.104   4.002   0.684
 1015TIP3    H2 2982   3.106   4.103   0.791
 1016TIP3   OH2 2983   3.633   2.733   0.793
 1016TIP3    H1 2984   3.589   2.662   0.841
 1016TIP3    H2 2985   3.706   2.687   0.747
 1017TIP3   OH2 2986   4.149   2.614   0.695
 1017TIP3    H1 2987   4.185   2.667   0.620
 1017TIP3    H2 2988   4.054   2.635   0.690
 1018TIP3   OH2 2989   4.247   2.712   0.459
 1018TIP3    H1 2990   4.321   2.661   0.419
 1018TIP3    H2 2991   4.279   2.804   0.445
 1019TIP3   OH2 2992   2.874   2.447   0.816
 1019TIP3    H1 2993   2.787   2.411   0.792
 1019TIP3    H2 2994   2.930   2.367   0.803
 1020TIP3   OH2 2995   2.785   2.378   0.538
 1020TIP3    H1 2996   2.749   2.375   0.448
 1020TIP3    H2 2997   2.711   2.422   0.583
 1021TIP3   OH2 2998   3.328   2.470   0.686
 1021TIP3    H1 2999   3.383   2.520   0.623
 1021TIP3    H2 3000   3.350   2.514   0.770
 1022TIP3   OH2 3001   3.865   2.620   0.670
 1022TIP3    H1 3002   3.867   2.581   0.582
 1022TIP3    H2 3003   3.854   2.540   0.727
 1023TIP3   OH2 3004   3.902   2.545   0.235
 1023TIP3    H1 3005   3.813   2.584   0.240
 1023TIP3    H2 3006   3.886   2.459   0.280
 1024TIP3   OH2 3007   2.380   3.886   0.233
 1024TIP3    H1 3008   2.299   3.847   0.195
 1024TIP3    H2 3009   2.363   3.980   0.216
 1025TIP3   OH2 3010   2.780   2.501   0.267
 1025TIP3    H1 3011   2.831   2.427   0.233
 1025TIP3    H2 3012   2.853   2.560   0.296
 1026TIP3   OH2 3013   3.300   2.645   0.315
 1026TIP3    H1 3014   3.362   2.602   0.377
 1026TIP3    H2 3015   3.317   2.739   0.340
 1027TIP3   OH2 3016   3.148   4.077  -0.193
 1027TIP3    H1 3017   3.242   4.090  -0.215
 1027TIP3    H2 3018   3.131   3.997  -0.247
 1028TIP3   OH2 3019   3.872   4.187  -0.096
 1028TIP3    H1 3020   3.864   4.092  -0.118
 1028TIP3    H2 3021   3.872   4.228  -0.185
 1029TIP3   OH2 3022   3.086   2.713   1.689
 1029TIP3    H1 3023   3.052   2.647   1.751
 1029TIP3    H2 3024   3.180   2.717   1.717
 1030TIP3   OH2 3025   3.334   2.719   1.811
 1030TIP3    H1 3026   3.421   2.702   1.770
 1030TIP3    H2 3027   3.331   2.648   1.879
 1031TIP3   OH2 3028   2.453   3.919  -0.104
 1031TIP3    H1 3029   2.452   3.952  -0.014
 1031TIP3    H2 3030   2.540   3.878  -0.112
 1032TIP3   OH2 3031   4.161   2.783   1.605
 1032TIP3    H1 3032   4.180   2.752   1.696
 1032TIP3    H2 3033   4.250   2.778   1.564
 1033TIP3   OH2 3034   4.096   4.332   1.098
 1033TIP3    H1 3035   4.019   4.301   1.046
 1033TIP3    H2 3036   4.076   4.428   1.102
 1034TIP3   OH2 3037   5.359   3.703   0.247
 1034TIP3    H1 3038   5.398   3.686   0.335
 1034TIP3    H2 3039   5.314   3.619   0.229
 1035TIP3   OH2 3040   4.664   3.599   0.609
 1035TIP3    H1 3041   4.694   3.530   0.671
 1035TIP3    H2 3042   4.738   3.661   0.613
 1036TIP3   OH2 3043   4.631   4.002   0.339
 1036TIP3    H1 3044   4.621   3.905   0.340
 1036TIP3    H2 3045   4.728   4.008   0.325
 1037TIP3   OH2 3046   4.343   3.216   0.108
 1037TIP3    H1 3047   4.293   3.296   0.132
 1037TIP3    H2 3048   4.271   3.161   0.073
 1038TIP3   OH2 3049   4.401   3.501   0.293
 1038TIP3    H1 3050   4.450   3.424   0.328
 1038TIP3    H2 3051   4.471   3.552   0.250
 1039TIP3   OH2 3052   5.171   3.928   0.288
 1039TIP3    H1 3053   5.214   3.850   0.249
 1039TIP3    H2 3054   5.252   3.975   0.319
 1040TIP3   OH2 3055   6.176   3.240   0.320
 1040TIP3    H1 3056   6.211   3.331   0.320
 1040TIP3    H2 3057   6.164   3.219   0.224
 1041TIP3   OH2 3058   5.581   3.428   0.352
 1041TIP3    H1 3059   5.629   3.345   0.368
 1041TIP3    H2 3060   5.546   3.412   0.262
 1042TIP3   OH2 3061   4.920   3.092   0.289
 1042TIP3    H1 3062   4.891   3.170   0.238
 1042TIP3    H2 3063   4.867   3.021   0.246
 1043TIP3   OH2 3064   5.576   3.158  -0.047
 1043TIP3    H1 3065   5.653   3.157   0.015
 1043TIP3    H2 3066   5.625   3.169  -0.131
 1044TIP3   OH2 3067   4.546   3.294   0.398
 1044TIP3    H1 3068   4.630   3.275   0.445
 1044TIP3    H2 3069   4.557   3.236   0.320
 1045TIP3   OH2 3070   4.995   3.501   0.195
 1045TIP3    H1 3071   5.088   3.473   0.207
 1045TIP3    H2 3072   4.950   3.417   0.174
 1046TIP3   OH2 3073   6.258   3.471   0.462
 1046TIP3    H1 3074   6.168   3.507   0.447
 1046TIP3    H2 3075   6.276   3.503   0.552
 1047TIP3   OH2 3076   4.910   3.076   0.724
 1047TIP3    H1 3077   4.851   3.114   0.656
 1047TIP3    H2 3078   4.857   3.093   0.805
 1048TIP3   OH2 3079   5.017   3.854   0.515
 1048TIP3    H1 3080   4.955   3.921   0.551
 1048TIP3    H2 3081   5.053   3.901   0.437
 1049TIP3   OH2 3082   5.796   3.192   0.096
 1049TIP3    H1 3083   5.813   3.141   0.175
 1049TIP3    H2 3084   5.888   3.211   0.067
 1050TIP3   OH2 3085   4.783   3.191   0.507
 1050TIP3    H1 3086   4.843   3.265   0.530
 1050TIP3    H2 3087   4.835   3.149   0.435
 1051TIP3   OH2 3088   4.847   4.048   0.616
 1051TIP3    H1 3089   4.823   4.133   0.574
 1051TIP3    H2 3090   4.767   4.035   0.671
 1052TIP3   OH2 3091   4.226   3.736  -0.123
 1052TIP3    H1 3092   4.176   3.765  -0.200
 1052TIP3    H2 3093   4.236   3.819  -0.071
 1053TIP3   OH2 3094   5.961   3.141   0.459
 1053TIP3    H1 3095   5.877   3.175   0.424
 1053TIP3    H2 3096   6.027   3.178   0.396
 1054TIP3   OH2 3097   5.264   2.792   0.441
 1054TIP3    H1 3098   5.247   2.698   0.460
 1054TIP3    H2 3099   5.188   2.834   0.488
 1055TIP3   OH2 3100   5.900   4.171   0.446
 1055TIP3    H1 3101   5.896   4.094   0.384
 1055TIP3    H2 3102   5.878   4.246   0.386
 1056TIP3   OH2 3103   6.097   3.794   0.320
 1056TIP3    H1 3104   6.028   3.862   0.304
 1056TIP3    H2 3105   6.133   3.778   0.230
 1057TIP3   OH2 3106   5.774   3.676   0.582
 1057TIP3    H1 3107   5.775   3.761   0.631
 1057TIP3    H2 3108   5.689   3.685   0.534
 1058TIP3   OH2 3109   4.768   3.618   0.096
 1058TIP3    H1 3110   4.736   3.551   0.032
 1058TIP3    H2 3111   4.852   3.579   0.127
 1059TIP3   OH2 3112   4.891   3.991   0.248
 1059TIP3    H1 3113   4.875   4.038   0.163
 1059TIP3    H2 3114   4.989   3.990   0.253
 1060TIP3   OH2 3115   4.913   3.612   0.437
 1060TIP3    H1 3116   4.949   3.592   0.348
 1060TIP3    H2 3117   4.953   3.699   0.457
 1061TIP3   OH2 3118   5.468   4.229   0.212
 1061TIP3    H1 3119   5.435   4.308   0.259
 1061TIP3    H2 3120   5.437   4.157   0.271
 1062TIP3   OH2 3121   5.050   4.164   0.763
 1062TIP3    H1 3122   4.989   4.228   0.806
 1062TIP3    H2 3123   4.986   4.113   0.709
 1063TIP3   OH2 3124   4.805   3.716   0.865
 1063TIP3    H1 3125   4.811   3.806   0.904
 1063TIP3    H2 3126   4.709   3.698   0.879
 1064TIP3   OH2 3127   4.845   4.332   0.848
 1064TIP3    H1 3128   4.813   4.337   0.755
 1064TIP3    H2 3129   4.763   4.310   0.897
 1065TIP3   OH2 3130   4.600   3.469  -0.090
 1065TIP3    H1 3131   4.516   3.514  -0.068
 1065TIP3    H2 3132   4.578   3.377  -0.072
 1066TIP3   OH2 3133   4.422   3.865   0.795
 1066TIP3    H1 3134   4.353   3.847   0.728
 1066TIP3    H2 3135   4.458   3.776   0.813
 1067TIP3   OH2 3136   4.278   4.061   0.422
 1067TIP3    H1 3137   4.375   4.054   0.417
 1067TIP3    H2 3138   4.269   4.137   0.482
 1068TIP3   OH2 3139   6.146   4.500   0.505
 1068TIP3    H1 3140   6.147   4.402   0.514
 1068TIP3    H2 3141   6.064   4.521   0.556
 1069TIP3   OH2 3142   5.251   4.289   0.622
 1069TIP3    H1 3143   5.247   4.383   0.651
 1069TIP3    H2 3144   5.176   4.251   0.673
 1070TIP3   OH2 3145   4.420   4.248  -0.033
 1070TIP3    H1 3146   4.500   4.255   0.023
 1070TIP3    H2 3147   4.353   4.234   0.039
 1071TIP3   OH2 3148   6.026   3.634   0.764
 1071TIP3    H1 3149   5.946   3.650   0.711
 1071TIP3    H2 3150   6.042   3.539   0.748
 1072TIP3   OH2 3151   4.628   4.046   0.778
 1072TIP3    H1 3152   4.676   4.031   0.862
 1072TIP3    H2 3153   4.553   3.985   0.786
 1073TIP3   OH2 3154   5.027   2.871   0.570
 1073TIP3    H1 3155   4.938   2.841   0.541
 1073TIP3    H2 3156   5.000   2.952   0.618
 1074TIP3   OH2 3157   5.561   2.982   0.763
 1074TIP3    H1 3158   5.630   2.957   0.829
 1074TIP3    H2 3159   5.478   2.965   0.811
 1075TIP3   OH2 3160   5.798   3.414   0.681
 1075TIP3    H1 3161   5.748   3.413   0.766
 1075TIP3    H2 3162   5.773   3.501   0.644
 1076TIP3   OH2 3163   4.958   3.388   0.584
 1076TIP3    H1 3164   4.908   3.407   0.666
 1076TIP3    H2 3165   4.943   3.471   0.533
 1077TIP3   OH2 3166   4.830   3.290   0.127
 1077TIP3    H1 3167   4.738   3.261   0.146
 1077TIP3    H2 3168   4.847   3.235   0.047
 1078TIP3   OH2 3169   5.507   3.633   0.911
 1078TIP3    H1 3170   5.484   3.561   0.975
 1078TIP3    H2 3171   5.600   3.648   0.935
 1079TIP3   OH2 3172   5.492   3.385   0.099
 1079TIP3    H1 3173   5.459   3.422   0.014
 1079TIP3    H2 3174   5.528   3.300   0.068
 1080TIP3   OH2 3175   4.780   3.415   0.794
 1080TIP3    H1 3176   4.800   3.482   0.861
 1080TIP3    H2 3177   4.766   3.334   0.847
 1081TIP3   OH2 3178   4.369   2.937   0.376
 1081TIP3    H1 3179   4.446   2.968   0.428
 1081TIP3    H2 3180   4.409   2.902   0.294
 1082TIP3   OH2 3181   4.333   2.918  -0.098
 1082TIP3    H1 3182   4.379   2.950  -0.178
 1082TIP3    H2 3183   4.272   2.993  -0.082
 1083TIP3   OH2 3184   5.489   3.637   0.491
 1083TIP3    H1 3185   5.530   3.565   0.438
 1083TIP3    H2 3186   5.461   3.585   0.569
 1084TIP3   OH2 3187   5.172   3.092   0.162
 1084TIP3    H1 3188   5.091   3.092   0.217
 1084TIP3    H2 3189   5.242   3.092   0.231
 1085TIP3   OH2 3190   4.601   3.150   0.170
 1085TIP3    H1 3191   4.507   3.156   0.140
 1085TIP3    H2 3192   4.626   3.059   0.147
 1086TIP3   OH2 3193   4.887   3.115  -0.073
 1086TIP3    H1 3194   4.983   3.106  -0.063
 1086TIP3    H2 3195   4.885   3.153  -0.165
 1087TIP3   OH2 3196   5.666   3.164   0.376
 1087TIP3    H1 3197   5.626   3.177   0.465
 1087TIP3    H2 3198   5.598   3.109   0.333
 1088TIP3   OH2 3199   5.843   4.860   0.592
 1088TIP3    H1 3200   5.835   4.868   0.495
 1088TIP3    H2 3201   5.928   4.906   0.610
 1089TIP3   OH2 3202   4.789   3.966   1.002
 1089TIP3    H1 3203   4.868   3.999   1.049
 1089TIP3    H2 3204   4.724   3.968   1.075
 1090TIP3   OH2 3205   5.253   3.423   0.261
 1090TIP3    H1 3206   5.335   3.392   0.219
 1090TIP3    H2 3207   5.258   3.380   0.349
 1091TIP3   OH2 3208   4.770   2.911   0.149
 1091TIP3    H1 3209   4.733   2.830   0.192
 1091TIP3    H2 3210   4.821   2.873   0.076
 1092TIP3   OH2 3211   5.228   3.324   0.546
 1092TIP3    H1 3212   5.138   3.360   0.562
 1092TIP3    H2 3213   5.285   3.385   0.597
 1093TIP3   OH2 3214   5.863   3.951   0.288
 1093TIP3    H1 3215   5.841   3.989   0.200
 1093TIP3    H2 3216   5.781   3.899   0.302
 1094TIP3   OH2 3217   5.366   4.031   0.641
 1094TIP3    H1 3218   5.390   4.016   0.733
 1094TIP3    H2 3219   5.326   4.119   0.643
 1095TIP3   OH2 3220   4.644   3.719   0.322
 1095TIP3    H1 3221   4.692   3.697   0.240
 1095TIP3    H2 3222   4.698   3.674   0.389
 1096TIP3   OH2 3223   4.542   3.648   0.930
 1096TIP3    H1 3224   4.555   3.635   1.026
 1096TIP3    H2 3225   4.468   3.586   0.913
 1097TIP3   OH2 3226   5.265   3.769   0.952
 1097TIP3    H1 3227   5.203   3.710   0.906
 1097TIP3    H2 3228   5.352   3.734   0.921
 1098TIP3   OH2 3229   5.528   4.292   0.539
 1098TIP3    H1 3230   5.431   4.289   0.548
 1098TIP3    H2 3231   5.552   4.341   0.620
 1099TIP3   OH2 3232   6.152   4.216   0.527
 1099TIP3    H1 3233   6.054   4.210   0.512
 1099TIP3    H2 3234   6.185   4.188   0.439
 1100TIP3   OH2 3235   5.632   3.800   0.237
 1100TIP3    H1 3236   5.536   3.794   0.219
 1100TIP3    H2 3237   5.662   3.716   0.196
 1101TIP3   OH2 3238   4.775   4.052  -0.027
 1101TIP3    H1 3239   4.812   4.141  -0.047
 1101TIP3    H2 3240   4.687   4.080   0.001
 1102TIP3   OH2 3241   4.337   3.324  -0.310
 1102TIP3    H1 3242   4.346   3.411  -0.352
 1102TIP3    H2 3243   4.251   3.333  -0.263
 1103TIP3   OH2 3244   4.845   3.797  -0.100
 1103TIP3    H1 3245   4.836   3.888  -0.065
 1103TIP3    H2 3246   4.832   3.743  -0.020
 1104TIP3   OH2 3247   5.036   4.374   0.418
 1104TIP3    H1 3248   5.067   4.450   0.364
 1104TIP3    H2 3249   5.118   4.348   0.463
 1105TIP3   OH2 3250   5.420   4.008   0.374
 1105TIP3    H1 3251   5.405   4.011   0.472
 1105TIP3    H2 3252   5.504   3.959   0.370
 1106TIP3   OH2 3253   5.655   4.548   0.427
 1106TIP3    H1 3254   5.585   4.481   0.439
 1106TIP3    H2 3255   5.624   4.589   0.344
 1107TIP3   OH2 3256   4.748   3.157   0.937
 1107TIP3    H1 3257   4.651   3.162   0.950
 1107TIP3    H2 3258   4.775   3.102   1.013
 1108TIP3   OH2 3259   4.464   4.243   0.570
 1108TIP3    H1 3260   4.524   4.177   0.611
 1108TIP3    H2 3261   4.492   4.325   0.616
 1109TIP3   OH2 3262   5.585   3.223   0.630
 1109TIP3    H1 3263   5.668   3.261   0.664
 1109TIP3    H2 3264   5.576   3.141   0.683
 1110TIP3   OH2 3265   5.160   3.138  -0.105
 1110TIP3    H1 3266   5.197   3.224  -0.131
 1110TIP3    H2 3267   5.177   3.137  -0.008
 1111TIP3   OH2 3268   5.423   3.469   0.697
 1111TIP3    H1 3269   5.450   3.522   0.775
 1111TIP3    H2 3270   5.480   3.390   0.705
 1112TIP3   OH2 3271   5.314   2.882   0.006
 1112TIP3    H1 3272   5.297   2.946   0.077
 1112TIP3    H2 3273   5.377   2.933  -0.047
 1113TIP3   OH2 3274   4.810   2.873  -0.222
 1113TIP3    H1 3275   4.795   2.953  -0.168
 1113TIP3    H2 3276   4.903   2.854  -0.195
 1114TIP3   OH2 3277   6.065   3.368   0.678
 1114TIP3    H1 3278   5.967   3.368   0.684
 1114TIP3    H2 3279   6.076   3.333   0.589
 1115TIP3   OH2 3280   5.713   3.569   0.108
 1115TIP3    H1 3281   5.643   3.502   0.118
 1115TIP3    H2 3282   5.792   3.521   0.144
 1116TIP3   OH2 3283   4.389   3.059  -0.331
 1116TIP3    H1 3284   4.370   3.155  -0.320
 1116TIP3    H2 3285   4.317   3.032  -0.391
 1117TIP3   OH2 3286   4.765   2.790   0.538
 1117TIP3    H1 3287   4.731   2.757   0.452
 1117TIP3    H2 3288   4.751   2.712   0.597
 1118TIP3   OH2 3289   4.264   3.993  -0.035
 1118TIP3    H1 3290   4.225   4.045   0.038
 1118TIP3    H2 3291   4.330   4.057  -0.068
 1119TIP3   OH2 3292   4.458   4.555   1.001
 1119TIP3    H1 3293   4.546   4.554   1.045
 1119TIP3    H2 3294   4.440   4.460   0.993
 1120TIP3   OH2 3295   4.936   4.508   1.044
 1120TIP3    H1 3296   5.032   4.495   1.043
 1120TIP3    H2 3297   4.909   4.450   0.969
 1121TIP3   OH2 3298   5.578   4.423   0.773
 1121TIP3    H1 3299   5.571   4.353   0.842
 1121TIP3    H2 3300   5.655   4.475   0.805
 1122TIP3   OH2 3301   4.588   3.959   1.195
 1122TIP3    H1 3302   4.603   3.863   1.199
 1122TIP3    H2 3303   4.501   3.963   1.149
 1123TIP3   OH2 3304   5.195   4.046   0.968
 1123TIP3    H1 3305   5.151   4.068   0.883
 1123TIP3    H2 3306   5.224   3.954   0.955
 1124TIP3   OH2 3307   5.686   4.054   0.574
 1124TIP3    H1 3308   5.762   4.101   0.534
 1124TIP3    H2 3309   5.616   4.120   0.561
 1125TIP3   OH2 3310   4.706   3.695   1.180
 1125TIP3    H1 3311   4.784   3.645   1.151
 1125TIP3    H2 3312   4.735   3.728   1.268
 1126TIP3   OH2 3313   5.045   3.578   0.839
 1126TIP3    H1 3314   4.965   3.635   0.840
 1126TIP3    H2 3315   5.093   3.613   0.760
 1127TIP3   OH2 3316   5.559   3.979   0.971
 1127TIP3    H1 3317   5.636   3.949   0.922
 1127TIP3    H2 3318   5.554   3.913   1.043
 1128TIP3   OH2 3319   5.168   3.367   0.962
 1128TIP3    H1 3320   5.167   3.289   0.903
 1128TIP3    H2 3321   5.124   3.435   0.905
 1129TIP3   OH2 3322   5.170   3.151   0.770
 1129TIP3    H1 3323   5.196   3.195   0.687
 1129TIP3    H2 3324   5.076   3.130   0.752
 1130TIP3   OH2 3325   5.192   3.688   0.643
 1130TIP3    H1 3326   5.278   3.705   0.601
 1130TIP3    H2 3327   5.135   3.754   0.598
 1131TIP3   OH2 3328   5.775   3.654   1.023
 1131TIP3    H1 3329   5.825   3.571   1.030
 1131TIP3    H2 3330   5.842   3.714   0.984
 1132TIP3   OH2 3331   5.816   3.906   0.760
 1132TIP3    H1 3332   5.759   3.961   0.701
 1132TIP3    H2 3333   5.904   3.929   0.721
 1133TIP3   OH2 3334   5.047   3.471   1.197
 1133TIP3    H1 3335   4.977   3.404   1.212
 1133TIP3    H2 3336   5.078   3.447   1.108
 1134TIP3   OH2 3337   5.299   2.914   0.841
 1134TIP3    H1 3338   5.251   2.996   0.817
 1134TIP3    H2 3339   5.229   2.847   0.830
 1135TIP3   OH2 3340   5.427   3.416   1.055
 1135TIP3    H1 3341   5.409   3.403   1.150
 1135TIP3    H2 3342   5.338   3.394   1.020
 1136TIP3   OH2 3343   5.665   3.367   0.911
 1136TIP3    H1 3344   5.589   3.369   0.972
 1136TIP3    H2 3345   5.738   3.338   0.969
 1137TIP3   OH2 3346   5.899   3.312   1.061
 1137TIP3    H1 3347   5.909   3.216   1.077
 1137TIP3    H2 3348   5.891   3.348   1.152
 1138TIP3   OH2 3349   4.883   3.253   1.250
 1138TIP3    H1 3350   4.887   3.161   1.218
 1138TIP3    H2 3351   4.920   3.242   1.340
 1139TIP3   OH2 3352   5.395   2.925   1.098
 1139TIP3    H1 3353   5.460   2.852   1.091
 1139TIP3    H2 3354   5.353   2.921   1.010
 1140TIP3   OH2 3355   5.460   3.139   1.257
 1140TIP3    H1 3356   5.438   3.068   1.192
 1140TIP3    H2 3357   5.382   3.198   1.250
 1141TIP3   OH2 3358   4.069   4.353  -0.004
 1141TIP3    H1 3359   4.003   4.296  -0.049
 1141TIP3    H2 3360   4.112   4.289   0.056
 1142TIP3   OH2 3361   4.227   4.200   0.167
 1142TIP3    H1 3362   4.206   4.138   0.240
 1142TIP3    H2 3363   4.267   4.272   0.221
 1143TIP3   OH2 3364   5.975   4.633   0.316
 1143TIP3    H1 3365   5.932   4.545   0.325
 1143TIP3    H2 3366   6.053   4.619   0.374
 1144TIP3   OH2 3367   6.016   4.309   0.831
 1144TIP3    H1 3368   5.943   4.319   0.896
 1144TIP3    H2 3369   6.058   4.397   0.834
 1145TIP3   OH2 3370   5.837   4.390   0.291
 1145TIP3    H1 3371   5.762   4.431   0.339
 1145TIP3    H2 3372   5.796   4.374   0.204
 1146TIP3   OH2 3373   4.398   3.617   0.547
 1146TIP3    H1 3374   4.394   3.586   0.454
 1146TIP3    H2 3375   4.496   3.620   0.560
 1147TIP3   OH2 3376   6.060   3.973   0.656
 1147TIP3    H1 3377   6.131   3.906   0.644
 1147TIP3    H2 3378   6.089   4.044   0.596
 1148TIP3   OH2 3379   6.239   3.771   0.668
 1148TIP3    H1 3380   6.165   3.720   0.709
 1148TIP3    H2 3381   6.314   3.710   0.684
 1149TIP3   OH2 3382   5.942   3.456   0.190
 1149TIP3    H1 3383   6.026   3.447   0.140
 1149TIP3    H2 3384   5.972   3.483   0.279
 1150TIP3   OH2 3385   5.999   3.571   0.435
 1150TIP3    H1 3386   5.916   3.600   0.476
 1150TIP3    H2 3387   6.031   3.657   0.398
 1151TIP3   OH2 3388   4.616   3.304   1.215
 1151TIP3    H1 3389   4.713   3.300   1.222
 1151TIP3    H2 3390   4.592   3.218   1.256
 1152TIP3   OH2 3391   6.461   3.177   0.974
 1152TIP3    H1 3392   6.513   3.109   0.926
 1152TIP3    H2 3393   6.423   3.228   0.899
 1153TIP3   OH2 3394   4.579   2.998   0.545
 1153TIP3    H1 3395   4.642   2.924   0.556
 1153TIP3    H2 3396   4.640   3.074   0.540
 1154TIP3   OH2 3397   4.378   3.271   0.623
 1154TIP3    H1 3398   4.428   3.270   0.539
 1154TIP3    H2 3399   4.400   3.359   0.657
 1155TIP3   OH2 3400   6.318   3.307   0.784
 1155TIP3    H1 3401   6.234   3.353   0.802
 1155TIP3    H2 3402   6.285   3.238   0.723
 1156TIP3   OH2 3403   4.366   2.775   0.130
 1156TIP3    H1 3404   4.272   2.769   0.156
 1156TIP3    H2 3405   4.361   2.832   0.050
 1157TIP3   OH2 3406   4.584   2.851   0.935
 1157TIP3    H1 3407   4.535   2.850   1.018
 1157TIP3    H2 3408   4.519   2.894   0.875
 1158TIP3   OH2 3409   4.624   4.282   1.012
 1158TIP3    H1 3410   4.530   4.261   0.995
 1158TIP3    H2 3411   4.631   4.269   1.107
 1159TIP3   OH2 3412   4.806   4.321   0.564
 1159TIP3    H1 3413   4.757   4.396   0.523
 1159TIP3    H2 3414   4.889   4.331   0.514
 1160TIP3   OH2 3415   5.243   4.555   0.698
 1160TIP3    H1 3416   5.283   4.559   0.788
 1160TIP3    H2 3417   5.304   4.614   0.648
 1161TIP3   OH2 3418   5.414   4.724   0.568
 1161TIP3    H1 3419   5.477   4.668   0.521
 1161TIP3    H2 3420   5.475   4.777   0.625
 1162TIP3   OH2 3421   6.217   3.074   0.662
 1162TIP3    H1 3422   6.129   3.069   0.620
 1162TIP3    H2 3423   6.249   2.981   0.648
 1163TIP3   OH2 3424   4.475   4.566   0.593
 1163TIP3    H1 3425   4.386   4.600   0.567
 1163TIP3    H2 3426   4.495   4.628   0.666
 1164TIP3   OH2 3427   4.716   4.557   0.451
 1164TIP3    H1 3428   4.627   4.571   0.489
 1164TIP3    H2 3429   4.701   4.584   0.358
 1165TIP3   OH2 3430   5.126   4.573   0.255
 1165TIP3    H1 3431   5.058   4.585   0.185
 1165TIP3    H2 3432   5.135   4.664   0.289
 1166TIP3   OH2 3433   5.385   4.517   0.329
 1166TIP3    H1 3434   5.289   4.525   0.312
 1166TIP3    H2 3435   5.418   4.578   0.261
 1167TIP3   OH2 3436   4.386   4.363   0.329
 1167TIP3    H1 3437   4.413   4.338   0.420
 1167TIP3    H2 3438   4.460   4.322   0.279
 1168TIP3   OH2 3439   4.576   4.225   0.191
 1168TIP3    H1 3440   4.588   4.144   0.247
 1168TIP3    H2 3441   4.665   4.266   0.205
 1169TIP3   OH2 3442   4.822   4.316   0.241
 1169TIP3    H1 3443   4.850   4.332   0.148
 1169TIP3    H2 3444   4.904   4.335   0.291
 1170TIP3   OH2 3445   5.420   2.985   0.271
 1170TIP3    H1 3446   5.384   2.914   0.328
 1170TIP3    H2 3447   5.500   2.943   0.232
 1171TIP3   OH2 3448   5.957   2.865   0.156
 1171TIP3    H1 3449   6.011   2.942   0.123
 1171TIP3    H2 3450   5.869   2.903   0.160
 1172TIP3   OH2 3451   4.673   2.695   0.293
 1172TIP3    H1 3452   4.580   2.663   0.295
 1172TIP3    H2 3453   4.720   2.609   0.288
 1173TIP3   OH2 3454   4.461   2.558  -0.052
 1173TIP3    H1 3455   4.501   2.613  -0.124
 1173TIP3    H2 3456   4.431   2.628   0.009
 1174TIP3   OH2 3457   5.121   2.724   0.180
 1174TIP3    H1 3458   5.177   2.779   0.122
 1174TIP3    H2 3459   5.138   2.764   0.267
 1175TIP3   OH2 3460   5.658   2.879   0.159
 1175TIP3    H1 3461   5.673   2.838   0.072
 1175TIP3    H2 3462   5.650   2.799   0.216
 1176TIP3   OH2 3463   4.580   2.707  -0.246
 1176TIP3    H1 3464   4.579   2.674  -0.337
 1176TIP3    H2 3465   4.659   2.765  -0.245
 1177TIP3   OH2 3466   5.069   2.874  -0.137
 1177TIP3    H1 3467   5.143   2.830  -0.093
 1177TIP3    H2 3468   5.108   2.963  -0.147
 1178TIP3   OH2 3469   4.881   2.977   1.184
 1178TIP3    H1 3470   4.846   2.907   1.242
 1178TIP3    H2 3471   4.975   2.978   1.212
 1179TIP3   OH2 3472   5.130   2.976   1.304
 1179TIP3    H1 3473   5.216   2.949   1.267
 1179TIP3    H2 3474   5.116   2.907   1.372
 1180TIP3   OH2 3475   5.957   3.039   1.090
 1180TIP3    H1 3476   5.976   3.010   1.182
 1180TIP3    H2 3477   6.046   3.034   1.049
 1181TIP3   OH2 3478   5.889   4.583   0.597
 1181TIP3    H1 3479   5.810   4.558   0.547
 1181TIP3    H2 3480   5.880   4.680   0.599
 1182TIP3   OH2 3481   6.720   3.294   0.254
 1182TIP3    H1 3482   6.668   3.288   0.172
 1182TIP3    H2 3483   6.657   3.341   0.312
 1183TIP3   OH2 3484   6.607   3.955   0.386
 1183TIP3    H1 3485   6.624   4.042   0.431
 1183TIP3    H2 3486   6.511   3.965   0.371
 1184TIP3   OH2 3487   6.189   4.083   0.273
 1184TIP3    H1 3488   6.257   4.134   0.223
 1184TIP3    H2 3489   6.247   4.019   0.321
 1185TIP3   OH2 3490   6.411   4.248   0.386
 1185TIP3    H1 3491   6.447   4.335   0.413
 1185TIP3    H2 3492   6.385   4.267   0.293
 1186TIP3   OH2 3493   7.330   3.259   0.268
 1186TIP3    H1 3494   7.396   3.192   0.293
 1186TIP3    H2 3495   7.246   3.217   0.298
 1187TIP3   OH2 3496   7.290   3.913   0.409
 1187TIP3    H1 3497   7.279   3.823   0.449
 1187TIP3    H2 3498   7.386   3.915   0.400
 1188TIP3   OH2 3499   6.570   3.673   0.299
 1188TIP3    H1 3500   6.570   3.750   0.359
 1188TIP3    H2 3501   6.555   3.598   0.360
 1189TIP3   OH2 3502   6.643   4.176   0.537
 1189TIP3    H1 3503   6.692   4.243   0.588
 1189TIP3    H2 3504   6.552   4.211   0.537
 1190TIP3   OH2 3505   6.334   3.904   0.430
 1190TIP3    H1 3506   6.358   3.893   0.524
 1190TIP3    H2 3507   6.257   3.844   0.422
 1191TIP3   OH2 3508   7.051   4.026   0.454
 1191TIP3    H1 3509   6.979   3.966   0.424
 1191TIP3    H2 3510   7.130   3.970   0.437
 1192TIP3   OH2 3511   6.538   3.423   0.433
 1192TIP3    H1 3512   6.440   3.428   0.439
 1192TIP3    H2 3513   6.558   3.360   0.503
 1193TIP3   OH2 3514   6.232   4.782   0.512
 1193TIP3    H1 3515   6.325   4.803   0.538
 1193TIP3    H2 3516   6.237   4.687   0.496
 1194TIP3   OH2 3517   6.725   4.762   0.561
 1194TIP3    H1 3518   6.807   4.736   0.605
 1194TIP3    H2 3519   6.712   4.689   0.498
 1195TIP3   OH2 3520   6.381   4.215   0.692
 1195TIP3    H1 3521   6.404   4.122   0.679
 1195TIP3    H2 3522   6.304   4.223   0.631
 1196TIP3   OH2 3523   6.994   4.296   0.444
 1196TIP3    H1 3524   6.928   4.301   0.373
 1196TIP3    H2 3525   7.005   4.199   0.455
 1197TIP3   OH2 3526   6.500   3.933   0.676
 1197TIP3    H1 3527   6.585   3.916   0.633
 1197TIP3    H2 3528   6.528   3.977   0.758
 1198TIP3   OH2 3529   6.859   3.865   0.351
 1198TIP3    H1 3530   6.770   3.896   0.380
 1198TIP3    H2 3531   6.848   3.879   0.255
 1199TIP3   OH2 3532   7.338   4.253   0.539
 1199TIP3    H1 3533   7.312   4.214   0.452
 1199TIP3    H2 3534   7.350   4.173   0.593
 1200TIP3   OH2 3535   6.958   3.621   0.459
 1200TIP3    H1 3536   6.961   3.539   0.405
 1200TIP3    H2 3537   6.927   3.688   0.395
 1201TIP3   OH2 3538   6.969   3.400   0.291
 1201TIP3    H1 3539   7.004   3.440   0.209
 1201TIP3    H2 3540   6.880   3.367   0.265
 1202TIP3   OH2 3541   7.583   3.883   0.571
 1202TIP3    H1 3542   7.571   3.819   0.497
 1202TIP3    H2 3543   7.645   3.948   0.531
 1203TIP3   OH2 3544   6.843   3.727   0.687
 1203TIP3    H1 3545   6.770   3.664   0.702
 1203TIP3    H2 3546   6.875   3.699   0.598
 1204TIP3   OH2 3547   7.086   3.157   0.346
 1204TIP3    H1 3548   7.038   3.240   0.325
 1204TIP3    H2 3549   7.024   3.088   0.316
 1205TIP3   OH2 3550   7.214   3.680   0.540
 1205TIP3    H1 3551   7.201   3.668   0.636
 1205TIP3    H2 3552   7.126   3.652   0.508
 1206TIP3   OH2 3553   7.472   3.673   0.417
 1206TIP3    H1 3554   7.387   3.638   0.448
 1206TIP3    H2 3555   7.535   3.605   0.448
 1207TIP3   OH2 3556   7.677   3.541   0.555
 1207TIP3    H1 3557   7.708   3.455   0.587
 1207TIP3    H2 3558   7.675   3.595   0.636
 1208TIP3   OH2 3559   6.676   3.511   0.739
 1208TIP3    H1 3560   6.681   3.421   0.702
 1208TIP3    H2 3561   6.712   3.496   0.829
 1209TIP3   OH2 3562   7.181   3.172   0.600
 1209TIP3    H1 3563   7.251   3.106   0.585
 1209TIP3    H2 3564   7.140   3.172   0.510
 1210TIP3   OH2 3565   7.255   3.395   0.746
 1210TIP3    H1 3566   7.232   3.325   0.681
 1210TIP3    H2 3567   7.179   3.456   0.737
 1211TIP3   OH2 3568   6.408   3.559   0.704
 1211TIP3    H1 3569   6.506   3.557   0.707
 1211TIP3    H2 3570   6.387   3.473   0.746
 1212TIP3   OH2 3571   6.384   3.107   0.434
 1212TIP3    H1 3572   6.333   3.108   0.517
 1212TIP3    H2 3573   6.319   3.149   0.374
 1213TIP3   OH2 3574   6.424   4.501   0.509
 1213TIP3    H1 3575   6.328   4.495   0.494
 1213TIP3    H2 3576   6.429   4.534   0.599
 1214TIP3   OH2 3577   6.675   3.234   0.674
 1214TIP3    H1 3578   6.642   3.163   0.732
 1214TIP3    H2 3579   6.769   3.236   0.698
 1215TIP3   OH2 3580   6.928   3.234   0.789
 1215TIP3    H1 3581   7.011   3.213   0.742
 1215TIP3    H2 3582   6.920   3.157   0.850
 1216TIP3   OH2 3583   0.434   4.292   1.468
 1216TIP3    H1 3584   0.459   4.379   1.506
 1216TIP3    H2 3585   0.448   4.309   1.373
 1217TIP3   OH2 3586  -0.108   4.493   1.504
 1217TIP3    H1 3587  -0.091   4.398   1.523
 1217TIP3    H2 3588  -0.049   4.507   1.428
 1218TIP3   OH2 3589   0.506   4.507   1.635
 1218TIP3    H1 3590   0.420   4.548   1.612
 1218TIP3    H2 3591   0.515   4.535   1.727
 1219TIP3   OH2 3592   0.049   4.246   1.258
 1219TIP3    H1 3593   0.085   4.178   1.319
 1219TIP3    H2 3594   0.096   4.327   1.288
 1220TIP3   OH2 3595   0.222   4.215   1.636
 1220TIP3    H1 3596   0.136   4.227   1.592
 1220TIP3    H2 3597   0.284   4.234   1.563
 1221TIP3   OH2 3598   0.154   5.244   1.605
 1221TIP3    H1 3599   0.167   5.156   1.563
 1221TIP3    H2 3600   0.122   5.297   1.531
 1222TIP3   OH2 3601   0.356   4.839   1.477
 1222TIP3    H1 3602   0.281   4.903   1.479
 1222TIP3    H2 3603   0.389   4.856   1.385
 1223TIP3   OH2 3604   0.049   4.726   1.765
 1223TIP3    H1 3605   0.045   4.818   1.798
 1223TIP3    H2 3606  -0.042   4.718   1.728
 1224TIP3   OH2 3607   0.419   5.531   1.673
 1224TIP3    H1 3608   0.417   5.434   1.683
 1224TIP3    H2 3609   0.330   5.552   1.707
 1225TIP3   OH2 3610   0.274   4.681   1.937
 1225TIP3    H1 3611   0.195   4.693   1.881
 1225TIP3    H2 3612   0.294   4.587   1.921
 1226TIP3   OH2 3613  -0.182   4.040   1.942
 1226TIP3    H1 3614  -0.117   4.001   2.004
 1226TIP3    H2 3615  -0.266   4.000   1.970
 1227TIP3   OH2 3616   0.055   4.457   1.859
 1227TIP3    H1 3617   0.003   4.458   1.943
 1227TIP3    H2 3618   0.033   4.544   1.820
 1228TIP3   OH2 3619  -0.216   4.686   2.103
 1228TIP3    H1 3620  -0.246   4.609   2.156
 1228TIP3    H2 3621  -0.120   4.687   2.124
 1229TIP3   OH2 3622  -0.203   4.679   1.679
 1229TIP3    H1 3623  -0.182   4.600   1.626
 1229TIP3    H2 3624  -0.262   4.641   1.748
 1230TIP3   OH2 3625  -0.100   4.223   1.551
 1230TIP3    H1 3626  -0.141   4.240   1.638
 1230TIP3    H2 3627  -0.141   4.140   1.525
 1231TIP3   OH2 3628  -0.479   4.343   1.798
 1231TIP3    H1 3629  -0.498   4.414   1.733
 1231TIP3    H2 3630  -0.392   4.377   1.830
 1232TIP3   OH2 3631   0.149   5.014   1.462
 1232TIP3    H1 3632   0.135   5.056   1.375
 1232TIP3    H2 3633   0.058   4.994   1.490
 1233TIP3   OH2 3634  -0.451   4.781   2.202
 1233TIP3    H1 3635  -0.507   4.754   2.126
 1233TIP3    H2 3636  -0.363   4.776   2.160
 1234TIP3   OH2 3637   0.405   5.252   1.704
 1234TIP3    H1 3638   0.308   5.265   1.695
 1234TIP3    H2 3639   0.427   5.225   1.611
 1235TIP3   OH2 3640  -0.165   4.278   1.810
 1235TIP3    H1 3641  -0.074   4.305   1.834
 1235TIP3    H2 3642  -0.175   4.193   1.859
 1236TIP3   OH2 3643  -0.291   4.529   1.892
 1236TIP3    H1 3644  -0.271   4.592   1.964
 1236TIP3    H2 3645  -0.229   4.456   1.911
 1237TIP3   OH2 3646   0.321   4.414   1.856
 1237TIP3    H1 3647   0.223   4.414   1.864
 1237TIP3    H2 3648   0.329   4.366   1.772
 1238TIP3   OH2 3649  -0.177   5.541   2.104
 1238TIP3    H1 3650  -0.162   5.446   2.094
 1238TIP3    H2 3651  -0.119   5.580   2.036
 1239TIP3   OH2 3652  -0.016   5.057   1.730
 1239TIP3    H1 3653   0.031   5.141   1.712
 1239TIP3    H2 3654  -0.110   5.085   1.719
 1240TIP3   OH2 3655  -0.196   5.003   2.164
 1240TIP3    H1 3656  -0.127   4.979   2.100
 1240TIP3    H2 3657  -0.188   4.933   2.230
 1241TIP3   OH2 3658  -0.603   4.145   1.926
 1241TIP3    H1 3659  -0.549   4.215   1.882
 1241TIP3    H2 3660  -0.691   4.187   1.928
 1242TIP3   OH2 3661   0.041   4.696   2.202
 1242TIP3    H1 3662   0.087   4.611   2.199
 1242TIP3    H2 3663   0.102   4.753   2.153
 1243TIP3   OH2 3664   0.078   4.951   1.957
 1243TIP3    H1 3665   0.025   4.996   1.888
 1243TIP3    H2 3666   0.167   4.965   1.918
 1244TIP3   OH2 3667  -0.441   3.950   2.019
 1244TIP3    H1 3668  -0.494   4.026   1.984
 1244TIP3    H2 3669  -0.498   3.877   1.991
 1245TIP3   OH2 3670  -0.316   4.464   2.234
 1245TIP3    H1 3671  -0.312   4.457   2.331
 1245TIP3    H2 3672  -0.403   4.426   2.215
 1246TIP3   OH2 3673  -0.079   4.419   2.090
 1246TIP3    H1 3674  -0.156   4.411   2.150
 1246TIP3    H2 3675  -0.006   4.383   2.144
 1247TIP3   OH2 3676   0.149   4.355   2.239
 1247TIP3    H1 3677   0.159   4.259   2.253
 1247TIP3    H2 3678   0.142   4.389   2.331
 1248TIP3   OH2 3679  -0.350   3.975   2.275
 1248TIP3    H1 3680  -0.282   3.905   2.267
 1248TIP3    H2 3681  -0.392   3.968   2.187
 1249TIP3   OH2 3682  -0.275   4.187   2.422
 1249TIP3    H1 3683  -0.292   4.109   2.364
 1249TIP3    H2 3684  -0.364   4.228   2.424
 1250TIP3   OH2 3685   0.273   5.353   2.001
 1250TIP3    H1 3686   0.201   5.365   2.066
 1250TIP3    H2 3687   0.316   5.441   2.004
 1251TIP3   OH2 3688   0.313   5.017   1.832
 1251TIP3    H1 3689   0.383   4.949   1.820
 1251TIP3    H2 3690   0.345   5.090   1.776
 1252TIP3   OH2 3691   0.491   4.817   1.846
 1252TIP3    H1 3692   0.415   4.767   1.883
 1252TIP3    H2 3693   0.563   4.752   1.861
 1253TIP3   OH2 3694   0.179   4.461   1.374
 1253TIP3    H1 3695   0.258   4.494   1.325
 1253TIP3    H2 3696   0.195   4.506   1.459
 1254TIP3   OH2 3697   0.253   4.618   1.596
 1254TIP3    H1 3698   0.179   4.656   1.647
 1254TIP3    H2 3699   0.289   4.698   1.551
 1255TIP3   OH2 3700   0.569   4.348   1.985
 1255TIP3    H1 3701   0.481   4.392   1.987
 1255TIP3    H2 3702   0.549   4.277   1.921
 1256TIP3   OH2 3703   0.471   4.117   1.836
 1256TIP3    H1 3704   0.379   4.103   1.804
 1256TIP3    H2 3705   0.508   4.027   1.824
 1257TIP3   OH2 3706   0.138   4.018   1.386
 1257TIP3    H1 3707   0.217   4.024   1.328
 1257TIP3    H2 3708   0.088   3.949   1.340
 1258TIP3   OH2 3709   0.320   4.036   1.175
 1258TIP3    H1 3710   0.294   4.013   1.082
 1258TIP3    H2 3711   0.353   4.126   1.155
 1259TIP3   OH2 3712   0.204   4.085   2.268
 1259TIP3    H1 3713   0.224   4.051   2.359
 1259TIP3    H2 3714   0.292   4.074   2.225
 1260TIP3   OH2 3715   0.162   5.570   1.746
 1260TIP3    H1 3716   0.074   5.531   1.761
 1260TIP3    H2 3717   0.140   5.666   1.756
 1261TIP3   OH2 3718   1.410   4.995   0.533
 1261TIP3    H1 3719   1.386   5.088   0.510
 1261TIP3    H2 3720   1.332   4.949   0.502
 1262TIP3   OH2 3721   1.410   5.007   0.912
 1262TIP3    H1 3722   1.446   4.984   1.000
 1262TIP3    H2 3723   1.368   4.924   0.885
 1263TIP3   OH2 3724   0.717   4.908   1.277
 1263TIP3    H1 3725   0.752   4.839   1.337
 1263TIP3    H2 3726   0.799   4.948   1.243
 1264TIP3   OH2 3727   1.653   5.309   0.595
 1264TIP3    H1 3728   1.643   5.242   0.665
 1264TIP3    H2 3729   1.682   5.386   0.647
 1265TIP3   OH2 3730   0.694   5.297   1.073
 1265TIP3    H1 3731   0.689   5.200   1.058
 1265TIP3    H2 3732   0.788   5.310   1.050
 1266TIP3   OH2 3733   0.559   4.802   0.933
 1266TIP3    H1 3734   0.565   4.725   0.993
 1266TIP3    H2 3735   0.506   4.766   0.861
 1267TIP3   OH2 3736   1.349   5.745   0.665
 1267TIP3    H1 3737   1.419   5.706   0.608
 1267TIP3    H2 3738   1.362   5.695   0.747
 1268TIP3   OH2 3739   1.217   5.227   0.959
 1268TIP3    H1 3740   1.262   5.150   0.919
 1268TIP3    H2 3741   1.297   5.279   0.983
 1269TIP3   OH2 3742   2.222   4.552   0.953
 1269TIP3    H1 3743   2.252   4.636   0.996
 1269TIP3    H2 3744   2.248   4.568   0.861
 1270TIP3   OH2 3745   1.620   4.733   0.986
 1270TIP3    H1 3746   1.663   4.647   1.006
 1270TIP3    H2 3747   1.588   4.716   0.895
 1271TIP3   OH2 3748   0.974   4.396   0.958
 1271TIP3    H1 3749   0.948   4.469   0.897
 1271TIP3    H2 3750   0.927   4.321   0.915
 1272TIP3   OH2 3751   1.654   4.487   0.572
 1272TIP3    H1 3752   1.725   4.472   0.639
 1272TIP3    H2 3753   1.708   4.520   0.497
 1273TIP3   OH2 3754   0.592   4.580   1.085
 1273TIP3    H1 3755   0.681   4.566   1.123
 1273TIP3    H2 3756   0.599   4.522   1.005
 1274TIP3   OH2 3757   1.035   4.802   0.852
 1274TIP3    H1 3758   1.128   4.774   0.867
 1274TIP3    H2 3759   0.993   4.717   0.827
 1275TIP3   OH2 3760   2.296   4.761   1.124
 1275TIP3    H1 3761   2.211   4.807   1.107
 1275TIP3    H2 3762   2.318   4.795   1.212
 1276TIP3   OH2 3763   0.954   4.377   1.393
 1276TIP3    H1 3764   0.901   4.412   1.319
 1276TIP3    H2 3765   0.898   4.402   1.469
 1277TIP3   OH2 3766   1.316   5.214   0.398
 1277TIP3    H1 3767   1.291   5.204   0.306
 1277TIP3    H2 3768   1.322   5.310   0.407
 1278TIP3   OH2 3769   1.066   5.151   1.182
 1278TIP3    H1 3770   1.005   5.220   1.217
 1278TIP3    H2 3771   1.103   5.197   1.104
 1279TIP3   OH2 3772   1.858   4.493   0.750
 1279TIP3    H1 3773   1.849   4.443   0.832
 1279TIP3    H2 3774   1.912   4.569   0.778
 1280TIP3   OH2 3775   0.835   4.488   1.174
 1280TIP3    H1 3776   0.896   4.563   1.195
 1280TIP3    H2 3777   0.883   4.449   1.097
 1281TIP3   OH2 3778   0.901   5.344   1.290
 1281TIP3    H1 3779   0.875   5.430   1.250
 1281TIP3    H2 3780   0.819   5.324   1.340
 1282TIP3   OH2 3781   1.716   5.550   0.754
 1282TIP3    H1 3782   1.626   5.544   0.792
 1282TIP3    H2 3783   1.712   5.637   0.710
 1283TIP3   OH2 3784   2.016   4.450   1.119
 1283TIP3    H1 3785   1.929   4.479   1.087
 1283TIP3    H2 3786   2.077   4.483   1.049
 1284TIP3   OH2 3787   1.309   4.093   1.103
 1284TIP3    H1 3788   1.293   3.998   1.120
 1284TIP3    H2 3789   1.231   4.132   1.148
 1285TIP3   OH2 3790   1.508   5.628   0.474
 1285TIP3    H1 3791   1.553   5.551   0.433
 1285TIP3    H2 3792   1.529   5.700   0.413
 1286TIP3   OH2 3793   1.567   5.391   0.347
 1286TIP3    H1 3794   1.575   5.318   0.282
 1286TIP3    H2 3795   1.595   5.346   0.429
 1287TIP3   OH2 3796   1.948   5.465   1.099
 1287TIP3    H1 3797   1.936   5.388   1.040
 1287TIP3    H2 3798   1.930   5.540   1.039
 1288TIP3   OH2 3799   1.242   4.853   0.341
 1288TIP3    H1 3800   1.158   4.892   0.313
 1288TIP3    H2 3801   1.296   4.870   0.261
 1289TIP3   OH2 3802   1.145   4.592   0.195
 1289TIP3    H1 3803   1.203   4.644   0.253
 1289TIP3    H2 3804   1.210   4.552   0.134
 1290TIP3   OH2 3805   2.143   5.104   0.945
 1290TIP3    H1 3806   2.059   5.155   0.949
 1290TIP3    H2 3807   2.174   5.127   0.855
 1291TIP3   OH2 3808   1.598   4.946   0.343
 1291TIP3    H1 3809   1.543   4.966   0.423
 1291TIP3    H2 3810   1.682   4.917   0.385
 1292TIP3   OH2 3811   1.822   4.979   1.245
 1292TIP3    H1 3812   1.820   5.062   1.296
 1292TIP3    H2 3813   1.736   4.984   1.199
 1293TIP3   OH2 3814   0.805   4.924   0.753
 1293TIP3    H1 3815   0.793   4.873   0.672
 1293TIP3    H2 3816   0.890   4.889   0.787
 1294TIP3   OH2 3817   0.940   5.296   0.937
 1294TIP3    H1 3818   0.929   5.358   0.861
 1294TIP3    H2 3819   1.036   5.281   0.935
 1295TIP3   OH2 3820   0.966   4.906   1.107
 1295TIP3    H1 3821   0.986   4.891   1.012
 1295TIP3    H2 3822   0.999   4.998   1.120
 1296TIP3   OH2 3823   1.472   5.554   0.876
 1296TIP3    H1 3824   1.473   5.629   0.937
 1296TIP3    H2 3825   1.464   5.477   0.936
 1297TIP3   OH2 3826   1.101   5.467   1.428
 1297TIP3    H1 3827   1.039   5.531   1.470
 1297TIP3    H2 3828   1.037   5.414   1.377
 1298TIP3   OH2 3829   1.452   4.830   0.147
 1298TIP3    H1 3830   1.505   4.868   0.222
 1298TIP3    H2 3831   1.465   4.899   0.080
 1299TIP3   OH2 3832   0.855   5.016   1.540
 1299TIP3    H1 3833   0.859   5.107   1.575
 1299TIP3    H2 3834   0.759   5.001   1.538
 1300TIP3   OH2 3835   0.898   5.636   1.512
 1300TIP3    H1 3836   0.863   5.638   1.421
 1300TIP3    H2 3837   0.818   5.611   1.564
 1301TIP3   OH2 3838   1.947   4.043   0.202
 1301TIP3    H1 3839   1.864   4.060   0.252
 1301TIP3    H2 3840   1.955   4.126   0.150
 1302TIP3   OH2 3841   0.469   5.158   1.457
 1302TIP3    H1 3842   0.446   5.130   1.367
 1302TIP3    H2 3843   0.513   5.077   1.492
 1303TIP3   OH2 3844   2.186   5.812   1.148
 1303TIP3    H1 3845   2.185   5.716   1.164
 1303TIP3    H2 3846   2.102   5.838   1.194
 1304TIP3   OH2 3847   1.298   5.592   1.285
 1304TIP3    H1 3848   1.292   5.686   1.315
 1304TIP3    H2 3849   1.223   5.553   1.335
 1305TIP3   OH2 3850   2.074   4.940   1.423
 1305TIP3    H1 3851   1.993   4.950   1.372
 1305TIP3    H2 3852   2.091   4.844   1.413
 1306TIP3   OH2 3853   0.680   5.341   1.454
 1306TIP3    H1 3854   0.730   5.321   1.536
 1306TIP3    H2 3855   0.603   5.281   1.461
 1307TIP3   OH2 3856   1.072   4.171   1.233
 1307TIP3    H1 3857   0.984   4.142   1.202
 1307TIP3    H2 3858   1.046   4.253   1.280
 1308TIP3   OH2 3859   1.607   4.286   1.426
 1308TIP3    H1 3860   1.677   4.258   1.489
 1308TIP3    H2 3861   1.525   4.266   1.474
 1309TIP3   OH2 3862   1.840   4.715   1.341
 1309TIP3    H1 3863   1.792   4.714   1.427
 1309TIP3    H2 3864   1.819   4.803   1.306
 1310TIP3   OH2 3865   1.216   4.280   0.210
 1310TIP3    H1 3866   1.203   4.243   0.300
 1310TIP3    H2 3867   1.186   4.205   0.154
 1311TIP3   OH2 3868   1.007   4.685   1.252
 1311TIP3    H1 3869   0.955   4.708   1.331
 1311TIP3    H2 3870   0.995   4.767   1.197
 1312TIP3   OH2 3871   0.890   4.581   0.777
 1312TIP3    H1 3872   0.795   4.561   0.793
 1312TIP3    H2 3873   0.899   4.548   0.684
 1313TIP3   OH2 3874   1.381   4.666   0.492
 1313TIP3    H1 3875   1.332   4.738   0.445
 1313TIP3    H2 3876   1.438   4.632   0.420
 1314TIP3   OH2 3877   1.553   4.935   1.575
 1314TIP3    H1 3878   1.531   4.862   1.637
 1314TIP3    H2 3879   1.647   4.949   1.597
 1315TIP3   OH2 3880   1.534   4.685   0.729
 1315TIP3    H1 3881   1.473   4.714   0.658
 1315TIP3    H2 3882   1.570   4.605   0.685
 1316TIP3   OH2 3883   0.825   4.720   1.457
 1316TIP3    H1 3884   0.853   4.785   1.523
 1316TIP3    H2 3885   0.811   4.640   1.511
 1317TIP3   OH2 3886   0.417   4.260   1.055
 1317TIP3    H1 3887   0.492   4.286   1.114
 1317TIP3    H2 3888   0.463   4.239   0.973
 1318TIP3   OH2 3889   1.543   4.932   1.150
 1318TIP3    H1 3890   1.577   4.860   1.091
 1318TIP3    H2 3891   1.513   4.878   1.226
 1319TIP3   OH2 3892   1.224   4.399   0.827
 1319TIP3    H1 3893   1.141   4.395   0.879
 1319TIP3    H2 3894   1.291   4.391   0.897
 1320TIP3   OH2 3895   0.662   4.434   0.866
 1320TIP3    H1 3896   0.594   4.448   0.795
 1320TIP3    H2 3897   0.708   4.353   0.836
 1321TIP3   OH2 3898   0.934   4.485   0.528
 1321TIP3    H1 3899   1.032   4.473   0.531
 1321TIP3    H2 3900   0.913   4.455   0.437
 1322TIP3   OH2 3901   1.706   4.471   1.029
 1322TIP3    H1 3902   1.672   4.485   1.121
 1322TIP3    H2 3903   1.638   4.411   0.994
 1323TIP3   OH2 3904   1.881   6.160   1.247
 1323TIP3    H1 3905   1.877   6.186   1.153
 1323TIP3    H2 3906   1.958   6.211   1.278
 1324TIP3   OH2 3907   0.836   5.265   1.672
 1324TIP3    H1 3908   0.916   5.300   1.716
 1324TIP3    H2 3909   0.771   5.272   1.745
 1325TIP3   OH2 3910   1.299   4.727   0.921
 1325TIP3    H1 3911   1.372   4.686   0.871
 1325TIP3    H2 3912   1.304   4.681   1.006
 1326TIP3   OH2 3913   0.830   4.213   0.817
 1326TIP3    H1 3914   0.789   4.134   0.857
 1326TIP3    H2 3915   0.861   4.176   0.733
 1327TIP3   OH2 3916   1.274   4.622   1.214
 1327TIP3    H1 3917   1.184   4.658   1.226
 1327TIP3    H2 3918   1.331   4.686   1.262
 1328TIP3   OH2 3919   1.909   5.248   0.932
 1328TIP3    H1 3920   1.934   5.299   0.852
 1328TIP3    H2 3921   1.824   5.207   0.905
 1329TIP3   OH2 3922   1.490   4.328   0.170
 1329TIP3    H1 3923   1.393   4.314   0.167
 1329TIP3    H2 3924   1.496   4.424   0.183
 1330TIP3   OH2 3925   1.410   5.330   1.303
 1330TIP3    H1 3926   1.438   5.315   1.393
 1330TIP3    H2 3927   1.371   5.419   1.307
 1331TIP3   OH2 3928   1.537   4.584   0.274
 1331TIP3    H1 3929   1.634   4.579   0.291
 1331TIP3    H2 3930   1.531   4.658   0.212
 1332TIP3   OH2 3931   0.709   5.042   0.986
 1332TIP3    H1 3932   0.745   5.012   0.900
 1332TIP3    H2 3933   0.690   4.955   1.026
 1333TIP3   OH2 3934   0.586   4.955   1.599
 1333TIP3    H1 3935   0.604   4.938   1.693
 1333TIP3    H2 3936   0.518   4.888   1.580
 1334TIP3   OH2 3937   1.312   5.069   1.617
 1334TIP3    H1 3938   1.252   5.015   1.563
 1334TIP3    H2 3939   1.399   5.035   1.587
 1335TIP3   OH2 3940   1.569   5.589   1.201
 1335TIP3    H1 3941   1.473   5.587   1.216
 1335TIP3    H2 3942   1.598   5.643   1.278
 1336TIP3   OH2 3943   1.977   4.663   0.114
 1336TIP3    H1 3944   1.918   4.620   0.048
 1336TIP3    H2 3945   1.978   4.753   0.074
 1337TIP3   OH2 3946   2.198   5.522   1.188
 1337TIP3    H1 3947   2.100   5.515   1.180
 1337TIP3    H2 3948   2.225   5.492   1.098
 1338TIP3   OH2 3949   1.675   5.113   0.845
 1338TIP3    H1 3950   1.582   5.087   0.862
 1338TIP3    H2 3951   1.709   5.030   0.805
 1339TIP3   OH2 3952   1.072   5.691   1.109
 1339TIP3    H1 3953   1.086   5.719   1.017
 1339TIP3    H2 3954   1.160   5.658   1.135
 1340TIP3   OH2 3955   1.468   5.321   1.035
 1340TIP3    H1 3956   1.452   5.319   1.132
 1340TIP3    H2 3957   1.547   5.266   1.028
 1341TIP3   OH2 3958   1.714   5.845   1.089
 1341TIP3    H1 3959   1.631   5.792   1.082
 1341TIP3    H2 3960   1.699   5.910   1.017
 1342TIP3   OH2 3961   0.781   4.463   1.598
 1342TIP3    H1 3962   0.684   4.481   1.602
 1342TIP3    H2 3963   0.785   4.384   1.654
 1343TIP3   OH2 3964   1.620   5.171   0.180
 1343TIP3    H1 3965   1.607   5.094   0.239
 1343TIP3    H2 3966   1.710   5.154   0.147
 1344TIP3   OH2 3967   0.558   5.531   1.286
 1344TIP3    H1 3968   0.570   5.449   1.235
 1344TIP3    H2 3969   0.617   5.510   1.362
 1345TIP3   OH2 3970   1.632   4.526   1.288
 1345TIP3    H1 3971   1.715   4.564   1.322
 1345TIP3    H2 3972   1.622   4.444   1.342
 1346TIP3   OH2 3973   1.514   4.274   0.451
 1346TIP3    H1 3974   1.503   4.295   0.356
 1346TIP3    H2 3975   1.555   4.356   0.485
 1347TIP3   OH2 3976   1.206   4.462   0.560
 1347TIP3    H1 3977   1.272   4.532   0.542
 1347TIP3    H2 3978   1.217   4.451   0.658
 1348TIP3   OH2 3979   1.471   4.770   1.358
 1348TIP3    H1 3980   1.497   4.823   1.436
 1348TIP3    H2 3981   1.526   4.691   1.366
 1349TIP3   OH2 3982   1.359   4.179   0.664
 1349TIP3    H1 3983   1.352   4.258   0.721
 1349TIP3    H2 3984   1.418   4.213   0.593
 1350TIP3   OH2 3985   0.912   4.138   0.367
 1350TIP3    H1 3986   0.869   4.223   0.383
 1350TIP3    H2 3987   0.998   4.150   0.413
 1351TIP3   OH2 3988   2.108   4.674   1.344
 1351TIP3    H1 3989   2.009   4.671   1.348
 1351TIP3    H2 3990   2.122   4.632   1.258
 1352TIP3   OH2 3991   1.760   4.867   0.731
 1352TIP3    H1 3992   1.684   4.807   0.743
 1352TIP3    H2 3993   1.831   4.820   0.780
 1353TIP3   OH2 3994   1.737   5.816   0.680
 1353TIP3    H1 3995   1.700   5.869   0.605
 1353TIP3    H2 3996   1.832   5.835   0.665
 1354TIP3   OH2 3997   0.807   4.096   1.201
 1354TIP3    H1 3998   0.775   4.058   1.117
 1354TIP3    H2 3999   0.804   4.018   1.261
 1355TIP3   OH2 4000   0.510   5.829   1.670
 1355TIP3    H1 4001   0.595   5.844   1.716
 1355TIP3    H2 4002   0.511   5.729   1.670
 1356TIP3   OH2 4003   0.986   5.815   1.702
 1356TIP3    H1 4004   1.080   5.795   1.708
 1356TIP3    H2 4005   0.959   5.752   1.632
 1357TIP3   OH2 4006   1.621   5.725   1.436
 1357TIP3    H1 4007   1.615   5.654   1.504
 1357TIP3    H2 4008   1.699   5.776   1.466
 1358TIP3   OH2 4009   0.633   5.258   1.862
 1358TIP3    H1 4010   0.651   5.162   1.863
 1358TIP3    H2 4011   0.546   5.260   1.815
 1359TIP3   OH2 4012   1.239   5.346   1.633
 1359TIP3    H1 4013   1.199   5.369   1.547
 1359TIP3    H2 4014   1.270   5.254   1.619
 1360TIP3   OH2 4015   1.732   5.357   1.238
 1360TIP3    H1 4016   1.808   5.401   1.195
 1360TIP3    H2 4017   1.663   5.424   1.223
 1361TIP3   OH2 4018   0.749   4.993   1.846
 1361TIP3    H1 4019   0.830   4.958   1.807
 1361TIP3    H2 4020   0.781   5.026   1.932
 1362TIP3   OH2 4021   1.089   4.875   1.503
 1362TIP3    H1 4022   1.012   4.936   1.506
 1362TIP3    H2 4023   1.139   4.911   1.425
 1363TIP3   OH2 4024   1.603   5.279   1.634
 1363TIP3    H1 4025   1.682   5.251   1.586
 1363TIP3    H2 4026   1.600   5.214   1.707
 1364TIP3   OH2 4027   1.209   4.666   1.627
 1364TIP3    H1 4028   1.212   4.589   1.565
 1364TIP3    H2 4029   1.168   4.735   1.570
 1365TIP3   OH2 4030   1.214   4.454   1.436
 1365TIP3    H1 4031   1.242   4.496   1.352
 1365TIP3    H2 4032   1.121   4.432   1.416
 1366TIP3   OH2 4033   1.239   4.990   1.314
 1366TIP3    H1 4034   1.323   5.001   1.267
 1366TIP3    H2 4035   1.181   5.052   1.266
 1367TIP3   OH2 4036   1.820   4.955   1.687
 1367TIP3    H1 4037   1.869   4.871   1.696
 1367TIP3    H2 4038   1.888   5.013   1.650
 1368TIP3   OH2 4039   1.861   5.209   1.423
 1368TIP3    H1 4040   1.804   5.264   1.365
 1368TIP3    H2 4041   1.949   5.229   1.385
 1369TIP3   OH2 4042   1.093   4.781   1.858
 1369TIP3    H1 4043   1.019   4.718   1.867
 1369TIP3    H2 4044   1.127   4.758   1.769
 1370TIP3   OH2 4045   1.345   4.218   1.508
 1370TIP3    H1 4046   1.297   4.299   1.479
 1370TIP3    H2 4047   1.278   4.148   1.491
 1371TIP3   OH2 4048   1.472   4.717   1.718
 1371TIP3    H1 4049   1.462   4.706   1.814
 1371TIP3    H2 4050   1.381   4.694   1.688
 1372TIP3   OH2 4051   1.710   4.671   1.573
 1372TIP3    H1 4052   1.635   4.671   1.635
 1372TIP3    H2 4053   1.785   4.641   1.630
 1373TIP3   OH2 4054   1.935   4.611   1.725
 1373TIP3    H1 4055   1.951   4.516   1.740
 1373TIP3    H2 4056   1.934   4.648   1.816
 1374TIP3   OH2 4057   0.923   4.568   1.904
 1374TIP3    H1 4058   0.930   4.477   1.871
 1374TIP3    H2 4059   0.959   4.556   1.994
 1375TIP3   OH2 4060   1.427   4.224   1.768
 1375TIP3    H1 4061   1.499   4.157   1.762
 1375TIP3    H2 4062   1.395   4.221   1.675
 1376TIP3   OH2 4063   1.503   4.440   1.922
 1376TIP3    H1 4064   1.484   4.371   1.855
 1376TIP3    H2 4065   1.426   4.500   1.912
 1377TIP3   OH2 4066   1.992   5.907   0.641
 1377TIP3    H1 4067   2.011   5.942   0.730
 1377TIP3    H2 4068   2.047   5.963   0.585
 1378TIP3   OH2 4069   2.012   5.933   0.920
 1378TIP3    H1 4070   1.969   5.845   0.918
 1378TIP3    H2 4071   2.088   5.913   0.976
 1379TIP3   OH2 4072   2.060   5.611   1.492
 1379TIP3    H1 4073   1.988   5.621   1.558
 1379TIP3    H2 4074   2.102   5.699   1.496
 1380TIP3   OH2 4075   1.882   5.118   0.106
 1380TIP3    H1 4076   1.949   5.184   0.077
 1380TIP3    H2 4077   1.926   5.081   0.186
 1381TIP3   OH2 4078   2.005   4.992   0.316
 1381TIP3    H1 4079   1.942   4.948   0.377
 1381TIP3    H2 4080   2.073   5.027   0.377
 1382TIP3   OH2 4081   2.060   5.386   0.745
 1382TIP3    H1 4082   2.115   5.318   0.700
 1382TIP3    H2 4083   2.054   5.456   0.678
 1383TIP3   OH2 4084   1.887   5.683   0.940
 1383TIP3    H1 4085   1.817   5.725   0.993
 1383TIP3    H2 4086   1.835   5.637   0.870
 1384TIP3   OH2 4087   1.945   4.891  -0.036
 1384TIP3    H1 4088   1.868   4.871  -0.090
 1384TIP3    H2 4089   1.917   4.973   0.010
 1385TIP3   OH2 4090   1.816   4.586  -0.086
 1385TIP3    H1 4091   1.746   4.638  -0.131
 1385TIP3    H2 4092   1.784   4.494  -0.096
 1386TIP3   OH2 4093   1.824   4.846   0.464
 1386TIP3    H1 4094   1.831   4.749   0.457
 1386TIP3    H2 4095   1.809   4.859   0.560
 1387TIP3   OH2 4096   0.454   4.892   1.231
 1387TIP3    H1 4097   0.444   4.897   1.134
 1387TIP3    H2 4098   0.551   4.902   1.240
 1388TIP3   OH2 4099   2.106   5.274   1.318
 1388TIP3    H1 4100   2.178   5.207   1.307
 1388TIP3    H2 4101   2.133   5.342   1.255
 1389TIP3   OH2 4102   2.289   5.075   1.327
 1389TIP3    H1 4103   2.215   5.025   1.368
 1389TIP3    H2 4104   2.363   5.012   1.344
 1390TIP3   OH2 4105   1.749   4.321  -0.081
 1390TIP3    H1 4106   1.837   4.286  -0.054
 1390TIP3    H2 4107   1.689   4.268  -0.027
 1391TIP3   OH2 4108   1.812   4.564   0.350
 1391TIP3    H1 4109   1.854   4.476   0.366
 1391TIP3    H2 4110   1.872   4.597   0.280
 1392TIP3   OH2 4111   1.973   4.736   0.850
 1392TIP3    H1 4112   2.059   4.761   0.808
 1392TIP3    H2 4113   1.989   4.774   0.939
 1393TIP3   OH2 4114   2.045   4.883   1.081
 1393TIP3    H1 4115   1.968   4.917   1.130
 1393TIP3    H2 4116   2.078   4.964   1.036
 1394TIP3   OH2 4117   0.650   4.600   1.888
 1394TIP3    H1 4118   0.748   4.601   1.884
 1394TIP3    H2 4119   0.634   4.514   1.931
 1395TIP3   OH2 4120   2.493   4.474   1.636
 1395TIP3    H1 4121   2.555   4.410   1.595
 1395TIP3    H2 4122   2.466   4.528   1.559
 1396TIP3   OH2 4123   1.922   4.316   0.392
 1396TIP3    H1 4124   1.970   4.299   0.476
 1396TIP3    H2 4125   1.862   4.238   0.390
 1397TIP3   OH2 4126   0.626   4.302   1.222
 1397TIP3    H1 4127   0.688   4.227   1.223
 1397TIP3    H2 4128   0.687   4.376   1.207
 1398TIP3   OH2 4129   0.418   4.575   1.294
 1398TIP3    H1 4130   0.473   4.565   1.214
 1398TIP3    H2 4131   0.435   4.668   1.314
 1399TIP3   OH2 4132   2.364   4.611   1.440
 1399TIP3    H1 4133   2.277   4.653   1.457
 1399TIP3    H2 4134   2.335   4.537   1.383
 1400TIP3   OH2 4135   2.010   4.250   0.010
 1400TIP3    H1 4136   2.079   4.190  -0.020
 1400TIP3    H2 4137   2.062   4.333   0.019
 1401TIP3   OH2 4138   0.633   4.165   1.608
 1401TIP3    H1 4139   0.574   4.155   1.684
 1401TIP3    H2 4140   0.569   4.200   1.542
 1402TIP3   OH2 4141   0.687   5.575   1.678
 1402TIP3    H1 4142   0.594   5.548   1.661
 1402TIP3    H2 4143   0.692   5.573   1.774
 1403TIP3   OH2 4144   0.847   5.609   1.236
 1403TIP3    H1 4145   0.778   5.635   1.171
 1403TIP3    H2 4146   0.928   5.642   1.190
 1404TIP3   OH2 4147   1.291   5.859   1.362
 1404TIP3    H1 4148   1.333   5.859   1.451
 1404TIP3    H2 4149   1.358   5.912   1.311
 1405TIP3   OH2 4150   1.469   6.016   1.225
 1405TIP3    H1 4151   1.539   5.966   1.181
 1405TIP3    H2 4152   1.523   6.074   1.285
 1406TIP3   OH2 4153   2.264   4.374   1.322
 1406TIP3    H1 4154   2.175   4.364   1.286
 1406TIP3    H2 4155   2.300   4.282   1.311
 1407TIP3   OH2 4156   1.212   5.889   0.896
 1407TIP3    H1 4157   1.117   5.878   0.874
 1407TIP3    H2 4158   1.210   5.969   0.953
 1408TIP3   OH2 4159   1.465   5.818   0.963
 1408TIP3    H1 4160   1.372   5.838   0.939
 1408TIP3    H2 4161   1.512   5.889   0.916
 1409TIP3   OH2 4162   1.661   6.001   0.872
 1409TIP3    H1 4163   1.649   6.088   0.826
 1409TIP3    H2 4164   1.689   5.944   0.798
 1410TIP3   OH2 4165   1.471   4.291   0.946
 1410TIP3    H1 4166   1.428   4.219   0.995
 1410TIP3    H2 4167   1.544   4.244   0.900
 1411TIP3   OH2 4168   1.989   4.174   0.847
 1411TIP3    H1 4169   2.027   4.224   0.770
 1411TIP3    H2 4170   1.894   4.191   0.837
 1412TIP3   OH2 4171   2.086   4.270   0.610
 1412TIP3    H1 4172   2.160   4.217   0.572
 1412TIP3    H2 4173   2.122   4.361   0.595
 1413TIP3   OH2 4174   0.713   3.999   0.955
 1413TIP3    H1 4175   0.627   3.954   0.952
 1413TIP3    H2 4176   0.773   3.920   0.951
 1414TIP3   OH2 4177   1.165   4.040   0.832
 1414TIP3    H1 4178   1.231   4.084   0.776
 1414TIP3    H2 4179   1.188   4.071   0.920
 1415TIP3   OH2 4180   1.705   4.178   0.820
 1415TIP3    H1 4181   1.708   4.137   0.732
 1415TIP3    H2 4182   1.694   4.099   0.878
 1416TIP3   OH2 4183   1.743   4.101   0.385
 1416TIP3    H1 4184   1.654   4.141   0.393
 1416TIP3    H2 4185   1.727   4.015   0.431
 1417TIP3   OH2 4186   1.158   4.208   0.472
 1417TIP3    H1 4187   1.211   4.164   0.541
 1417TIP3    H2 4188   1.172   4.302   0.500
 1418TIP3   OH2 4189   0.940   4.281   1.902
 1418TIP3    H1 4190   0.879   4.204   1.898
 1418TIP3    H2 4191   1.001   4.260   1.828
 1419TIP3   OH2 4192   1.216   4.246   1.962
 1419TIP3    H1 4193   1.277   4.264   1.887
 1419TIP3    H2 4194   1.269   4.175   2.006
 1420TIP3   OH2 4195   2.002   4.342   1.754
 1420TIP3    H1 4196   2.022   4.310   1.845
 1420TIP3    H2 4197   2.091   4.337   1.712
 1421TIP3   OH2 4198   1.939   5.890   1.248
 1421TIP3    H1 4199   1.860   5.860   1.198
 1421TIP3    H2 4200   1.920   5.986   1.253
 1422TIP3   OH2 4201   3.222   5.272   0.068
 1422TIP3    H1 4202   3.199   5.359   0.030
 1422TIP3    H2 4203   3.137   5.227   0.056
 1423TIP3   OH2 4204   3.200   5.271   0.406
 1423TIP3    H1 4205   3.240   5.240   0.489
 1423TIP3    H2 4206   3.168   5.188   0.368
 1424TIP3   OH2 4207   2.501   5.156   0.762
 1424TIP3    H1 4208   2.531   5.088   0.825
 1424TIP3    H2 4209   2.582   5.208   0.751
 1425TIP3   OH2 4210   3.462   5.559   0.068
 1425TIP3    H1 4211   3.438   5.490   0.132
 1425TIP3    H2 4212   3.482   5.634   0.127
 1426TIP3   OH2 4213   2.477   5.568   0.478
 1426TIP3    H1 4214   2.469   5.471   0.481
 1426TIP3    H2 4215   2.574   5.577   0.473
 1427TIP3   OH2 4216   2.183   4.770   0.265
 1427TIP3    H1 4217   2.136   4.853   0.283
 1427TIP3    H2 4218   2.111   4.717   0.227
 1428TIP3   OH2 4219   2.240   5.058   0.444
 1428TIP3    H1 4220   2.290   4.980   0.479
 1428TIP3    H2 4221   2.304   5.094   0.381
 1429TIP3   OH2 4222   3.061   5.976   0.122
 1429TIP3    H1 4223   3.129   5.991   0.054
 1429TIP3    H2 4224   3.111   5.982   0.205
 1430TIP3   OH2 4225   3.004   5.490   0.442
 1430TIP3    H1 4226   3.047   5.410   0.406
 1430TIP3    H2 4227   3.086   5.539   0.466
 1431TIP3   OH2 4228   4.016   4.806   0.438
 1431TIP3    H1 4229   4.047   4.890   0.477
 1431TIP3    H2 4230   4.062   4.807   0.351
 1432TIP3   OH2 4231   3.415   4.991   0.475
 1432TIP3    H1 4232   3.460   4.907   0.497
 1432TIP3    H2 4233   3.385   4.971   0.384
 1433TIP3   OH2 4234   2.755   4.651   0.439
 1433TIP3    H1 4235   2.738   4.723   0.375
 1433TIP3    H2 4236   2.708   4.577   0.396
 1434TIP3   OH2 4237   3.449   4.744   0.056
 1434TIP3    H1 4238   3.522   4.729   0.121
 1434TIP3    H2 4239   3.501   4.771  -0.022
 1435TIP3   OH2 4240   2.388   4.852   0.547
 1435TIP3    H1 4241   2.471   4.832   0.595
 1435TIP3    H2 4242   2.403   4.797   0.467
 1436TIP3   OH2 4243   2.828   5.050   0.344
 1436TIP3    H1 4244   2.922   5.025   0.356
 1436TIP3    H2 4245   2.790   4.966   0.311
 1437TIP3   OH2 4246   4.090   5.016   0.609
 1437TIP3    H1 4247   4.004   5.060   0.595
 1437TIP3    H2 4248   4.115   5.051   0.696
 1438TIP3   OH2 4249   2.751   4.634   0.874
 1438TIP3    H1 4250   2.691   4.670   0.805
 1438TIP3    H2 4251   2.698   4.652   0.954
 1439TIP3   OH2 4252   3.110   5.469  -0.082
 1439TIP3    H1 4253   3.058   5.468  -0.165
 1439TIP3    H2 4254   3.082   5.555  -0.046
 1440TIP3   OH2 4255   2.857   5.410   0.664
 1440TIP3    H1 4256   2.797   5.479   0.700
 1440TIP3    H2 4257   2.901   5.459   0.590
 1441TIP3   OH2 4258   3.651   4.750   0.236
 1441TIP3    H1 4259   3.653   4.694   0.315
 1441TIP3    H2 4260   3.705   4.826   0.265
 1442TIP3   OH2 4261   2.622   4.749   0.657
 1442TIP3    H1 4262   2.685   4.822   0.680
 1442TIP3    H2 4263   2.672   4.708   0.582
 1443TIP3   OH2 4264   2.688   5.607   0.765
 1443TIP3    H1 4265   2.662   5.694   0.729
 1443TIP3    H2 4266   2.609   5.589   0.821
 1444TIP3   OH2 4267   2.078   5.290   0.001
 1444TIP3    H1 4268   2.040   5.307  -0.089
 1444TIP3    H2 4269   2.093   5.382   0.032
 1445TIP3   OH2 4270   3.520   5.798   0.242
 1445TIP3    H1 4271   3.432   5.785   0.285
 1445TIP3    H2 4272   3.509   5.890   0.210
 1446TIP3   OH2 4273   3.809   4.715   0.603
 1446TIP3    H1 4274   3.722   4.742   0.568
 1446TIP3    H2 4275   3.871   4.745   0.533
 1447TIP3   OH2 4276   3.099   4.351   0.581
 1447TIP3    H1 4277   3.095   4.257   0.609
 1447TIP3    H2 4278   3.023   4.387   0.632
 1448TIP3   OH2 4279   3.745   5.720   0.589
 1448TIP3    H1 4280   3.733   5.641   0.531
 1448TIP3    H2 4281   3.732   5.793   0.526
 1449TIP3   OH2 4282   3.050   5.136  -0.111
 1449TIP3    H1 4283   2.973   5.194  -0.135
 1449TIP3    H2 4284   3.123   5.180  -0.158
 1450TIP3   OH2 4285   3.939   5.364   0.437
 1450TIP3    H1 4286   3.855   5.414   0.442
 1450TIP3    H2 4287   3.964   5.377   0.344
 1451TIP3   OH2 4288   3.338   5.137  -0.139
 1451TIP3    H1 4289   3.311   5.186  -0.058
 1451TIP3    H2 4290   3.434   5.152  -0.136
 1452TIP3   OH2 4291   3.618   5.236   0.732
 1452TIP3    H1 4292   3.615   5.319   0.784
 1452TIP3    H2 4293   3.531   5.240   0.687
 1453TIP3   OH2 4294   2.617   5.195   0.232
 1453TIP3    H1 4295   2.577   5.135   0.166
 1453TIP3    H2 4296   2.694   5.142   0.263
 1454TIP3   OH2 4297   2.746   5.606   0.380
 1454TIP3    H1 4298   2.725   5.571   0.291
 1454TIP3    H2 4299   2.835   5.568   0.396
 1455TIP3   OH2 4300   2.747   5.169   0.586
 1455TIP3    H1 4301   2.783   5.142   0.499
 1455TIP3    H2 4302   2.794   5.253   0.604
 1456TIP3   OH2 4303   3.281   5.803   0.362
 1456TIP3    H1 4304   3.265   5.884   0.414
 1456TIP3    H2 4305   3.263   5.731   0.426
 1457TIP3   OH2 4306   2.892   5.723   0.911
 1457TIP3    H1 4307   2.831   5.785   0.956
 1457TIP3    H2 4308   2.827   5.670   0.860
 1458TIP3   OH2 4309   2.647   5.279   1.016
 1458TIP3    H1 4310   2.650   5.368   1.057
 1458TIP3    H2 4311   2.552   5.259   1.026
 1459TIP3   OH2 4312   2.981   5.736  -0.049
 1459TIP3    H1 4313   3.029   5.788   0.017
 1459TIP3    H2 4314   2.895   5.782  -0.047
 1460TIP3   OH2 4315   2.685   5.889   0.998
 1460TIP3    H1 4316   2.650   5.892   0.907
 1460TIP3    H2 4317   2.604   5.868   1.050
 1461TIP3   OH2 4318   2.483   5.035   0.041
 1461TIP3    H1 4319   2.409   5.070  -0.013
 1461TIP3    H2 4320   2.457   4.943   0.051
 1462TIP3   OH2 4321   2.263   5.423   0.945
 1462TIP3    H1 4322   2.196   5.401   0.877
 1462TIP3    H2 4323   2.301   5.336   0.968
 1463TIP3   OH2 4324   2.118   5.620   0.570
 1463TIP3    H1 4325   2.214   5.611   0.570
 1463TIP3    H2 4326   2.105   5.695   0.629
 1464TIP3   OH2 4327   4.003   6.055   0.623
 1464TIP3    H1 4328   4.005   5.958   0.641
 1464TIP3    H2 4329   3.917   6.077   0.665
 1465TIP3   OH2 4330   3.089   5.851   0.769
 1465TIP3    H1 4331   3.085   5.944   0.801
 1465TIP3    H2 4332   3.016   5.811   0.822
 1466TIP3   OH2 4333   2.268   5.805   0.119
 1466TIP3    H1 4334   2.344   5.805   0.182
 1466TIP3    H2 4335   2.197   5.784   0.183
 1467TIP3   OH2 4336   3.869   5.197   0.909
 1467TIP3    H1 4337   3.788   5.204   0.856
 1467TIP3    H2 4338   3.888   5.101   0.900
 1468TIP3   OH2 4339   2.469   5.606   0.928
 1468TIP3    H1 4340   2.517   5.590   1.012
 1468TIP3    H2 4341   2.394   5.543   0.937
 1469TIP3   OH2 4342   2.865   4.428   0.720
 1469TIP3    H1 4343   2.777   4.398   0.691
 1469TIP3    H2 4344   2.839   4.509   0.769
 1470TIP3   OH2 4345   3.403   4.544   0.912
 1470TIP3    H1 4346   3.473   4.513   0.973
 1470TIP3    H2 4347   3.321   4.519   0.960
 1471TIP3   OH2 4348   3.637   4.971   0.829
 1471TIP3    H1 4349   3.589   4.970   0.915
 1471TIP3    H2 4350   3.615   5.059   0.794
 1472TIP3   OH2 4351   3.019   4.507  -0.302
 1472TIP3    H1 4352   2.981   4.479  -0.216
 1472TIP3    H2 4353   2.984   4.439  -0.361
 1473TIP3   OH2 4354   2.798   4.946   0.735
 1473TIP3    H1 4355   2.749   4.966   0.818
 1473TIP3    H2 4356   2.781   5.028   0.683
 1474TIP3   OH2 4357   2.682   4.832   0.250
 1474TIP3    H1 4358   2.591   4.803   0.269
 1474TIP3    H2 4359   2.696   4.791   0.161
 1475TIP3   OH2 4360   3.178   4.913  -0.028
 1475TIP3    H1 4361   3.121   4.989  -0.052
 1475TIP3    H2 4362   3.258   4.936  -0.080
 1476TIP3   OH2 4363   3.349   5.193   1.064
 1476TIP3    H1 4364   3.326   5.119   1.125
 1476TIP3    H2 4365   3.443   5.204   1.085
 1477TIP3   OH2 4366   3.333   4.941   0.217
 1477TIP3    H1 4367   3.272   4.970   0.147
 1477TIP3    H2 4368   3.370   4.861   0.173
 1478TIP3   OH2 4369   2.618   4.973   0.945
 1478TIP3    H1 4370   2.654   5.034   1.011
 1478TIP3    H2 4371   2.607   4.891   0.996
 1479TIP3   OH2 4372   2.688   4.383  -0.328
 1479TIP3    H1 4373   2.668   4.418  -0.240
 1479TIP3    H2 4374   2.650   4.451  -0.388
 1480TIP3   OH2 4375   2.212   4.493   0.526
 1480TIP3    H1 4376   2.286   4.526   0.581
 1480TIP3    H2 4377   2.256   4.462   0.445
 1481TIP3   OH2 4378   2.173   4.476   0.040
 1481TIP3    H1 4379   2.230   4.511  -0.031
 1481TIP3    H2 4380   2.119   4.555   0.061
 1482TIP3   OH2 4381   3.340   5.190   0.638
 1482TIP3    H1 4382   3.373   5.118   0.579
 1482TIP3    H2 4383   3.311   5.135   0.715
 1483TIP3   OH2 4384   3.013   4.659   0.311
 1483TIP3    H1 4385   2.936   4.652   0.370
 1483TIP3    H2 4386   3.087   4.640   0.371
 1484TIP3   OH2 4387   2.446   4.710   0.317
 1484TIP3    H1 4388   2.351   4.715   0.290
 1484TIP3    H2 4389   2.471   4.618   0.296
 1485TIP3   OH2 4390   2.714   4.708   0.009
 1485TIP3    H1 4391   2.810   4.720  -0.006
 1485TIP3    H2 4392   2.674   4.742  -0.074
 1486TIP3   OH2 4393   3.504   4.732   0.520
 1486TIP3    H1 4394   3.467   4.742   0.610
 1486TIP3    H2 4395   3.442   4.669   0.480
 1487TIP3   OH2 4396   2.540   4.760  -0.200
 1487TIP3    H1 4397   2.462   4.703  -0.209
 1487TIP3    H2 4398   2.598   4.731  -0.275
 1488TIP3   OH2 4399   3.611   6.342   0.750
 1488TIP3    H1 4400   3.565   6.273   0.698
 1488TIP3    H2 4401   3.643   6.403   0.682
 1489TIP3   OH2 4402   2.629   5.528   1.152
 1489TIP3    H1 4403   2.709   5.558   1.200
 1489TIP3    H2 4404   2.564   5.527   1.225
 1490TIP3   OH2 4405   3.093   4.983   0.409
 1490TIP3    H1 4406   3.166   4.939   0.361
 1490TIP3    H2 4407   3.096   4.938   0.495
 1491TIP3   OH2 4408   2.610   4.468   0.291
 1491TIP3    H1 4409   2.577   4.390   0.340
 1491TIP3    H2 4410   2.659   4.426   0.219
 1492TIP3   OH2 4411   3.069   4.883   0.693
 1492TIP3    H1 4412   2.979   4.916   0.713
 1492TIP3    H2 4413   3.127   4.941   0.747
 1493TIP3   OH2 4414   2.826   5.261  -0.193
 1493TIP3    H1 4415   2.746   5.209  -0.215
 1493TIP3    H2 4416   2.795   5.308  -0.112
 1494TIP3   OH2 4417   3.702   5.505   0.423
 1494TIP3    H1 4418   3.727   5.551   0.340
 1494TIP3    H2 4419   3.618   5.461   0.397
 1495TIP3   OH2 4420   3.209   5.590   0.788
 1495TIP3    H1 4421   3.235   5.567   0.878
 1495TIP3    H2 4422   3.165   5.677   0.799
 1496TIP3   OH2 4423   2.498   5.290   0.466
 1496TIP3    H1 4424   2.538   5.262   0.381
 1496TIP3    H2 4425   2.546   5.234   0.529
 1497TIP3   OH2 4426   2.381   5.212   1.083
 1497TIP3    H1 4427   2.401   5.197   1.177
 1497TIP3    H2 4428   2.313   5.144   1.067
 1498TIP3   OH2 4429   3.108   5.328   1.102
 1498TIP3    H1 4430   3.048   5.268   1.054
 1498TIP3    H2 4431   3.196   5.292   1.075
 1499TIP3   OH2 4432   3.367   5.865   0.680
 1499TIP3    H1 4433   3.272   5.850   0.695
 1499TIP3    H2 4434   3.393   5.904   0.766
 1500TIP3   OH2 4435   3.996   5.777   0.676
 1500TIP3    H1 4436   3.898   5.772   0.672
 1500TIP3    H2 4437   4.019   5.744   0.586
 1501TIP3   OH2 4438   3.469   5.371   0.335
 1501TIP3    H1 4439   3.376   5.345   0.349
 1501TIP3    H2 4440   3.505   5.289   0.295
 1502TIP3   OH2 4441   2.608   5.589   0.108
 1502TIP3    H1 4442   2.599   5.665   0.047
 1502TIP3    H2 4443   2.515   5.567   0.121
 1503TIP3   OH2 4444   2.166   4.898  -0.202
 1503TIP3    H1 4445   2.211   4.982  -0.181
 1503TIP3    H2 4446   2.089   4.902  -0.142
 1504TIP3   OH2 4447   2.743   5.361   0.044
 1504TIP3    H1 4448   2.704   5.449   0.059
 1504TIP3    H2 4449   2.704   5.309   0.116
 1505TIP3   OH2 4450   2.870   5.937   0.562
 1505TIP3    H1 4451   2.910   6.011   0.512
 1505TIP3    H2 4452   2.948   5.902   0.609
 1506TIP3   OH2 4453   2.517   5.802  -0.032
 1506TIP3    H1 4454   2.424   5.820  -0.011
 1506TIP3    H2 4455   2.554   5.893  -0.028
 1507TIP3   OH2 4456   3.257   5.576   0.521
 1507TIP3    H1 4457   3.245   5.573   0.619
 1507TIP3    H2 4458   3.331   5.515   0.510
 1508TIP3   OH2 4459   3.496   6.127   0.608
 1508TIP3    H1 4460   3.435   6.050   0.604
 1508TIP3    H2 4461   3.481   6.169   0.520
 1509TIP3   OH2 4462   2.590   4.718   1.088
 1509TIP3    H1 4463   2.493   4.717   1.100
 1509TIP3    H2 4464   2.619   4.660   1.160
 1510TIP3   OH2 4465   2.308   5.799   0.719
 1510TIP3    H1 4466   2.364   5.731   0.761
 1510TIP3    H2 4467   2.332   5.877   0.772
 1511TIP3   OH2 4468   2.278   5.139  -0.116
 1511TIP3    H1 4469   2.209   5.188  -0.066
 1511TIP3    H2 4470   2.329   5.211  -0.156
 1512TIP3   OH2 4471   3.424   4.785   0.779
 1512TIP3    H1 4472   3.510   4.819   0.809
 1512TIP3    H2 4473   3.415   4.701   0.830
 1513TIP3   OH2 4474   3.298   4.543  -0.064
 1513TIP3    H1 4475   3.277   4.586  -0.149
 1513TIP3    H2 4476   3.353   4.613  -0.021
 1514TIP3   OH2 4477   2.991   4.713   0.039
 1514TIP3    H1 4478   3.062   4.777   0.017
 1514TIP3    H2 4479   3.002   4.704   0.136
 1515TIP3   OH2 4480   3.267   5.026   0.845
 1515TIP3    H1 4481   3.295   5.074   0.925
 1515TIP3    H2 4482   3.321   4.945   0.849
 1516TIP3   OH2 4483   3.143   4.433   0.137
 1516TIP3    H1 4484   3.150   4.503   0.204
 1516TIP3    H2 4485   3.200   4.471   0.066
 1517TIP3   OH2 4486   2.651   4.445  -0.058
 1517TIP3    H1 4487   2.655   4.537  -0.024
 1517TIP3    H2 4488   2.747   4.423  -0.053
 1518TIP3   OH2 4489   3.905   4.931   0.832
 1518TIP3    H1 4490   3.806   4.927   0.835
 1518TIP3    H2 4491   3.921   4.885   0.748
 1519TIP3   OH2 4492   3.554   5.127   0.226
 1519TIP3    H1 4493   3.479   5.065   0.235
 1519TIP3    H2 4494   3.625   5.079   0.274
 1520TIP3   OH2 4495   2.236   4.637  -0.189
 1520TIP3    H1 4496   2.221   4.734  -0.195
 1520TIP3    H2 4497   2.154   4.603  -0.226
 1521TIP3   OH2 4498   3.536   6.071   0.184
 1521TIP3    H1 4499   3.490   6.082   0.098
 1521TIP3    H2 4500   3.629   6.070   0.157
 1522TIP3   OH2 4501   2.599   4.349   0.691
 1522TIP3    H1 4502   2.571   4.313   0.604
 1522TIP3    H2 4503   2.591   4.269   0.748
 1523TIP3   OH2 4504   2.115   5.558   0.056
 1523TIP3    H1 4505   2.079   5.600   0.136
 1523TIP3    H2 4506   2.179   5.626   0.026
 1524TIP3   OH2 4507   2.301   6.114   1.145
 1524TIP3    H1 4508   2.387   6.115   1.192
 1524TIP3    H2 4509   2.282   6.019   1.143
 1525TIP3   OH2 4510   2.776   6.069   1.190
 1525TIP3    H1 4511   2.872   6.052   1.195
 1525TIP3    H2 4512   2.751   6.008   1.117
 1526TIP3   OH2 4513   3.420   5.979   0.922
 1526TIP3    H1 4514   3.411   5.909   0.991
 1526TIP3    H2 4515   3.497   6.030   0.954
 1527TIP3   OH2 4516   2.428   5.517   1.344
 1527TIP3    H1 4517   2.445   5.421   1.350
 1527TIP3    H2 4518   2.341   5.519   1.299
 1528TIP3   OH2 4519   3.035   5.603   1.119
 1528TIP3    H1 4520   2.994   5.622   1.032
 1528TIP3    H2 4521   3.067   5.511   1.108
 1529TIP3   OH2 4522   3.528   5.614   0.727
 1529TIP3    H1 4523   3.605   5.657   0.684
 1529TIP3    H2 4524   3.458   5.678   0.708
 1530TIP3   OH2 4525   2.548   5.252   1.328
 1530TIP3    H1 4526   2.626   5.203   1.299
 1530TIP3    H2 4527   2.576   5.284   1.416
 1531TIP3   OH2 4528   2.621   5.069  -0.235
 1531TIP3    H1 4529   2.586   5.029  -0.154
 1531TIP3    H2 4530   2.687   5.003  -0.263
 1532TIP3   OH2 4531   2.880   5.132   0.987
 1532TIP3    H1 4532   2.804   5.195   0.989
 1532TIP3    H2 4533   2.933   5.168   0.911
 1533TIP3   OH2 4534   3.402   5.537   1.120
 1533TIP3    H1 4535   3.480   5.506   1.072
 1533TIP3    H2 4536   3.395   5.472   1.192
 1534TIP3   OH2 4537   3.005   4.924   1.114
 1534TIP3    H1 4538   3.008   4.845   1.057
 1534TIP3    H2 4539   2.962   4.990   1.056
 1535TIP3   OH2 4540   3.008   4.715   0.923
 1535TIP3    H1 4541   3.038   4.750   0.837
 1535TIP3    H2 4542   2.916   4.689   0.902
 1536TIP3   OH2 4543   3.032   5.245   0.798
 1536TIP3    H1 4544   3.118   5.252   0.753
 1536TIP3    H2 4545   2.978   5.311   0.748
 1537TIP3   OH2 4546   3.618   5.211   1.174
 1537TIP3    H1 4547   3.660   5.124   1.182
 1537TIP3    H2 4548   3.689   5.264   1.136
 1538TIP3   OH2 4549   3.657   5.466   0.913
 1538TIP3    H1 4550   3.601   5.521   0.853
 1538TIP3    H2 4551   3.746   5.485   0.874
 1539TIP3   OH2 4552   2.885   5.031   1.347
 1539TIP3    H1 4553   2.817   4.962   1.362
 1539TIP3    H2 4554   2.919   5.005   1.259
 1540TIP3   OH2 4555   3.142   4.476   0.993
 1540TIP3    H1 4556   3.090   4.555   0.969
 1540TIP3    H2 4557   3.077   4.404   0.980
 1541TIP3   OH2 4558   3.265   4.976   1.206
 1541TIP3    H1 4559   3.253   4.960   1.301
 1541TIP3    H2 4560   3.176   4.951   1.173
 1542TIP3   OH2 4561   3.508   4.934   1.063
 1542TIP3    H1 4562   3.432   4.927   1.124
 1542TIP3    H2 4563   3.582   4.898   1.117
 1543TIP3   OH2 4564   3.735   4.869   1.211
 1543TIP3    H1 4565   3.749   4.773   1.224
 1543TIP3    H2 4566   3.732   4.903   1.303
 1544TIP3   OH2 4567   2.723   4.811   1.402
 1544TIP3    H1 4568   2.729   4.720   1.368
 1544TIP3    H2 4569   2.762   4.799   1.491
 1545TIP3   OH2 4570   3.228   4.483   1.254
 1545TIP3    H1 4571   3.298   4.414   1.248
 1545TIP3    H2 4572   3.193   4.478   1.162
 1546TIP3   OH2 4573   3.301   4.697   1.407
 1546TIP3    H1 4574   3.281   4.625   1.344
 1546TIP3    H2 4575   3.222   4.754   1.399
 1547TIP3   OH2 4576   2.009   5.306  -0.266
 1547TIP3    H1 4577   2.072   5.308  -0.339
 1547TIP3    H2 4578   1.956   5.226  -0.287
 1548TIP3   OH2 4579   1.923   5.902   0.127
 1548TIP3    H1 4580   1.834   5.936   0.149
 1548TIP3    H2 4581   1.948   5.852   0.208
 1549TIP3   OH2 4582   2.069   5.761   0.320
 1549TIP3    H1 4583   2.050   5.693   0.389
 1549TIP3    H2 4584   2.114   5.826   0.378
 1550TIP3   OH2 4585   3.798   6.190   0.417
 1550TIP3    H1 4586   3.764   6.099   0.410
 1550TIP3    H2 4587   3.890   6.172   0.441
 1551TIP3   OH2 4588   3.856   5.866   0.980
 1551TIP3    H1 4589   3.785   5.876   1.046
 1551TIP3    H2 4590   3.896   5.955   0.980
 1552TIP3   OH2 4591   3.855   5.633   0.231
 1552TIP3    H1 4592   3.907   5.564   0.185
 1552TIP3    H2 4593   3.818   5.685   0.159
 1553TIP3   OH2 4594   3.680   5.934   0.428
 1553TIP3    H1 4595   3.606   5.970   0.479
 1553TIP3    H2 4596   3.633   5.882   0.359
 1554TIP3   OH2 4597   3.610   5.089  -0.043
 1554TIP3    H1 4598   3.624   4.993  -0.048
 1554TIP3    H2 4599   3.602   5.104   0.053
 1555TIP3   OH2 4600   2.238   5.180   0.695
 1555TIP3    H1 4601   2.236   5.144   0.603
 1555TIP3    H2 4602   2.335   5.181   0.712
 1556TIP3   OH2 4603   3.902   5.530   0.805
 1556TIP3    H1 4604   3.973   5.462   0.797
 1556TIP3    H2 4605   3.933   5.598   0.742
 1557TIP3   OH2 4606   4.085   5.333   0.819
 1557TIP3    H1 4607   4.010   5.281   0.857
 1557TIP3    H2 4608   4.158   5.269   0.834
 1558TIP3   OH2 4609   3.608   4.813  -0.165
 1558TIP3    H1 4610   3.647   4.724  -0.145
 1558TIP3    H2 4611   3.682   4.852  -0.215
 1559TIP3   OH2 4612   3.759   4.990   0.345
 1559TIP3    H1 4613   3.844   5.020   0.304
 1559TIP3    H2 4614   3.776   5.021   0.436
 1560TIP3   OH2 4615   3.841   5.140   0.572
 1560TIP3    H1 4616   3.763   5.176   0.619
 1560TIP3    H2 4617   3.874   5.219   0.524
 1561TIP3   OH2 4618   2.456   4.863   1.367
 1561TIP3    H1 4619   2.554   4.858   1.372
 1561TIP3    H2 4620   2.433   4.777   1.407
 1562TIP3   OH2 4621   4.292   4.734   1.124
 1562TIP3    H1 4622   4.352   4.668   1.081
 1562TIP3    H2 4623   4.263   4.786   1.046
 1563TIP3   OH2 4624   3.699   4.569  -0.109
 1563TIP3    H1 4625   3.761   4.547  -0.037
 1563TIP3    H2 4626   3.648   4.485  -0.116
 1564TIP3   OH2 4627   2.417   4.558   0.702
 1564TIP3    H1 4628   2.479   4.482   0.709
 1564TIP3    H2 4629   2.480   4.632   0.692
 1565TIP3   OH2 4630   2.218   4.830   0.770
 1565TIP3    H1 4631   2.269   4.825   0.687
 1565TIP3    H2 4632   2.251   4.913   0.807
 1566TIP3   OH2 4633   4.157   4.866   0.928
 1566TIP3    H1 4634   4.068   4.906   0.935
 1566TIP3    H2 4635   4.135   4.791   0.870
 1567TIP3   OH2 4636   2.206   4.335   0.271
 1567TIP3    H1 4637   2.114   4.330   0.302
 1567TIP3    H2 4638   2.199   4.392   0.192
 1568TIP3   OH2 4639   2.424   4.416   1.089
 1568TIP3    H1 4640   2.372   4.410   1.171
 1568TIP3    H2 4641   2.358   4.452   1.027
 1569TIP3   OH2 4642   2.464   5.842   1.161
 1569TIP3    H1 4643   2.371   5.819   1.147
 1569TIP3    H2 4644   2.475   5.826   1.256
 1570TIP3   OH2 4645   2.645   5.877   0.712
 1570TIP3    H1 4646   2.597   5.954   0.674
 1570TIP3    H2 4647   2.730   5.890   0.666
 1571TIP3   OH2 4648   3.082   6.116   0.850
 1571TIP3    H1 4649   3.125   6.116   0.938
 1571TIP3    H2 4650   3.145   6.170   0.798
 1572TIP3   OH2 4651   3.256   6.275   0.711
 1572TIP3    H1 4652   3.333   6.226   0.679
 1572TIP3    H2 4653   3.298   6.334   0.778
 1573TIP3   OH2 4654   4.061   4.628   0.810
 1573TIP3    H1 4655   3.971   4.611   0.778
 1573TIP3    H2 4656   4.100   4.538   0.799
 1574TIP3   OH2 4657   2.317   6.128   0.739
 1574TIP3    H1 4658   2.226   6.160   0.716
 1574TIP3    H2 4659   2.334   6.182   0.818
 1575TIP3   OH2 4660   2.554   6.110   0.596
 1575TIP3    H1 4661   2.467   6.123   0.639
 1575TIP3    H2 4662   2.536   6.145   0.506
 1576TIP3   OH2 4663   2.980   6.137   0.399
 1576TIP3    H1 4664   2.918   6.151   0.326
 1576TIP3    H2 4665   2.986   6.227   0.438
 1577TIP3   OH2 4666   3.246   6.072   0.435
 1577TIP3    H1 4667   3.151   6.095   0.427
 1577TIP3    H2 4668   3.289   6.156   0.410
 1578TIP3   OH2 4669   3.458   6.261   0.374
 1578TIP3    H1 4670   3.436   6.342   0.322
 1578TIP3    H2 4671   3.488   6.200   0.303
 1579TIP3   OH2 4672   2.233   5.922   0.476
 1579TIP3    H1 4673   2.254   5.895   0.568
 1579TIP3    H2 4674   2.309   5.881   0.430
 1580TIP3   OH2 4675   2.429   5.797   0.336
 1580TIP3    H1 4676   2.444   5.713   0.387
 1580TIP3    H2 4677   2.520   5.834   0.336
 1581TIP3   OH2 4678   2.691   5.888   0.347
 1581TIP3    H1 4679   2.723   5.797   0.336
 1581TIP3    H2 4680   2.739   5.913   0.428
 1582TIP3   OH2 4681   3.255   4.541   0.415
 1582TIP3    H1 4682   3.220   4.471   0.474
 1582TIP3    H2 4683   3.337   4.500   0.381
 1583TIP3   OH2 4684   3.781   4.435   0.345
 1583TIP3    H1 4685   3.818   4.479   0.265
 1583TIP3    H2 4686   3.685   4.448   0.333
 1584TIP3   OH2 4687   3.876   4.515   0.101
 1584TIP3    H1 4688   3.948   4.462   0.060
 1584TIP3    H2 4689   3.913   4.605   0.084
 1585TIP3   OH2 4690   2.514   4.254   0.443
 1585TIP3    H1 4691   2.422   4.220   0.446
 1585TIP3    H2 4692   2.564   4.169   0.440
 1586TIP3   OH2 4693   2.283   4.125   0.090
 1586TIP3    H1 4694   2.334   4.175   0.022
 1586TIP3    H2 4695   2.270   4.194   0.158
 1587TIP3   OH2 4696   2.959   4.290   0.328
 1587TIP3    H1 4697   3.016   4.336   0.264
 1587TIP3    H2 4698   2.996   4.320   0.413
 1588TIP3   OH2 4699   3.497   4.431   0.313
 1588TIP3    H1 4700   3.508   4.392   0.225
 1588TIP3    H2 4701   3.488   4.351   0.369
 1589TIP3   OH2 4702   3.531   4.358  -0.094
 1589TIP3    H1 4703   3.441   4.393  -0.101
 1589TIP3    H2 4704   3.517   4.268  -0.058
 1590TIP3   OH2 4705   2.427   4.272  -0.093
 1590TIP3    H1 4706   2.451   4.234  -0.179
 1590TIP3    H2 4707   2.502   4.333  -0.078
 1591TIP3   OH2 4708   2.928   4.458  -0.042
 1591TIP3    H1 4709   2.991   4.414   0.018
 1591TIP3    H2 4710   2.947   4.551  -0.019
 1592TIP3   OH2 4711   2.722   4.536   1.335
 1592TIP3    H1 4712   2.689   4.464   1.392
 1592TIP3    H2 4713   2.817   4.536   1.361
 1593TIP3   OH2 4714   2.973   4.535   1.452
 1593TIP3    H1 4715   3.057   4.511   1.408
 1593TIP3    H2 4716   2.964   4.462   1.517
 1594TIP3   OH2 4717   3.800   4.600   1.240
 1594TIP3    H1 4718   3.818   4.567   1.330
 1594TIP3    H2 4719   3.889   4.592   1.198
 1595TIP3   OH2 4720   3.760   6.111   0.730
 1595TIP3    H1 4721   3.676   6.082   0.691
 1595TIP3    H2 4722   3.737   6.202   0.755
 1596TIP3   OH2 4723   4.312   5.409   0.244
 1596TIP3    H1 4724   4.340   5.342   0.310
 1596TIP3    H2 4725   4.353   5.489   0.285
 1597TIP3   OH2 4726   4.195   5.064   0.105
 1597TIP3    H1 4727   4.291   5.042   0.101
 1597TIP3    H2 4728   4.177   5.100   0.016
 1598TIP3   OH2 4729   4.549   4.865   0.371
 1598TIP3    H1 4730   4.497   4.909   0.301
 1598TIP3    H2 4731   4.519   4.913   0.450
 1599TIP3   OH2 4732   4.453   4.981   0.135
 1599TIP3    H1 4733   4.514   5.056   0.156
 1599TIP3    H2 4734   4.499   4.940   0.060
 1600TIP3   OH2 4735   4.486   5.845   0.300
 1600TIP3    H1 4736   4.469   5.911   0.230
 1600TIP3    H2 4737   4.397   5.834   0.338
 1601TIP3   OH2 4738   4.923   4.623   0.070
 1601TIP3    H1 4739   4.904   4.538   0.024
 1601TIP3    H2 4740   4.836   4.642   0.111
 1602TIP3   OH2 4741   4.649   5.943   0.493
 1602TIP3    H1 4742   4.605   6.031   0.493
 1602TIP3    H2 4743   4.597   5.898   0.423
 1603TIP3   OH2 4744   4.412   5.563   0.470
 1603TIP3    H1 4745   4.426   5.642   0.526
 1603TIP3    H2 4746   4.332   5.524   0.513
 1604TIP3   OH2 4747   4.475   6.162   0.485
 1604TIP3    H1 4748   4.435   6.163   0.396
 1604TIP3    H2 4749   4.399   6.137   0.542
 1605TIP3   OH2 4750   4.054   5.675   0.432
 1605TIP3    H1 4751   3.988   5.649   0.365
 1605TIP3    H2 4752   4.093   5.589   0.460
 1606TIP3   OH2 4753   5.627   5.457   0.431
 1606TIP3    H1 4754   5.676   5.498   0.358
 1606TIP3    H2 4755   5.684   5.382   0.453
 1607TIP3   OH2 4756   4.245   5.869   0.434
 1607TIP3    H1 4757   4.303   5.849   0.511
 1607TIP3    H2 4758   4.183   5.793   0.436
 1608TIP3   OH2 4759   4.671   4.683   0.208
 1608TIP3    H1 4760   4.581   4.656   0.182
 1608TIP3    H2 4761   4.647   4.759   0.266
 1609TIP3   OH2 4762   5.191   4.801   0.396
 1609TIP3    H1 4763   5.257   4.778   0.465
 1609TIP3    H2 4764   5.106   4.789   0.443
 1610TIP3   OH2 4765   4.603   5.200   0.218
 1610TIP3    H1 4766   4.557   5.221   0.302
 1610TIP3    H2 4767   4.554   5.254   0.154
 1611TIP3   OH2 4768   5.144   5.451   0.555
 1611TIP3    H1 4769   5.117   5.375   0.611
 1611TIP3    H2 4770   5.239   5.456   0.575
 1612TIP3   OH2 4771   4.423   5.235   0.436
 1612TIP3    H1 4772   4.494   5.274   0.491
 1612TIP3    H2 4773   4.407   5.150   0.483
 1613TIP3   OH2 4774   4.009   4.739   0.033
 1613TIP3    H1 4775   4.081   4.764   0.093
 1613TIP3    H2 4776   4.024   4.803  -0.042
 1614TIP3   OH2 4777   4.417   5.787   0.637
 1614TIP3    H1 4778   4.503   5.818   0.674
 1614TIP3    H2 4779   4.363   5.782   0.719
 1615TIP3   OH2 4780   4.872   5.110   0.184
 1615TIP3    H1 4781   4.779   5.117   0.215
 1615TIP3    H2 4782   4.920   5.151   0.257
 1616TIP3   OH2 4783   5.004   5.831   0.331
 1616TIP3    H1 4784   5.016   5.815   0.426
 1616TIP3    H2 4785   4.917   5.876   0.329
 1617TIP3   OH2 4786   4.173   5.471   0.575
 1617TIP3    H1 4787   4.199   5.453   0.668
 1617TIP3    H2 4788   4.111   5.398   0.558
 1618TIP3   OH2 4789   4.897   5.579   0.603
 1618TIP3    H1 4790   4.829   5.523   0.562
 1618TIP3    H2 4791   4.979   5.538   0.568
 1619TIP3   OH2 4792   4.384   4.986   0.575
 1619TIP3    H1 4793   4.287   4.975   0.584
 1619TIP3    H2 4794   4.417   4.922   0.640
 1620TIP3   OH2 4795   4.098   6.060   0.286
 1620TIP3    H1 4796   4.119   5.966   0.302
 1620TIP3    H2 4797   4.131   6.095   0.370
 1621TIP3   OH2 4798   5.240   5.050   0.285
 1621TIP3    H1 4799   5.266   5.088   0.372
 1621TIP3    H2 4800   5.216   4.959   0.313
 1622TIP3   OH2 4801   5.047   5.309   0.330
 1622TIP3    H1 4802   5.086   5.351   0.409
 1622TIP3    H2 4803   5.105   5.232   0.319
 1623TIP3   OH2 4804   4.404   4.609   0.196
 1623TIP3    H1 4805   4.368   4.577   0.110
 1623TIP3    H2 4806   4.395   4.530   0.252
 1624TIP3   OH2 4807   4.099   6.362   0.635
 1624TIP3    H1 4808   4.184   6.365   0.685
 1624TIP3    H2 4809   4.083   6.267   0.633
 1625TIP3   OH2 4810   4.574   6.330   0.679
 1625TIP3    H1 4811   4.668   6.308   0.681
 1625TIP3    H2 4812   4.545   6.275   0.603
 1626TIP3   OH2 4813   4.224   5.773   0.837
 1626TIP3    H1 4814   4.242   5.677   0.840
 1626TIP3    H2 4815   4.138   5.774   0.789
 1627TIP3   OH2 4816   4.865   5.855   0.618
 1627TIP3    H1 4817   4.790   5.875   0.556
 1627TIP3    H2 4818   4.873   5.758   0.610
 1628TIP3   OH2 4819   4.347   5.510   0.809
 1628TIP3    H1 4820   4.423   5.458   0.781
 1628TIP3    H2 4821   4.376   5.539   0.899
 1629TIP3   OH2 4822   4.643   5.416   0.502
 1629TIP3    H1 4823   4.569   5.477   0.481
 1629TIP3    H2 4824   4.705   5.436   0.428
 1630TIP3   OH2 4825   5.195   5.798   0.608
 1630TIP3    H1 4826   5.291   5.790   0.601
 1630TIP3    H2 4827   5.173   5.729   0.672
 1631TIP3   OH2 4828   4.827   5.509   0.322
 1631TIP3    H1 4829   4.912   5.460   0.320
 1631TIP3    H2 4830   4.838   5.569   0.245
 1632TIP3   OH2 4831   5.420   5.462   0.660
 1632TIP3    H1 4832   5.447   5.370   0.669
 1632TIP3    H2 4833   5.498   5.498   0.616
 1633TIP3   OH2 4834   4.672   5.298   0.827
 1633TIP3    H1 4835   4.612   5.224   0.844
 1633TIP3    H2 4836   4.709   5.269   0.740
 1634TIP3   OH2 4837   4.929   4.748   0.481
 1634TIP3    H1 4838   4.872   4.827   0.481
 1634TIP3    H2 4839   4.863   4.677   0.467
 1635TIP3   OH2 4840   5.069   5.229   0.686
 1635TIP3    H1 4841   5.041   5.223   0.780
 1635TIP3    H2 4842   4.991   5.183   0.647
 1636TIP3   OH2 4843   5.296   5.164   0.528
 1636TIP3    H1 4844   5.224   5.173   0.593
 1636TIP3    H2 4845   5.374   5.144   0.584
 1637TIP3   OH2 4846   5.534   5.128   0.694
 1637TIP3    H1 4847   5.546   5.031   0.710
 1637TIP3    H2 4848   5.528   5.163   0.786
 1638TIP3   OH2 4849   4.517   5.077   0.890
 1638TIP3    H1 4850   4.554   5.011   0.828
 1638TIP3    H2 4851   4.556   5.048   0.975
 1639TIP3   OH2 4852   5.030   4.735   0.737
 1639TIP3    H1 4853   5.092   4.661   0.722
 1639TIP3    H2 4854   4.987   4.742   0.650
 1640TIP3   OH2 4855   5.095   4.952   0.892
 1640TIP3    H1 4856   5.073   4.882   0.827
 1640TIP3    H2 4857   5.022   5.015   0.878
 1641TIP3   OH2 4858   4.044   5.436   0.178
 1641TIP3    H1 4859   4.053   5.403   0.088
 1641TIP3    H2 4860   4.139   5.437   0.205
 1642TIP3   OH2 4861   4.248   5.120   0.858
 1642TIP3    H1 4862   4.346   5.114   0.857
 1642TIP3    H2 4863   4.227   5.033   0.896
 1643TIP3   OH2 4864   6.091   4.993   0.601
 1643TIP3    H1 4865   6.142   4.913   0.572
 1643TIP3    H2 4866   6.124   5.057   0.534
 1644TIP3   OH2 4867   4.204   4.796   0.228
 1644TIP3    H1 4868   4.277   4.731   0.226
 1644TIP3    H2 4869   4.250   4.876   0.196
 1645TIP3   OH2 4870   3.996   5.102   0.279
 1645TIP3    H1 4871   4.061   5.075   0.211
 1645TIP3    H2 4872   4.046   5.171   0.324
 1646TIP3   OH2 4873   5.891   5.163   0.442
 1646TIP3    H1 4874   5.830   5.095   0.472
 1646TIP3    H2 4875   5.971   5.115   0.416
 1647TIP3   OH2 4876   4.220   4.669   0.574
 1647TIP3    H1 4877   4.168   4.666   0.656
 1647TIP3    H2 4878   4.154   4.707   0.512
 1648TIP3   OH2 4879   4.269   6.104   0.653
 1648TIP3    H1 4880   4.178   6.073   0.636
 1648TIP3    H2 4881   4.281   6.081   0.746
 1649TIP3   OH2 4882   5.820   4.869   0.314
 1649TIP3    H1 4883   5.744   4.827   0.270
 1649TIP3    H2 4884   5.888   4.798   0.305
 1650TIP3   OH2 4885   2.481   4.922   8.390
 1650TIP3    H1 4886   2.389   4.891   8.382
 1650TIP3    H2 4887   2.484   4.952   8.484
 1651TIP3   OH2 4888   4.299   4.499  -0.026
 1651TIP3    H1 4889   4.206   4.470  -0.029
 1651TIP3    H2 4890   4.347   4.418  -0.050
 1652TIP3   OH2 4891   4.515   4.775   0.812
 1652TIP3    H1 4892   4.488   4.711   0.880
 1652TIP3    H2 4893   4.608   4.792   0.840
 1653TIP3   OH2 4894   4.763   4.797   0.945
 1653TIP3    H1 4895   4.843   4.780   0.892
 1653TIP3    H2 4896   4.759   4.718   1.002
 1654TIP3   OH2 4897   5.600   4.857   0.729
 1654TIP3    H1 4898   5.615   4.826   0.821
 1654TIP3    H2 4899   5.690   4.850   0.691
 1655TIP3   OH2 4900   0.405   6.035   1.818
 1655TIP3    H1 4901   0.434   5.960   1.761
 1655TIP3    H2 4902   0.327   6.067   1.771
 1656TIP3   OH2 4903   1.849   6.362   0.590
 1656TIP3    H1 4904   1.885   6.448   0.622
 1656TIP3    H2 4905   1.854   6.373   0.493
 1657TIP3   OH2 4906   1.933   6.578   0.751
 1657TIP3    H1 4907   1.869   6.637   0.707
 1657TIP3    H2 4908   1.947   6.622   0.837
 1658TIP3   OH2 4909   1.666   6.252   0.764
 1658TIP3    H1 4910   1.585   6.305   0.764
 1658TIP3    H2 4911   1.721   6.294   0.694
 1659TIP3   OH2 4912   1.712   6.750   1.054
 1659TIP3    H1 4913   1.624   6.753   1.015
 1659TIP3    H2 4914   1.732   6.655   1.051
 1660TIP3   OH2 4915   1.245   6.088   1.079
 1660TIP3    H1 4916   1.317   6.061   1.140
 1660TIP3    H2 4917   1.165   6.070   1.133
 1661TIP3   OH2 4918   1.489   6.539   0.980
 1661TIP3    H1 4919   1.445   6.509   1.064
 1661TIP3    H2 4920   1.430   6.615   0.961
 1662TIP3   OH2 4921   1.188   6.784   1.245
 1662TIP3    H1 4922   1.161   6.691   1.264
 1662TIP3    H2 4923   1.280   6.783   1.277
 1663TIP3   OH2 4924   1.352   6.282   0.924
 1663TIP3    H1 4925   1.397   6.325   1.000
 1663TIP3    H2 4926   1.309   6.206   0.970
 1664TIP3   OH2 4927   1.752   6.484   0.978
 1664TIP3    H1 4928   1.653   6.490   0.977
 1664TIP3    H2 4929   1.771   6.450   0.889
 1665TIP3   OH2 4930   1.238   7.096   1.312
 1665TIP3    H1 4931   1.330   7.125   1.295
 1665TIP3    H2 4932   1.253   7.030   1.383
 1666TIP3   OH2 4933   1.467   6.772   1.321
 1666TIP3    H1 4934   1.517   6.689   1.335
 1666TIP3    H2 4935   1.540   6.833   1.301
 1667TIP3   OH2 4936   1.506   7.020   1.053
 1667TIP3    H1 4937   1.463   7.096   1.009
 1667TIP3    H2 4938   1.596   7.030   1.016
 1668TIP3   OH2 4939   0.986   6.016   1.151
 1668TIP3    H1 4940   0.956   6.063   1.071
 1668TIP3    H2 4941   0.947   5.928   1.136
 1669TIP3   OH2 4942   1.112   6.544   1.354
 1669TIP3    H1 4943   1.122   6.548   1.451
 1669TIP3    H2 4944   1.043   6.475   1.350
 1670TIP3   OH2 4945   1.353   6.469   1.201
 1670TIP3    H1 4946   1.277   6.482   1.261
 1670TIP3    H2 4947   1.426   6.449   1.265
 1671TIP3   OH2 4948   1.571   6.425   1.362
 1671TIP3    H1 4949   1.588   6.330   1.378
 1671TIP3    H2 4950   1.569   6.462   1.452
 1672TIP3   OH2 4951   1.083   6.038   1.408
 1672TIP3    H1 4952   1.148   5.966   1.397
 1672TIP3    H2 4953   1.034   6.032   1.324
 1673TIP3   OH2 4954   1.153   6.254   1.559
 1673TIP3    H1 4955   1.126   6.179   1.501
 1673TIP3    H2 4956   1.073   6.311   1.557
 1674TIP3   OH2 4957   1.692   7.458   1.117
 1674TIP3    H1 4958   1.625   7.444   1.189
 1674TIP3    H2 4959   1.738   7.536   1.152
 1675TIP3   OH2 4960   1.774   7.103   0.934
 1675TIP3    H1 4961   1.831   7.023   0.949
 1675TIP3    H2 4962   1.797   7.121   0.842
 1676TIP3   OH2 4963   1.925   6.882   0.954
 1676TIP3    H1 4964   1.855   6.838   1.006
 1676TIP3    H2 4965   2.002   6.825   0.978
 1677TIP3   OH2 4966   2.136   6.292   1.277
 1677TIP3    H1 4967   2.194   6.225   1.233
 1677TIP3    H2 4968   2.104   6.343   1.199
 1678TIP3   OH2 4969   2.007   6.424   1.082
 1678TIP3    H1 4970   1.930   6.470   1.122
 1678TIP3    H2 4971   1.961   6.361   1.023
 1679TIP3   OH2 4972   1.901   6.188   0.959
 1679TIP3    H1 4973   1.812   6.180   0.920
 1679TIP3    H2 4974   1.936   6.096   0.948
 1680TIP3   OH2 4975   1.687   6.005   0.495
 1680TIP3    H1 4976   1.707   6.029   0.404
 1680TIP3    H2 4977   1.632   6.079   0.522
 1681TIP3   OH2 4978   6.815   2.600   8.083
 1681TIP3    H1 4979   6.904   2.587   8.127
 1681TIP3    H2 4980   6.839   2.611   7.991
 1682TIP3   OH2 4981   0.826   6.055   1.601
 1682TIP3    H1 4982   0.910   6.006   1.589
 1682TIP3    H2 4983   0.780   5.994   1.662
 1683TIP3   OH2 4984   1.640   6.156   1.391
 1683TIP3    H1 4985   1.659   6.125   1.482
 1683TIP3    H2 4986   1.729   6.151   1.350
 1684TIP3   OH2 4987   2.163   6.970   0.417
 1684TIP3    H1 4988   2.189   6.904   0.487
 1684TIP3    H2 4989   2.245   7.019   0.405
 1685TIP3   OH2 4990   2.411   6.484   0.079
 1685TIP3    H1 4991   2.343   6.522   0.020
 1685TIP3    H2 4992   2.391   6.389   0.065
 1686TIP3   OH2 4993   3.717   6.834   0.246
 1686TIP3    H1 4994   3.686   6.925   0.226
 1686TIP3    H2 4995   3.756   6.845   0.335
 1687TIP3   OH2 4996   2.391   6.441   0.519
 1687TIP3    H1 4997   2.339   6.481   0.446
 1687TIP3    H2 4998   2.334   6.463   0.595
 1688TIP3   OH2 4999   2.537   7.227   0.291
 1688TIP3    H1 5000   2.446   7.257   0.316
 1688TIP3    H2 5001   2.581   7.312   0.275
 1689TIP3   OH2 5002   2.266   6.546   0.305
 1689TIP3    H1 5003   2.295   6.638   0.321
 1689TIP3    H2 5004   2.318   6.527   0.224
 1690TIP3   OH2 5005   3.410   6.488   0.235
 1690TIP3    H1 5006   3.313   6.493   0.217
 1690TIP3    H2 5007   3.436   6.578   0.202
 1691TIP3   OH2 5008   2.747   6.173   0.229
 1691TIP3    H1 5009   2.736   6.077   0.243
 1691TIP3    H2 5010   2.668   6.208   0.276
 1692TIP3   OH2 5011   2.433   6.978   0.229
 1692TIP3    H1 5012   2.426   6.970   0.132
 1692TIP3    H2 5013   2.479   7.064   0.240
 1693TIP3   OH2 5014   2.489   7.416   0.572
 1693TIP3    H1 5015   2.490   7.513   0.583
 1693TIP3    H2 5016   2.487   7.407   0.475
 1694TIP3   OH2 5017   2.289   7.106   0.652
 1694TIP3    H1 5018   2.297   7.192   0.698
 1694TIP3    H2 5019   2.194   7.087   0.666
 1695TIP3   OH2 5020   3.505   7.019   0.540
 1695TIP3    H1 5021   3.431   7.034   0.481
 1695TIP3    H2 5022   3.516   6.922   0.537
 1696TIP3   OH2 5023   2.089   7.420   0.598
 1696TIP3    H1 5024   2.166   7.405   0.657
 1696TIP3    H2 5025   2.038   7.339   0.615
 1697TIP3   OH2 5026   2.508   6.244   0.357
 1697TIP3    H1 5027   2.420   6.213   0.329
 1697TIP3    H2 5028   2.482   6.324   0.406
 1698TIP3   OH2 5029   3.037   6.361   0.551
 1698TIP3    H1 5030   3.106   6.333   0.614
 1698TIP3    H2 5031   2.953   6.339   0.598
 1699TIP3   OH2 5032   3.276   6.808   0.474
 1699TIP3    H1 5033   3.230   6.791   0.559
 1699TIP3    H2 5034   3.211   6.862   0.427
 1700TIP3   OH2 5035   2.437   6.756   0.382
 1700TIP3    H1 5036   2.385   6.780   0.461
 1700TIP3    H2 5037   2.428   6.837   0.327
 1701TIP3   OH2 5038   2.993   7.003   0.700
 1701TIP3    H1 5039   2.966   6.933   0.763
 1701TIP3    H2 5040   3.086   7.015   0.725
 1702TIP3   OH2 5041   2.265   6.783   0.601
 1702TIP3    H1 5042   2.313   6.832   0.670
 1702TIP3    H2 5043   2.251   6.696   0.645
 1703TIP3   OH2 5044   2.940   7.014   0.306
 1703TIP3    H1 5045   2.976   6.988   0.219
 1703TIP3    H2 5046   2.933   6.930   0.355
 1704TIP3   OH2 5047   2.665   6.468  -0.027
 1704TIP3    H1 5048   2.581   6.493   0.019
 1704TIP3    H2 5049   2.729   6.479   0.045
 1705TIP3   OH2 5050   3.140   6.507   0.193
 1705TIP3    H1 5051   3.105   6.562   0.266
 1705TIP3    H2 5052   3.059   6.462   0.163
 1706TIP3   OH2 5053   2.264   7.348   0.796
 1706TIP3    H1 5054   2.348   7.371   0.841
 1706TIP3    H2 5055   2.205   7.336   0.872
 1707TIP3   OH2 5056   2.839   6.731   0.113
 1707TIP3    H1 5057   2.757   6.735   0.060
 1707TIP3    H2 5058   2.803   6.713   0.202
 1708TIP3   OH2 5059   2.312   6.251  -0.020
 1708TIP3    H1 5060   2.277   6.162  -0.004
 1708TIP3    H2 5061   2.373   6.241  -0.095
 1709TIP3   OH2 5062   2.703   6.691   0.350
 1709TIP3    H1 5063   2.610   6.724   0.358
 1709TIP3    H2 5064   2.752   6.753   0.408
 1710TIP3   OH2 5065   2.792   7.405   0.462
 1710TIP3    H1 5066   2.833   7.336   0.515
 1710TIP3    H2 5067   2.873   7.442   0.420
 1711TIP3   OH2 5068   2.018   7.054   0.736
 1711TIP3    H1 5069   2.048   7.036   0.827
 1711TIP3    H2 5070   1.983   6.967   0.712
 1712TIP3   OH2 5071   2.752   7.132   0.745
 1712TIP3    H1 5072   2.688   7.088   0.687
 1712TIP3    H2 5073   2.836   7.095   0.711
 1713TIP3   OH2 5074   2.228   6.526   0.729
 1713TIP3    H1 5075   2.131   6.531   0.742
 1713TIP3    H2 5076   2.256   6.473   0.805
 1714TIP3   OH2 5077   3.060   6.609   0.437
 1714TIP3    H1 5078   3.144   6.633   0.480
 1714TIP3    H2 5079   3.042   6.522   0.477
 1715TIP3   OH2 5080   2.892   6.824   0.499
 1715TIP3    H1 5081   2.926   6.883   0.569
 1715TIP3    H2 5082   2.953   6.748   0.502
 1716TIP3   OH2 5083   3.539   6.744   0.474
 1716TIP3    H1 5084   3.441   6.750   0.476
 1716TIP3    H2 5085   3.554   6.723   0.380
 1717TIP3   OH2 5086   2.248   6.157   0.326
 1717TIP3    H1 5087   2.216   6.120   0.242
 1717TIP3    H2 5088   2.236   6.082   0.388
 1718TIP3   OH2 5089   2.054   7.305   0.977
 1718TIP3    H1 5090   2.104   7.219   0.978
 1718TIP3    H2 5091   1.968   7.272   1.004
 1719TIP3   OH2 5092   2.684   7.399   0.773
 1719TIP3    H1 5093   2.646   7.402   0.682
 1719TIP3    H2 5094   2.724   7.309   0.771
 1720TIP3   OH2 5095   2.175   7.066   0.978
 1720TIP3    H1 5096   2.261   7.021   0.978
 1720TIP3    H2 5097   2.143   7.046   1.069
 1721TIP3   OH2 5098   2.519   6.947   0.624
 1721TIP3    H1 5099   2.446   7.013   0.627
 1721TIP3    H2 5100   2.574   6.982   0.550
 1722TIP3   OH2 5101   3.039   7.359   0.769
 1722TIP3    H1 5102   3.076   7.331   0.683
 1722TIP3    H2 5103   3.045   7.278   0.823
 1723TIP3   OH2 5104   2.646   6.738   0.748
 1723TIP3    H1 5105   2.646   6.659   0.690
 1723TIP3    H2 5106   2.603   6.806   0.691
 1724TIP3   OH2 5107   2.648   6.520   0.564
 1724TIP3    H1 5108   2.672   6.566   0.481
 1724TIP3    H2 5109   2.553   6.498   0.547
 1725TIP3   OH2 5110   2.689   7.057   0.445
 1725TIP3    H1 5111   2.778   7.055   0.403
 1725TIP3    H2 5112   2.644   7.123   0.387
 1726TIP3   OH2 5113   3.259   7.026   0.811
 1726TIP3    H1 5114   3.308   6.943   0.815
 1726TIP3    H2 5115   3.329   7.089   0.789
 1727TIP3   OH2 5116   2.531   6.844   0.981
 1727TIP3    H1 5117   2.457   6.783   0.999
 1727TIP3    H2 5118   2.560   6.816   0.892
 1728TIP3   OH2 5119   2.779   6.286   0.629
 1728TIP3    H1 5120   2.730   6.368   0.607
 1728TIP3    H2 5121   2.710   6.218   0.617
 1729TIP3   OH2 5122   2.906   6.787   0.841
 1729TIP3    H1 5123   2.887   6.775   0.936
 1729TIP3    H2 5124   2.817   6.766   0.805
 1730TIP3   OH2 5125   3.145   6.736   0.699
 1730TIP3    H1 5126   3.068   6.740   0.759
 1730TIP3    H2 5127   3.218   6.712   0.760
 1731TIP3   OH2 5128   3.373   6.689   0.852
 1731TIP3    H1 5129   3.374   6.593   0.874
 1731TIP3    H2 5130   3.369   6.730   0.941
 1732TIP3   OH2 5131   2.362   6.623   1.030
 1732TIP3    H1 5132   2.369   6.529   1.004
 1732TIP3    H2 5133   2.396   6.621   1.121
 1733TIP3   OH2 5134   2.870   6.296   0.888
 1733TIP3    H1 5135   2.936   6.224   0.881
 1733TIP3    H2 5136   2.831   6.293   0.798
 1734TIP3   OH2 5137   2.938   6.511   1.045
 1734TIP3    H1 5138   2.915   6.440   0.980
 1734TIP3    H2 5139   2.860   6.571   1.038
 1735TIP3   OH2 5140   3.525   7.697   0.588
 1735TIP3    H1 5141   3.448   7.678   0.646
 1735TIP3    H2 5142   3.567   7.769   0.636
 1736TIP3   OH2 5143   3.726   7.176   0.548
 1736TIP3    H1 5144   3.639   7.134   0.530
 1736TIP3    H2 5145   3.785   7.101   0.528
 1737TIP3   OH2 5146   2.095   6.673   0.995
 1737TIP3    H1 5147   2.192   6.669   1.002
 1737TIP3    H2 5148   2.070   6.588   1.037
 1738TIP3   OH2 5149   3.957   6.561   0.764
 1738TIP3    H1 5150   4.000   6.486   0.718
 1738TIP3    H2 5151   3.903   6.599   0.692
 1739TIP3   OH2 5152   2.058   6.365   0.337
 1739TIP3    H1 5153   2.131   6.302   0.354
 1739TIP3    H2 5154   2.110   6.448   0.325
 1740TIP3   OH2 5155   3.792   6.678   0.573
 1740TIP3    H1 5156   3.702   6.717   0.583
 1740TIP3    H2 5157   3.769   6.600   0.519
 1741TIP3   OH2 5158   2.058   6.222   0.720
 1741TIP3    H1 5159   2.011   6.225   0.805
 1741TIP3    H2 5160   1.994   6.266   0.661
 1742TIP3   OH2 5161   3.699   6.443   0.447
 1742TIP3    H1 5162   3.607   6.427   0.423
 1742TIP3    H2 5163   3.736   6.351   0.440
 1743TIP3   OH2 5164   2.937   6.342   0.080
 1743TIP3    H1 5165   2.871   6.295   0.134
 1743TIP3    H2 5166   2.942   6.284   0.003
 1744TIP3   OH2 5167   2.149   6.046   0.083
 1744TIP3    H1 5168   2.060   6.004   0.088
 1744TIP3    H2 5169   2.204   5.965   0.079
 1745TIP3   OH2 5170   2.601   6.058   0.006
 1745TIP3    H1 5171   2.687   6.045  -0.039
 1745TIP3    H2 5172   2.626   6.124   0.073
 1746TIP3   OH2 5173   2.359   6.345   0.969
 1746TIP3    H1 5174   2.324   6.277   1.029
 1746TIP3    H2 5175   2.453   6.347   0.998
 1747TIP3   OH2 5176   2.607   6.349   1.091
 1747TIP3    H1 5177   2.693   6.326   1.051
 1747TIP3    H2 5178   2.597   6.278   1.157
 1748TIP3   OH2 5179   3.398   6.417   0.904
 1748TIP3    H1 5180   3.411   6.388   0.997
 1748TIP3    H2 5181   3.486   6.396   0.868
 1749TIP3   OH2 5182   3.854   7.555   0.478
 1749TIP3    H1 5183   3.901   7.470   0.465
 1749TIP3    H2 5184   3.772   7.536   0.429
 1750TIP3   OH2 5185   4.002   7.324   0.456
 1750TIP3    H1 5186   4.009   7.228   0.455
 1750TIP3    H2 5187   4.023   7.347   0.549
 1751TIP3   OH2 5188   4.314   7.091   0.453
 1751TIP3    H1 5189   4.250   7.027   0.491
 1751TIP3    H2 5190   4.365   7.031   0.394
 1752TIP3   OH2 5191   4.151   6.879   0.528
 1752TIP3    H1 5192   4.151   6.787   0.493
 1752TIP3    H2 5193   4.191   6.862   0.616
 1753TIP3   OH2 5194   4.729   6.763   0.530
 1753TIP3    H1 5195   4.706   6.705   0.455
 1753TIP3    H2 5196   4.653   6.825   0.533
 1754TIP3   OH2 5197   3.887   6.948   0.526
 1754TIP3    H1 5198   3.983   6.929   0.521
 1754TIP3    H2 5199   3.855   6.862   0.561
 1755TIP3   OH2 5200   3.845   6.493   0.212
 1755TIP3    H1 5201   3.797   6.475   0.296
 1755TIP3    H2 5202   3.801   6.573   0.180
 1756TIP3   OH2 5203   4.155   6.603   0.484
 1756TIP3    H1 5204   4.123   6.525   0.535
 1756TIP3    H2 5205   4.249   6.606   0.513
 1757TIP3   OH2 5206   4.406   6.606   0.593
 1757TIP3    H1 5207   4.496   6.590   0.559
 1757TIP3    H2 5208   4.396   6.531   0.656
 1758TIP3   OH2 5209   1.394   0.038   3.992
 1758TIP3    H1 5210   1.389  -0.006   4.077
 1758TIP3    H2 5211   1.420   0.129   4.015
 1759TIP3   OH2 5212   1.053   0.510   3.983
 1759TIP3    H1 5213   1.084   0.429   3.938
 1759TIP3    H2 5214   1.034   0.478   4.072
 1760TIP3   OH2 5215   1.992  -0.507   4.522
 1760TIP3    H1 5216   1.917  -0.447   4.502
 1760TIP3    H2 5217   2.055  -0.448   4.566
 1761TIP3   OH2 5218   1.459   0.300   4.135
 1761TIP3    H1 5219   1.366   0.297   4.165
 1761TIP3    H2 5220   1.459   0.387   4.089
 1762TIP3   OH2 5221   1.683   0.209   4.481
 1762TIP3    H1 5222   1.676   0.134   4.418
 1762TIP3    H2 5223   1.668   0.286   4.421
 1763TIP3   OH2 5224   1.879  -0.151   4.324
 1763TIP3    H1 5225   1.797  -0.096   4.326
 1763TIP3    H2 5226   1.911  -0.130   4.233
 1764TIP3   OH2 5227   1.208   0.314   4.232
 1764TIP3    H1 5228   1.196   0.396   4.285
 1764TIP3    H2 5229   1.197   0.243   4.298
 1765TIP3   OH2 5230   1.921   0.558   4.526
 1765TIP3    H1 5231   1.923   0.461   4.543
 1765TIP3    H2 5232   1.838   0.581   4.573
 1766TIP3   OH2 5233   1.056   0.369   4.626
 1766TIP3    H1 5234   1.043   0.453   4.674
 1766TIP3    H2 5235   0.981   0.316   4.660
 1767TIP3   OH2 5236   1.818  -0.325   4.802
 1767TIP3    H1 5237   1.732  -0.279   4.795
 1767TIP3    H2 5238   1.793  -0.417   4.786
 1768TIP3   OH2 5239   1.615   0.906   4.626
 1768TIP3    H1 5240   1.614   0.930   4.532
 1768TIP3    H2 5241   1.697   0.952   4.656
 1769TIP3   OH2 5242   1.646  -0.001   4.306
 1769TIP3    H1 5243   1.682   0.051   4.230
 1769TIP3    H2 5244   1.565  -0.041   4.266
 1770TIP3   OH2 5245   1.324   0.335   4.600
 1770TIP3    H1 5246   1.227   0.347   4.593
 1770TIP3    H2 5247   1.343   0.397   4.674
 1771TIP3   OH2 5248   1.936   0.274   4.564
 1771TIP3    H1 5249   1.838   0.262   4.560
 1771TIP3    H2 5250   1.961   0.243   4.474
 1772TIP3   OH2 5251   1.428  -0.150   4.216
 1772TIP3    H1 5252   1.337  -0.172   4.245
 1772TIP3    H2 5253   1.445  -0.218   4.149
 1773TIP3   OH2 5254   0.830   0.447   4.477
 1773TIP3    H1 5255   0.853   0.511   4.407
 1773TIP3    H2 5256   0.917   0.425   4.513
 1774TIP3   OH2 5257   1.246   0.099   4.412
 1774TIP3    H1 5258   1.219   0.109   4.504
 1774TIP3    H2 5259   1.343   0.100   4.421
 1775TIP3   OH2 5260   1.444   0.596   4.464
 1775TIP3    H1 5261   1.361   0.546   4.449
 1775TIP3    H2 5262   1.437   0.662   4.391
 1776TIP3   OH2 5263   1.470   0.566   4.058
 1776TIP3    H1 5264   1.424   0.617   3.988
 1776TIP3    H2 5265   1.563   0.588   4.036
 1777TIP3   OH2 5266   1.362   0.465   4.847
 1777TIP3    H1 5267   1.402   0.389   4.891
 1777TIP3    H2 5268   1.434   0.531   4.856
 1778TIP3   OH2 5269   1.471   0.106   4.624
 1778TIP3    H1 5270   1.555   0.136   4.582
 1778TIP3    H2 5271   1.421   0.191   4.621
 1779TIP3   OH2 5272   1.634  -0.065   4.786
 1779TIP3    H1 5273   1.577  -0.009   4.729
 1779TIP3    H2 5274   1.722  -0.039   4.751
 1780TIP3   OH2 5275   1.724   0.654   4.020
 1780TIP3    H1 5276   1.751   0.692   4.106
 1780TIP3    H2 5277   1.783   0.700   3.958
 1781TIP3   OH2 5278   1.751   0.680   4.303
 1781TIP3    H1 5279   1.707   0.592   4.295
 1781TIP3    H2 5280   1.826   0.655   4.360
 1782TIP3   OH2 5281   1.794   0.358   4.870
 1782TIP3    H1 5282   1.725   0.364   4.939
 1782TIP3    H2 5283   1.839   0.444   4.880
 1783TIP3   OH2 5284   1.798   0.130   4.124
 1783TIP3    H1 5285   1.851   0.063   4.076
 1783TIP3    H2 5286   1.798   0.205   4.061
 1784TIP3   OH2 5287   1.624   0.429   4.323
 1784TIP3    H1 5288   1.552   0.473   4.372
 1784TIP3    H2 5289   1.575   0.384   4.251
 1785TIP3   OH2 5290   1.866   0.026   4.685
 1785TIP3    H1 5291   1.935  -0.044   4.678
 1785TIP3    H2 5292   1.902   0.097   4.628
 1786TIP3   OH2 5293   2.030  -0.184   4.704
 1786TIP3    H1 5294   1.957  -0.236   4.744
 1786TIP3    H2 5295   2.105  -0.244   4.724
 1787TIP3   OH2 5296   1.705  -0.514   4.245
 1787TIP3    H1 5297   1.785  -0.489   4.195
 1787TIP3    H2 5298   1.723  -0.468   4.329
 1788TIP3   OH2 5299   1.762  -0.355   4.466
 1788TIP3    H1 5300   1.677  -0.316   4.495
 1788TIP3    H2 5301   1.805  -0.279   4.421
 1789TIP3   OH2 5302   1.288   0.544   3.668
 1789TIP3    H1 5303   1.324   0.492   3.595
 1789TIP3    H2 5304   1.367   0.577   3.714
 1790TIP3   OH2 5305   1.030   0.615   4.750
 1790TIP3    H1 5306   1.071   0.607   4.839
 1790TIP3    H2 5307   1.098   0.668   4.702
 1791TIP3   OH2 5308   1.214   0.759   4.607
 1791TIP3    H1 5309   1.283   0.713   4.557
 1791TIP3    H2 5310   1.268   0.817   4.665
 1792TIP3   OH2 5311   0.931   0.628   4.283
 1792TIP3    H1 5312   0.854   0.644   4.224
 1792TIP3    H2 5313   0.945   0.718   4.319
 1793TIP3   OH2 5314   1.195   0.569   4.340
 1793TIP3    H1 5315   1.099   0.585   4.323
 1793TIP3    H2 5316   1.235   0.643   4.291
 1794TIP3   OH2 5317   1.401   0.758   4.248
 1794TIP3    H1 5318   1.383   0.842   4.201
 1794TIP3    H2 5319   1.425   0.698   4.174
 1795TIP3   OH2 5320   1.673   0.636   4.625
 1795TIP3    H1 5321   1.595   0.607   4.573
 1795TIP3    H2 5322   1.656   0.732   4.631
 1796TIP3   OH2 5323   2.942   0.004   3.393
 1796TIP3    H1 5324   2.913   0.096   3.373
 1796TIP3    H2 5325   2.871  -0.046   3.350
 1797TIP3   OH2 5326   2.936   0.012   3.780
 1797TIP3    H1 5327   2.973  -0.010   3.868
 1797TIP3    H2 5328   2.903  -0.074   3.750
 1798TIP3   OH2 5329   2.235  -0.098   4.141
 1798TIP3    H1 5330   2.266  -0.169   4.201
 1798TIP3    H2 5331   2.314  -0.043   4.137
 1799TIP3   OH2 5332   3.186   0.314   3.457
 1799TIP3    H1 5333   3.177   0.246   3.525
 1799TIP3    H2 5334   3.216   0.391   3.510
 1800TIP3   OH2 5335   2.213   0.309   3.860
 1800TIP3    H1 5336   2.203   0.212   3.862
 1800TIP3    H2 5337   2.310   0.318   3.857
 1801TIP3   OH2 5338   2.002  -0.182   3.784
 1801TIP3    H1 5339   2.029  -0.263   3.831
 1801TIP3    H2 5340   2.079  -0.122   3.799
 1802TIP3   OH2 5341   2.843   0.777   3.475
 1802TIP3    H1 5342   2.881   0.706   3.418
 1802TIP3    H2 5343   2.836   0.731   3.560
 1803TIP3   OH2 5344   2.741   0.234   3.822
 1803TIP3    H1 5345   2.784   0.156   3.784
 1803TIP3    H2 5346   2.822   0.283   3.847
 1804TIP3   OH2 5347   3.158  -0.264   3.868
 1804TIP3    H1 5348   3.179  -0.353   3.899
 1804TIP3    H2 5349   3.121  -0.279   3.779
 1805TIP3   OH2 5350   2.430  -0.651   3.806
 1805TIP3    H1 5351   2.431  -0.565   3.758
 1805TIP3    H2 5352   2.407  -0.714   3.738
 1806TIP3   OH2 5353   3.150  -0.490   3.495
 1806TIP3    H1 5354   3.211  -0.537   3.557
 1806TIP3    H2 5355   3.204  -0.492   3.414
 1807TIP3   OH2 5356   2.097  -0.406   3.911
 1807TIP3    H1 5357   2.188  -0.398   3.948
 1807TIP3    H2 5358   2.107  -0.489   3.862
 1808TIP3   OH2 5359   2.560  -0.208   3.719
 1808TIP3    H1 5360   2.656  -0.225   3.737
 1808TIP3    H2 5361   2.529  -0.299   3.703
 1809TIP3   OH2 5362   3.783  -0.251   4.026
 1809TIP3    H1 5363   3.708  -0.204   3.985
 1809TIP3    H2 5364   3.831  -0.177   4.067
 1810TIP3   OH2 5365   2.828   0.225   3.262
 1810TIP3    H1 5366   2.797   0.218   3.170
 1810TIP3    H2 5367   2.784   0.308   3.290
 1811TIP3   OH2 5368   2.593   0.154   4.043
 1811TIP3    H1 5369   2.534   0.223   4.082
 1811TIP3    H2 5370   2.639   0.203   3.972
 1812TIP3   OH2 5371   2.350  -0.432   3.989
 1812TIP3    H1 5372   2.424  -0.390   4.038
 1812TIP3    H2 5373   2.380  -0.524   3.990
 1813TIP3   OH2 5374   2.423   0.351   4.144
 1813TIP3    H1 5375   2.397   0.439   4.110
 1813TIP3    H2 5376   2.345   0.332   4.201
 1814TIP3   OH2 5377   3.242   0.551   3.609
 1814TIP3    H1 5378   3.154   0.545   3.652
 1814TIP3    H2 5379   3.240   0.641   3.571
 1815TIP3   OH2 5380   2.950   0.603   3.286
 1815TIP3    H1 5381   3.002   0.521   3.272
 1815TIP3    H2 5382   3.014   0.669   3.250
 1816TIP3   OH2 5383   3.096   0.385   3.207
 1816TIP3    H1 5384   3.066   0.302   3.170
 1816TIP3    H2 5385   3.136   0.355   3.292
 1817TIP3   OH2 5386   3.482   0.457   3.975
 1817TIP3    H1 5387   3.474   0.382   3.912
 1817TIP3    H2 5388   3.467   0.533   3.914
 1818TIP3   OH2 5389   2.779  -0.140   3.218
 1818TIP3    H1 5390   2.699  -0.093   3.191
 1818TIP3    H2 5391   2.825  -0.156   3.132
 1819TIP3   OH2 5392   3.681   0.109   3.814
 1819TIP3    H1 5393   3.596   0.159   3.818
 1819TIP3    H2 5394   3.709   0.131   3.722
 1820TIP3   OH2 5395   3.125  -0.045   3.196
 1820TIP3    H1 5396   3.070  -0.028   3.275
 1820TIP3    H2 5397   3.209  -0.074   3.238
 1821TIP3   OH2 5398   3.360  -0.017   4.112
 1821TIP3    H1 5399   3.352   0.063   4.168
 1821TIP3    H2 5400   3.274  -0.015   4.066
 1822TIP3   OH2 5401   2.358  -0.062   3.610
 1822TIP3    H1 5402   2.338  -0.111   3.528
 1822TIP3    H2 5403   2.434  -0.112   3.647
 1823TIP3   OH2 5404   2.484   0.354   3.758
 1823TIP3    H1 5405   2.466   0.319   3.670
 1823TIP3    H2 5406   2.573   0.318   3.777
 1824TIP3   OH2 5407   2.483  -0.086   3.966
 1824TIP3    H1 5408   2.523  -0.115   3.882
 1824TIP3    H2 5409   2.533  -0.003   3.987
 1825TIP3   OH2 5410   3.005   0.547   3.741
 1825TIP3    H1 5411   3.001   0.627   3.796
 1825TIP3    H2 5412   2.998   0.475   3.807
 1826TIP3   OH2 5413   2.629   0.470   4.289
 1826TIP3    H1 5414   2.568   0.530   4.338
 1826TIP3    H2 5415   2.564   0.415   4.241
 1827TIP3   OH2 5416   2.974  -0.191   3.021
 1827TIP3    H1 5417   3.033  -0.134   3.076
 1827TIP3    H2 5418   3.002  -0.169   2.930
 1828TIP3   OH2 5419   2.374   0.036   4.384
 1828TIP3    H1 5420   2.381   0.120   4.435
 1828TIP3    H2 5421   2.282   0.011   4.404
 1829TIP3   OH2 5422   2.707   0.475   3.303
 1829TIP3    H1 5423   2.789   0.529   3.306
 1829TIP3    H2 5424   2.648   0.530   3.250
 1830TIP3   OH2 5425   2.420   0.634   4.377
 1830TIP3    H1 5426   2.385   0.633   4.287
 1830TIP3    H2 5427   2.340   0.614   4.431
 1831TIP3   OH2 5428   3.278   0.408   2.617
 1831TIP3    H1 5429   3.285   0.505   2.605
 1831TIP3    H2 5430   3.371   0.380   2.604
 1832TIP3   OH2 5431   2.000   0.168   4.324
 1832TIP3    H1 5432   1.937   0.144   4.253
 1832TIP3    H2 5433   2.039   0.081   4.348
 1833TIP3   OH2 5434   1.857   0.356   3.961
 1833TIP3    H1 5435   1.953   0.358   3.950
 1833TIP3    H2 5436   1.841   0.438   4.010
 1834TIP3   OH2 5437   2.818   0.603   4.141
 1834TIP3    H1 5438   2.819   0.693   4.179
 1834TIP3    H2 5439   2.753   0.558   4.201
 1835TIP3   OH2 5440   2.590   0.728   3.104
 1835TIP3    H1 5441   2.548   0.709   3.018
 1835TIP3    H2 5442   2.556   0.816   3.127
 1836TIP3   OH2 5443   2.033   0.591   3.486
 1836TIP3    H1 5444   2.076   0.575   3.573
 1836TIP3    H2 5445   1.983   0.506   3.475
 1837TIP3   OH2 5446   2.789   0.628   2.743
 1837TIP3    H1 5447   2.846   0.557   2.707
 1837TIP3    H2 5448   2.822   0.634   2.836
 1838TIP3   OH2 5449   2.839   0.673   3.012
 1838TIP3    H1 5450   2.750   0.682   3.053
 1838TIP3    H2 5451   2.889   0.634   3.086
 1839TIP3   OH2 5452   3.616  -0.061   4.236
 1839TIP3    H1 5453   3.528  -0.038   4.201
 1839TIP3    H2 5454   3.591  -0.110   4.318
 1840TIP3   OH2 5455   2.205   0.351   4.309
 1840TIP3    H1 5456   2.256   0.336   4.392
 1840TIP3    H2 5457   2.132   0.287   4.318
 1841TIP3   OH2 5458   3.353  -0.287   4.244
 1841TIP3    H1 5459   3.403  -0.262   4.325
 1841TIP3    H2 5460   3.362  -0.206   4.190
 1842TIP3   OH2 5461   3.041  -0.133   2.758
 1842TIP3    H1 5462   3.038  -0.167   2.668
 1842TIP3    H2 5463   3.125  -0.084   2.754
 1843TIP3   OH2 5464   2.552  -0.301   4.129
 1843TIP3    H1 5465   2.494  -0.285   4.206
 1843TIP3    H2 5466   2.535  -0.221   4.075
 1844TIP3   OH2 5467   2.423  -0.443   3.621
 1844TIP3    H1 5468   2.328  -0.436   3.603
 1844TIP3    H2 5469   2.461  -0.456   3.533
 1845TIP3   OH2 5470   2.903  -0.343   3.355
 1845TIP3    H1 5471   2.863  -0.269   3.306
 1845TIP3    H2 5472   2.967  -0.378   3.288
 1846TIP3   OH2 5473   3.096  -0.034   4.432
 1846TIP3    H1 5474   3.073  -0.115   4.482
 1846TIP3    H2 5475   3.192  -0.037   4.433
 1847TIP3   OH2 5476   3.045  -0.273   3.616
 1847TIP3    H1 5477   2.993  -0.229   3.546
 1847TIP3    H2 5478   3.071  -0.355   3.566
 1848TIP3   OH2 5479   2.353  -0.277   4.327
 1848TIP3    H1 5480   2.384  -0.217   4.397
 1848TIP3    H2 5481   2.342  -0.361   4.374
 1849TIP3   OH2 5482   3.065  -0.061   4.018
 1849TIP3    H1 5483   3.106  -0.131   3.961
 1849TIP3    H2 5484   3.045  -0.115   4.097
 1850TIP3   OH2 5485   3.401   1.182   4.125
 1850TIP3    H1 5486   3.428   1.125   4.052
 1850TIP3    H2 5487   3.488   1.210   4.159
 1851TIP3   OH2 5488   2.366   0.276   4.532
 1851TIP3    H1 5489   2.447   0.302   4.579
 1851TIP3    H2 5490   2.303   0.273   4.607
 1852TIP3   OH2 5491   2.816  -0.270   3.788
 1852TIP3    H1 5492   2.899  -0.301   3.748
 1852TIP3    H2 5493   2.823  -0.307   3.880
 1853TIP3   OH2 5494   2.825  -0.348   4.049
 1853TIP3    H1 5495   2.736  -0.345   4.090
 1853TIP3    H2 5496   2.881  -0.308   4.119
 1854TIP3   OH2 5497   2.533   0.001   3.180
 1854TIP3    H1 5498   2.438  -0.015   3.189
 1854TIP3    H2 5499   2.546   0.044   3.268
 1855TIP3   OH2 5500   3.444   0.247   3.799
 1855TIP3    H1 5501   3.469   0.300   3.720
 1855TIP3    H2 5502   3.358   0.208   3.772
 1856TIP3   OH2 5503   2.933   0.327   4.171
 1856TIP3    H1 5504   2.979   0.310   4.255
 1856TIP3    H2 5505   2.905   0.420   4.180
 1857TIP3   OH2 5506   3.066  -0.422   3.149
 1857TIP3    H1 5507   3.164  -0.412   3.151
 1857TIP3    H2 5508   3.039  -0.350   3.088
 1858TIP3   OH2 5509   2.224   0.012   3.844
 1858TIP3    H1 5510   2.273  -0.002   3.761
 1858TIP3    H2 5511   2.287  -0.026   3.910
 1859TIP3   OH2 5512   2.687   0.163   3.013
 1859TIP3    H1 5513   2.645   0.252   3.024
 1859TIP3    H2 5514   2.631   0.109   3.071
 1860TIP3   OH2 5515   2.117  -0.041   4.465
 1860TIP3    H1 5516   2.146  -0.057   4.557
 1860TIP3    H2 5517   2.052  -0.111   4.452
 1861TIP3   OH2 5518   2.844   0.075   4.486
 1861TIP3    H1 5519   2.785   0.018   4.433
 1861TIP3    H2 5520   2.933   0.047   4.454
 1862TIP3   OH2 5521   3.098   0.590   4.068
 1862TIP3    H1 5522   3.001   0.594   4.080
 1862TIP3    H2 5523   3.128   0.644   4.144
 1863TIP3   OH2 5524   3.519  -0.339   2.961
 1863TIP3    H1 5525   3.458  -0.390   2.902
 1863TIP3    H2 5526   3.501  -0.249   2.926
 1864TIP3   OH2 5527   3.739   0.498   4.066
 1864TIP3    H1 5528   3.644   0.521   4.058
 1864TIP3    H2 5529   3.760   0.485   3.971
 1865TIP3   OH2 5530   3.210   0.483   2.882
 1865TIP3    H1 5531   3.188   0.413   2.946
 1865TIP3    H2 5532   3.225   0.434   2.800
 1866TIP3   OH2 5533   3.207   0.117   3.712
 1866TIP3    H1 5534   3.114   0.090   3.728
 1866TIP3    H2 5535   3.243   0.036   3.671
 1867TIP3   OH2 5536   2.335   0.341   3.472
 1867TIP3    H1 5537   2.333   0.423   3.419
 1867TIP3    H2 5538   2.240   0.321   3.477
 1868TIP3   OH2 5539   2.473   0.109   3.419
 1868TIP3    H1 5540   2.438   0.200   3.434
 1868TIP3    H2 5541   2.442   0.064   3.500
 1869TIP3   OH2 5542   2.612   0.677   3.946
 1869TIP3    H1 5543   2.666   0.736   3.892
 1869TIP3    H2 5544   2.681   0.636   4.002
 1870TIP3   OH2 5545   2.257   0.577   3.323
 1870TIP3    H1 5546   2.172   0.589   3.371
 1870TIP3    H2 5547   2.291   0.669   3.323
 1871TIP3   OH2 5548   2.991   0.319   3.903
 1871TIP3    H1 5549   2.980   0.315   4.001
 1871TIP3    H2 5550   3.074   0.269   3.892
 1872TIP3   OH2 5551   2.978   0.215   2.780
 1872TIP3    H1 5552   3.027   0.189   2.862
 1872TIP3    H2 5553   2.888   0.184   2.802
 1873TIP3   OH2 5554   3.219   0.873   3.968
 1873TIP3    H1 5555   3.165   0.794   3.951
 1873TIP3    H2 5556   3.214   0.921   3.884
 1874TIP3   OH2 5557   3.307   0.683   2.603
 1874TIP3    H1 5558   3.346   0.757   2.553
 1874TIP3    H2 5559   3.226   0.728   2.636
 1875TIP3   OH2 5560   3.132   0.144   2.997
 1875TIP3    H1 5561   3.122   0.080   3.071
 1875TIP3    H2 5562   3.229   0.142   2.987
 1876TIP3   OH2 5563   2.047   0.544   4.100
 1876TIP3    H1 5564   2.100   0.471   4.136
 1876TIP3    H2 5565   2.072   0.617   4.159
 1877TIP3   OH2 5566   2.284   0.201   3.033
 1877TIP3    H1 5567   2.328   0.180   3.115
 1877TIP3    H2 5568   2.279   0.299   3.040
 1878TIP3   OH2 5569   2.555   0.396   3.026
 1878TIP3    H1 5570   2.467   0.429   3.055
 1878TIP3    H2 5571   2.552   0.415   2.931
 1879TIP3   OH2 5572   2.711  -0.530   3.403
 1879TIP3    H1 5573   2.777  -0.458   3.395
 1879TIP3    H2 5574   2.763  -0.596   3.453
 1880TIP3   OH2 5575   3.017  -0.230   4.227
 1880TIP3    H1 5576   3.009  -0.178   4.309
 1880TIP3    H2 5577   3.093  -0.286   4.249
 1881TIP3   OH2 5578   2.292   0.468   3.073
 1881TIP3    H1 5579   2.262   0.540   3.012
 1881TIP3    H2 5580   2.273   0.508   3.161
 1882TIP3   OH2 5581   3.294  -0.128   3.597
 1882TIP3    H1 5582   3.216  -0.181   3.618
 1882TIP3    H2 5583   3.366  -0.178   3.643
 1883TIP3   OH2 5584   3.265   0.826   3.544
 1883TIP3    H1 5585   3.224   0.878   3.472
 1883TIP3    H2 5586   3.360   0.847   3.528
 1884TIP3   OH2 5587   1.916   0.348   3.456
 1884TIP3    H1 5588   1.821   0.331   3.464
 1884TIP3    H2 5589   1.933   0.308   3.368
 1885TIP3   OH2 5590   2.039   0.860   4.523
 1885TIP3    H1 5591   2.125   0.862   4.572
 1885TIP3    H2 5592   2.022   0.765   4.522
 1886TIP3   OH2 5593   2.512   0.817   4.566
 1886TIP3    H1 5594   2.607   0.800   4.577
 1886TIP3    H2 5595   2.490   0.753   4.495
 1887TIP3   OH2 5596   2.514   0.404   2.752
 1887TIP3    H1 5597   2.446   0.335   2.762
 1887TIP3    H2 5598   2.536   0.390   2.658
 1888TIP3   OH2 5599   3.148   0.727   4.302
 1888TIP3    H1 5600   3.146   0.657   4.372
 1888TIP3    H2 5601   3.229   0.777   4.326
 1889TIP3   OH2 5602   2.933   0.431   2.612
 1889TIP3    H1 5603   2.972   0.367   2.676
 1889TIP3    H2 5604   3.003   0.437   2.544
 1890TIP3   OH2 5605   2.166   0.264   4.724
 1890TIP3    H1 5606   2.183   0.168   4.733
 1890TIP3    H2 5607   2.079   0.266   4.678
 1891TIP3   OH2 5608   2.771   0.348   4.499
 1891TIP3    H1 5609   2.735   0.366   4.410
 1891TIP3    H2 5610   2.804   0.256   4.491
 1892TIP3   OH2 5611   2.684   0.103   2.742
 1892TIP3    H1 5612   2.676   0.130   2.837
 1892TIP3    H2 5613   2.699   0.008   2.751
 1893TIP3   OH2 5614   3.260   0.360   4.103
 1893TIP3    H1 5615   3.341   0.397   4.062
 1893TIP3    H2 5616   3.197   0.433   4.086
 1894TIP3   OH2 5617   2.292  -0.003   4.703
 1894TIP3    H1 5618   2.373  -0.054   4.685
 1894TIP3    H2 5619   2.312   0.028   4.794
 1895TIP3   OH2 5620   2.617  -0.095   4.364
 1895TIP3    H1 5621   2.536  -0.038   4.360
 1895TIP3    H2 5622   2.666  -0.066   4.284
 1896TIP3   OH2 5623   3.138   0.283   4.500
 1896TIP3    H1 5624   3.217   0.255   4.451
 1896TIP3    H2 5625   3.132   0.213   4.568
 1897TIP3   OH2 5626   3.281  -0.051   2.644
 1897TIP3    H1 5627   3.253  -0.098   2.562
 1897TIP3    H2 5628   3.248   0.039   2.621
 1898TIP3   OH2 5629   2.705  -0.315   4.489
 1898TIP3    H1 5630   2.659  -0.378   4.430
 1898TIP3    H2 5631   2.679  -0.230   4.446
 1899TIP3   OH2 5632   2.779  -0.006   4.169
 1899TIP3    H1 5633   2.865   0.000   4.123
 1899TIP3    H2 5634   2.726   0.061   4.122
 1900TIP3   OH2 5635   3.388   0.210   4.289
 1900TIP3    H1 5636   3.333   0.267   4.230
 1900TIP3    H2 5637   3.477   0.230   4.251
 1901TIP3   OH2 5638   2.583  -0.184   4.713
 1901TIP3    H1 5639   2.549  -0.257   4.766
 1901TIP3    H2 5640   2.642  -0.229   4.650
 1902TIP3   OH2 5641   2.986  -0.258   4.527
 1902TIP3    H1 5642   3.015  -0.291   4.615
 1902TIP3    H2 5643   2.890  -0.272   4.532
 1903TIP3   OH2 5644   2.261   0.664   2.884
 1903TIP3    H1 5645   2.358   0.667   2.872
 1903TIP3    H2 5646   2.235   0.720   2.809
 1904TIP3   OH2 5647   1.649   0.659   3.512
 1904TIP3    H1 5648   1.602   0.589   3.465
 1904TIP3    H2 5649   1.697   0.608   3.581
 1905TIP3   OH2 5650   1.776   0.528   3.712
 1905TIP3    H1 5651   1.779   0.445   3.762
 1905TIP3    H2 5652   1.836   0.584   3.765
 1906TIP3   OH2 5653   3.519   0.924   3.510
 1906TIP3    H1 5654   3.562   0.953   3.591
 1906TIP3    H2 5655   3.585   0.947   3.443
 1907TIP3   OH2 5656   3.594   0.610   4.364
 1907TIP3    H1 5657   3.521   0.621   4.429
 1907TIP3    H2 5658   3.636   0.698   4.365
 1908TIP3   OH2 5659   3.410   0.126   2.973
 1908TIP3    H1 5660   3.478   0.191   2.946
 1908TIP3    H2 5661   3.452   0.088   3.054
 1909TIP3   OH2 5662   3.533  -0.001   3.178
 1909TIP3    H1 5663   3.469  -0.043   3.240
 1909TIP3    H2 5664   3.601   0.036   3.239
 1910TIP3   OH2 5665   3.591   0.385   3.611
 1910TIP3    H1 5666   3.647   0.319   3.565
 1910TIP3    H2 5667   3.585   0.457   3.546
 1911TIP3   OH2 5668   3.423   0.658   3.806
 1911TIP3    H1 5669   3.382   0.738   3.842
 1911TIP3    H2 5670   3.363   0.630   3.735
 1912TIP3   OH2 5671   3.468  -0.102   2.830
 1912TIP3    H1 5672   3.402  -0.087   2.759
 1912TIP3    H2 5673   3.446  -0.026   2.888
 1913TIP3   OH2 5674   3.339  -0.429   2.779
 1913TIP3    H1 5675   3.316  -0.347   2.732
 1913TIP3    H2 5676   3.248  -0.469   2.788
 1914TIP3   OH2 5677   3.349  -0.139   3.324
 1914TIP3    H1 5678   3.348  -0.234   3.301
 1914TIP3    H2 5679   3.336  -0.139   3.421
 1915TIP3   OH2 5680   1.973  -0.079   4.071
 1915TIP3    H1 5681   1.971  -0.107   3.978
 1915TIP3    H2 5682   2.070  -0.078   4.089
 1916TIP3   OH2 5683   3.635   0.269   4.187
 1916TIP3    H1 5684   3.712   0.209   4.177
 1916TIP3    H2 5685   3.660   0.344   4.129
 1917TIP3   OH2 5686   3.834   0.085   4.196
 1917TIP3    H1 5687   3.755   0.028   4.213
 1917TIP3    H2 5688   3.905   0.022   4.222
 1918TIP3   OH2 5689   3.343  -0.390   3.189
 1918TIP3    H1 5690   3.366  -0.469   3.244
 1918TIP3    H2 5691   3.411  -0.393   3.119
 1919TIP3   OH2 5692   3.503  -0.262   3.714
 1919TIP3    H1 5693   3.590  -0.237   3.674
 1919TIP3    H2 5694   3.515  -0.221   3.802
 1920TIP3   OH2 5695   3.566  -0.112   3.936
 1920TIP3    H1 5696   3.497  -0.078   3.995
 1920TIP3    H2 5697   3.603  -0.030   3.897
 1921TIP3   OH2 5698   2.192  -0.398   4.739
 1921TIP3    H1 5699   2.288  -0.403   4.747
 1921TIP3    H2 5700   2.165  -0.484   4.776
 1922TIP3   OH2 5701   1.948  -0.422   4.148
 1922TIP3    H1 5702   1.997  -0.417   4.064
 1922TIP3    H2 5703   1.985  -0.348   4.197
 1923TIP3   OH2 5704   3.103   0.788   3.161
 1923TIP3    H1 5705   3.147   0.771   3.074
 1923TIP3    H2 5706   3.169   0.844   3.204
 1924TIP3   OH2 5707   2.200   0.590   4.541
 1924TIP3    H1 5708   2.107   0.563   4.529
 1924TIP3    H2 5709   2.215   0.569   4.634
 1925TIP3   OH2 5710   2.379   0.621   4.091
 1925TIP3    H1 5711   2.333   0.698   4.053
 1925TIP3    H2 5712   2.467   0.634   4.049
 1926TIP3   OH2 5713   2.823   0.869   4.224
 1926TIP3    H1 5714   2.866   0.865   4.313
 1926TIP3    H2 5715   2.890   0.919   4.173
 1927TIP3   OH2 5716   3.001   1.023   4.076
 1927TIP3    H1 5717   3.075   0.967   4.045
 1927TIP3    H2 5718   3.049   1.079   4.141
 1928TIP3   OH2 5719   2.057   0.879   4.115
 1928TIP3    H1 5720   1.966   0.908   4.094
 1928TIP3    H2 5721   2.070   0.922   4.201
 1929TIP3   OH2 5722   2.294   0.859   3.976
 1929TIP3    H1 5723   2.207   0.869   4.021
 1929TIP3    H2 5724   2.271   0.888   3.885
 1930TIP3   OH2 5725   2.719   0.890   3.754
 1930TIP3    H1 5726   2.634   0.882   3.706
 1930TIP3    H2 5727   2.693   0.934   3.837
 1931TIP3   OH2 5728   2.985   0.816   3.813
 1931TIP3    H1 5729   2.896   0.840   3.781
 1931TIP3    H2 5730   3.039   0.889   3.781
 1932TIP3   OH2 5731   3.185   1.013   3.730
 1932TIP3    H1 5732   3.178   1.097   3.678
 1932TIP3    H2 5733   3.218   0.951   3.661
 1933TIP3   OH2 5734   1.967   0.670   3.861
 1933TIP3    H1 5735   1.994   0.641   3.951
 1933TIP3    H2 5736   2.040   0.627   3.809
 1934TIP3   OH2 5737   2.165   0.544   3.723
 1934TIP3    H1 5738   2.178   0.457   3.768
 1934TIP3    H2 5739   2.257   0.576   3.718
 1935TIP3   OH2 5740   2.435   0.638   3.723
 1935TIP3    H1 5741   2.462   0.545   3.707
 1935TIP3    H2 5742   2.478   0.652   3.809
 1936TIP3   OH2 5743   1.704   0.435   3.247
 1936TIP3    H1 5744   1.608   0.429   3.240
 1936TIP3    H2 5745   1.717   0.529   3.220
 1937TIP3   OH2 5746   2.530   0.662   2.837
 1937TIP3    H1 5747   2.619   0.681   2.800
 1937TIP3    H2 5748   2.519   0.572   2.800
 1938TIP3   OH2 5749   3.244   0.750   2.926
 1938TIP3    H1 5750   3.236   0.652   2.912
 1938TIP3    H2 5751   3.200   0.783   2.845
 1939TIP3   OH2 5752   4.738   0.263   2.879
 1939TIP3    H1 5753   4.710   0.354   2.859
 1939TIP3    H2 5754   4.663   0.214   2.841
 1940TIP3   OH2 5755   4.742   0.267   3.263
 1940TIP3    H1 5756   4.771   0.242   3.352
 1940TIP3    H2 5757   4.697   0.187   3.232
 1941TIP3   OH2 5758   4.035   0.160   3.623
 1941TIP3    H1 5759   4.067   0.089   3.681
 1941TIP3    H2 5760   4.112   0.217   3.619
 1942TIP3   OH2 5761   4.986   0.565   2.946
 1942TIP3    H1 5762   4.967   0.501   3.015
 1942TIP3    H2 5763   5.014   0.643   2.997
 1943TIP3   OH2 5764   4.009   0.570   3.344
 1943TIP3    H1 5765   4.001   0.472   3.347
 1943TIP3    H2 5766   4.106   0.580   3.343
 1944TIP3   OH2 5767   3.707  -0.214   3.145
 1944TIP3    H1 5768   3.649  -0.136   3.156
 1944TIP3    H2 5769   3.648  -0.273   3.094
 1945TIP3   OH2 5770   3.767   0.070   3.305
 1945TIP3    H1 5771   3.809  -0.013   3.338
 1945TIP3    H2 5772   3.836   0.104   3.247
 1946TIP3   OH2 5773   4.635   1.030   2.960
 1946TIP3    H1 5774   4.676   0.958   2.907
 1946TIP3    H2 5775   4.625   0.987   3.046
 1947TIP3   OH2 5776   4.535   0.492   3.309
 1947TIP3    H1 5777   4.576   0.416   3.263
 1947TIP3    H2 5778   4.618   0.539   3.335
 1948TIP3   OH2 5779   4.957  -0.010   3.355
 1948TIP3    H1 5780   4.969  -0.102   3.381
 1948TIP3    H2 5781   4.917  -0.017   3.266
 1949TIP3   OH2 5782   4.277  -0.387   3.274
 1949TIP3    H1 5783   4.252  -0.298   3.240
 1949TIP3    H2 5784   4.194  -0.436   3.263
 1950TIP3   OH2 5785   4.947  -0.229   2.981
 1950TIP3    H1 5786   5.007  -0.279   3.039
 1950TIP3    H2 5787   4.997  -0.231   2.898
 1951TIP3   OH2 5788   3.898  -0.147   3.404
 1951TIP3    H1 5789   3.991  -0.144   3.438
 1951TIP3    H2 5790   3.911  -0.209   3.330
 1952TIP3   OH2 5791   4.357   0.054   3.210
 1952TIP3    H1 5792   4.450   0.028   3.225
 1952TIP3    H2 5793   4.317  -0.032   3.184
 1953TIP3   OH2 5794   5.586   0.003   3.506
 1953TIP3    H1 5795   5.512   0.056   3.470
 1953TIP3    H2 5796   5.643   0.071   3.546
 1954TIP3   OH2 5797   4.624   0.483   2.750
 1954TIP3    H1 5798   4.590   0.473   2.660
 1954TIP3    H2 5799   4.581   0.567   2.778
 1955TIP3   OH2 5800   4.392   0.410   3.532
 1955TIP3    H1 5801   4.331   0.478   3.568
 1955TIP3    H2 5802   4.433   0.459   3.458
 1956TIP3   OH2 5803   4.155  -0.181   3.471
 1956TIP3    H1 5804   4.224  -0.136   3.523
 1956TIP3    H2 5805   4.184  -0.273   3.478
 1957TIP3   OH2 5806   4.223   0.607   3.630
 1957TIP3    H1 5807   4.197   0.695   3.596
 1957TIP3    H2 5808   4.144   0.588   3.685
 1958TIP3   OH2 5809   3.611   0.298   2.869
 1958TIP3    H1 5810   3.571   0.328   2.786
 1958TIP3    H2 5811   3.643   0.382   2.907
 1959TIP3   OH2 5812   5.053   0.812   3.108
 1959TIP3    H1 5813   4.963   0.804   3.148
 1959TIP3    H2 5814   5.044   0.898   3.062
 1960TIP3   OH2 5815   4.750   0.857   2.778
 1960TIP3    H1 5816   4.801   0.775   2.759
 1960TIP3    H2 5817   4.813   0.923   2.740
 1961TIP3   OH2 5818   4.893   0.640   2.696
 1961TIP3    H1 5819   4.866   0.559   2.650
 1961TIP3    H2 5820   4.931   0.604   2.779
 1962TIP3   OH2 5821   5.280   0.721   3.453
 1962TIP3    H1 5822   5.265   0.645   3.393
 1962TIP3    H2 5823   5.259   0.797   3.394
 1963TIP3   OH2 5824   4.569   0.123   2.709
 1963TIP3    H1 5825   4.489   0.174   2.687
 1963TIP3    H2 5826   4.613   0.115   2.622
 1964TIP3   OH2 5827   4.523  -0.097   2.431
 1964TIP3    H1 5828   4.597  -0.048   2.473
 1964TIP3    H2 5829   4.575  -0.159   2.376
 1965TIP3   OH2 5830   5.476   0.369   3.302
 1965TIP3    H1 5831   5.390   0.417   3.304
 1965TIP3    H2 5832   5.503   0.388   3.210
 1966TIP3   OH2 5833   4.915   0.201   2.680
 1966TIP3    H1 5834   4.861   0.224   2.759
 1966TIP3    H2 5835   5.001   0.180   2.724
 1967TIP3   OH2 5836   5.149   0.240   3.597
 1967TIP3    H1 5837   5.143   0.322   3.649
 1967TIP3    H2 5838   5.062   0.242   3.552
 1968TIP3   OH2 5839   4.149   0.196   3.098
 1968TIP3    H1 5840   4.110   0.137   3.031
 1968TIP3    H2 5841   4.226   0.144   3.130
 1969TIP3   OH2 5842   4.280   0.610   3.245
 1969TIP3    H1 5843   4.261   0.572   3.157
 1969TIP3    H2 5844   4.369   0.574   3.264
 1970TIP3   OH2 5845   4.290   0.164   3.460
 1970TIP3    H1 5846   4.317   0.139   3.369
 1970TIP3    H2 5847   4.331   0.251   3.473
 1971TIP3   OH2 5848   4.813   0.806   3.231
 1971TIP3    H1 5849   4.798   0.887   3.284
 1971TIP3    H2 5850   4.795   0.734   3.294
 1972TIP3   OH2 5851   4.424   0.723   3.778
 1972TIP3    H1 5852   4.363   0.785   3.823
 1972TIP3    H2 5853   4.360   0.670   3.726
 1973TIP3   OH2 5854   4.755   0.056   2.509
 1973TIP3    H1 5855   4.814   0.118   2.557
 1973TIP3    H2 5856   4.781   0.075   2.415
 1974TIP3   OH2 5857   4.172   0.287   3.877
 1974TIP3    H1 5858   4.176   0.374   3.922
 1974TIP3    H2 5859   4.077   0.265   3.892
 1975TIP3   OH2 5860   4.503   0.734   2.785
 1975TIP3    H1 5861   4.586   0.787   2.792
 1975TIP3    H2 5862   4.444   0.795   2.739
 1976TIP3   OH2 5863   4.219   0.887   3.865
 1976TIP3    H1 5864   4.181   0.891   3.775
 1976TIP3    H2 5865   4.140   0.862   3.919
 1977TIP3   OH2 5866   4.018   0.040   2.899
 1977TIP3    H1 5867   3.947   0.083   2.847
 1977TIP3    H2 5868   3.981  -0.048   2.915
 1978TIP3   OH2 5869   5.083   0.670   2.107
 1978TIP3    H1 5870   5.109   0.764   2.106
 1978TIP3    H2 5871   5.172   0.629   2.106
 1979TIP3   OH2 5872   3.798   0.425   3.810
 1979TIP3    H1 5873   3.727   0.404   3.745
 1979TIP3    H2 5874   3.834   0.336   3.831
 1980TIP3   OH2 5875   3.653   0.619   3.437
 1980TIP3    H1 5876   3.749   0.609   3.430
 1980TIP3    H2 5877   3.647   0.686   3.507
 1981TIP3   OH2 5878   5.517   1.073   3.501
 1981TIP3    H1 5879   5.514   0.977   3.514
 1981TIP3    H2 5880   5.433   1.098   3.546
 1982TIP3   OH2 5881   4.621   0.851   3.636
 1982TIP3    H1 5882   4.618   0.945   3.666
 1982TIP3    H2 5883   4.549   0.812   3.689
 1983TIP3   OH2 5884   4.382   0.977   2.589
 1983TIP3    H1 5885   4.343   0.960   2.501
 1983TIP3    H2 5886   4.350   1.067   2.609
 1984TIP3   OH2 5887   3.819   0.830   2.972
 1984TIP3    H1 5888   3.868   0.823   3.057
 1984TIP3    H2 5889   3.769   0.747   2.973
 1985TIP3   OH2 5890   4.575   0.887   2.235
 1985TIP3    H1 5891   4.634   0.828   2.181
 1985TIP3    H2 5892   4.625   0.893   2.319
 1986TIP3   OH2 5893   4.639   0.938   2.504
 1986TIP3    H1 5894   4.549   0.942   2.542
 1986TIP3    H2 5895   4.689   0.898   2.577
 1987TIP3   OH2 5896   5.404   0.185   3.775
 1987TIP3    H1 5897   5.325   0.222   3.732
 1987TIP3    H2 5898   5.386   0.090   3.766
 1988TIP3   OH2 5899   4.003   0.606   3.790
 1988TIP3    H1 5900   4.046   0.599   3.878
 1988TIP3    H2 5901   3.927   0.545   3.801
 1989TIP3   OH2 5902   5.193  -0.011   3.724
 1989TIP3    H1 5903   5.141   0.008   3.802
 1989TIP3    H2 5904   5.164   0.058   3.661
 1990TIP3   OH2 5905   4.836   0.099   2.255
 1990TIP3    H1 5906   4.798   0.078   2.167
 1990TIP3    H2 5907   4.914   0.151   2.229
 1991TIP3   OH2 5908   4.352  -0.050   3.619
 1991TIP3    H1 5909   4.290  -0.032   3.693
 1991TIP3    H2 5910   4.336   0.029   3.562
 1992TIP3   OH2 5911   4.214  -0.166   3.123
 1992TIP3    H1 5912   4.120  -0.191   3.134
 1992TIP3    H2 5913   4.231  -0.197   3.031
 1993TIP3   OH2 5914   4.699  -0.077   2.847
 1993TIP3    H1 5915   4.652  -0.005   2.800
 1993TIP3    H2 5916   4.766  -0.104   2.781
 1994TIP3   OH2 5917   4.889   0.222   3.915
 1994TIP3    H1 5918   4.862   0.142   3.967
 1994TIP3    H2 5919   4.984   0.228   3.941
 1995TIP3   OH2 5920   4.843  -0.012   3.104
 1995TIP3    H1 5921   4.788   0.031   3.037
 1995TIP3    H2 5922   4.868  -0.093   3.054
 1996TIP3   OH2 5923   4.154  -0.019   3.810
 1996TIP3    H1 5924   4.160   0.049   3.879
 1996TIP3    H2 5925   4.129  -0.099   3.859
 1997TIP3   OH2 5926   3.787  -0.418   2.947
 1997TIP3    H1 5927   3.805  -0.427   2.852
 1997TIP3    H2 5928   3.692  -0.394   2.945
 1998TIP3   OH2 5929   4.872   0.196   3.505
 1998TIP3    H1 5930   4.909   0.125   3.448
 1998TIP3    H2 5931   4.847   0.142   3.583
 1999TIP3   OH2 5932   3.965  -0.293   3.166
 1999TIP3    H1 5933   3.873  -0.259   3.152
 1999TIP3    H2 5934   3.959  -0.375   3.116
 2000TIP3   OH2 5935   4.257  -0.268   2.875
 2000TIP3    H1 5936   4.348  -0.284   2.843
 2000TIP3    H2 5937   4.203  -0.280   2.794
 2001TIP3   OH2 5938   4.089  -0.286   2.649
 2001TIP3    H1 5939   4.015  -0.300   2.588
 2001TIP3    H2 5940   4.152  -0.243   2.588
 2002TIP3   OH2 5941   5.210   1.417   3.600
 2002TIP3    H1 5942   5.204   1.443   3.506
 2002TIP3    H2 5943   5.286   1.470   3.630
 2003TIP3   OH2 5944   4.163   0.528   4.021
 2003TIP3    H1 5945   4.242   0.559   4.069
 2003TIP3    H2 5946   4.096   0.534   4.091
 2004TIP3   OH2 5947   4.613  -0.014   3.276
 2004TIP3    H1 5948   4.697  -0.044   3.236
 2004TIP3    H2 5949   4.620  -0.049   3.368
 2005TIP3   OH2 5950   4.624  -0.089   3.536
 2005TIP3    H1 5951   4.533  -0.091   3.574
 2005TIP3    H2 5952   4.674  -0.044   3.607
 2006TIP3   OH2 5953   4.337   0.270   2.655
 2006TIP3    H1 5954   4.264   0.206   2.646
 2006TIP3    H2 5955   4.320   0.304   2.746
 2007TIP3   OH2 5956   5.238   0.504   3.287
 2007TIP3    H1 5957   5.261   0.556   3.207
 2007TIP3    H2 5958   5.152   0.464   3.261
 2008TIP3   OH2 5959   4.775  -0.351   2.481
 2008TIP3    H1 5960   4.713  -0.400   2.538
 2008TIP3    H2 5961   4.810  -0.285   2.545
 2009TIP3   OH2 5962   4.740   0.590   3.656
 2009TIP3    H1 5963   4.762   0.571   3.748
 2009TIP3    H2 5964   4.699   0.678   3.662
 2010TIP3   OH2 5965   4.874  -0.154   2.646
 2010TIP3    H1 5966   4.971  -0.141   2.651
 2010TIP3    H2 5967   4.847  -0.079   2.588
 2011TIP3   OH2 5968   4.033   0.291   3.334
 2011TIP3    H1 5969   4.074   0.262   3.249
 2011TIP3    H2 5970   4.074   0.231   3.397
 2012TIP3   OH2 5971   4.489   0.419   2.478
 2012TIP3    H1 5972   4.442   0.505   2.488
 2012TIP3    H2 5973   4.436   0.363   2.539
 2013TIP3   OH2 5974   3.916   0.206   3.947
 2013TIP3    H1 5975   3.926   0.194   4.043
 2013TIP3    H2 5976   3.838   0.150   3.927
 2014TIP3   OH2 5977   4.638   0.331   3.973
 2014TIP3    H1 5978   4.575   0.277   3.923
 2014TIP3    H2 5979   4.724   0.301   3.937
 2015TIP3   OH2 5980   4.899   0.847   3.554
 2015TIP3    H1 5981   4.802   0.846   3.566
 2015TIP3    H2 5982   4.926   0.900   3.632
 2016TIP3   OH2 5983   5.310  -0.081   2.448
 2016TIP3    H1 5984   5.250  -0.131   2.387
 2016TIP3    H2 5985   5.293   0.010   2.412
 2017TIP3   OH2 5986   5.530   0.782   3.540
 2017TIP3    H1 5987   5.432   0.775   3.532
 2017TIP3    H2 5988   5.555   0.751   3.450
 2018TIP3   OH2 5989   5.004   0.737   2.370
 2018TIP3    H1 5990   4.983   0.664   2.429
 2018TIP3    H2 5991   5.026   0.694   2.286
 2019TIP3   OH2 5992   5.004   0.371   3.204
 2019TIP3    H1 5993   4.911   0.345   3.217
 2019TIP3    H2 5994   5.039   0.291   3.158
 2020TIP3   OH2 5995   4.136   0.597   2.960
 2020TIP3    H1 5996   4.135   0.678   2.905
 2020TIP3    H2 5997   4.041   0.583   2.975
 2021TIP3   OH2 5998   3.691  -0.097   2.668
 2021TIP3    H1 5999   3.741  -0.015   2.691
 2021TIP3    H2 6000   3.618  -0.092   2.733
 2022TIP3   OH2 6001   4.265   0.359   2.900
 2022TIP3    H1 6002   4.233   0.449   2.920
 2022TIP3    H2 6003   4.231   0.309   2.977
 2023TIP3   OH2 6004   4.404   0.939   3.426
 2023TIP3    H1 6005   4.446   1.013   3.376
 2023TIP3    H2 6006   4.481   0.904   3.475
 2024TIP3   OH2 6007   4.051   0.836   2.811
 2024TIP3    H1 6008   3.966   0.846   2.858
 2024TIP3    H2 6009   4.085   0.928   2.815
 2025TIP3   OH2 6010   4.787   0.574   3.388
 2025TIP3    H1 6011   4.778   0.574   3.486
 2025TIP3    H2 6012   4.867   0.520   3.377
 2026TIP3   OH2 6013   4.771   0.465   2.271
 2026TIP3    H1 6014   4.825   0.439   2.350
 2026TIP3    H2 6015   4.682   0.451   2.307
 2027TIP3   OH2 6016   5.040   1.105   3.437
 2027TIP3    H1 6017   4.959   1.050   3.431
 2027TIP3    H2 6018   5.023   1.170   3.365
 2028TIP3   OH2 6019   4.928   0.402   2.489
 2028TIP3    H1 6020   4.918   0.334   2.559
 2028TIP3    H2 6021   5.025   0.398   2.476
 2029TIP3   OH2 6022   3.835   0.802   3.590
 2029TIP3    H1 6023   3.898   0.737   3.625
 2029TIP3    H2 6024   3.836   0.867   3.661
 2030TIP3   OH2 6025   4.122   0.430   2.267
 2030TIP3    H1 6026   4.213   0.389   2.255
 2030TIP3    H2 6027   4.116   0.436   2.365
 2031TIP3   OH2 6028   4.081   0.450   2.539
 2031TIP3    H1 6029   4.154   0.427   2.599
 2031TIP3    H2 6030   4.080   0.548   2.548
 2032TIP3   OH2 6031   3.807   0.144   2.748
 2032TIP3    H1 6032   3.742   0.190   2.806
 2032TIP3    H2 6033   3.823   0.214   2.682
 2033TIP3   OH2 6034   4.342   0.643   2.498
 2033TIP3    H1 6035   4.258   0.681   2.532
 2033TIP3    H2 6036   4.354   0.696   2.417
 2034TIP3   OH2 6037   4.544  -0.299   2.867
 2034TIP3    H1 6038   4.596  -0.215   2.864
 2034TIP3    H2 6039   4.548  -0.320   2.962
 2035TIP3   OH2 6040   4.814   0.033   3.716
 2035TIP3    H1 6041   4.810   0.099   3.788
 2035TIP3    H2 6042   4.855  -0.041   3.763
 2036TIP3   OH2 6043   4.083   0.723   2.560
 2036TIP3    H1 6044   4.057   0.794   2.497
 2036TIP3    H2 6045   4.070   0.767   2.647
 2037TIP3   OH2 6046   5.092   0.128   3.084
 2037TIP3    H1 6047   5.011   0.077   3.103
 2037TIP3    H2 6048   5.161   0.078   3.134
 2038TIP3   OH2 6049   3.805   0.349   2.552
 2038TIP3    H1 6050   3.868   0.423   2.565
 2038TIP3    H2 6051   3.851   0.302   2.480
 2039TIP3   OH2 6052   3.752  -0.366   2.658
 2039TIP3    H1 6053   3.734  -0.270   2.664
 2039TIP3    H2 6054   3.665  -0.406   2.669
 2040TIP3   OH2 6055   5.060   1.083   3.030
 2040TIP3    H1 6056   5.017   1.132   2.956
 2040TIP3    H2 6057   5.154   1.100   3.008
 2041TIP3   OH2 6058   3.669   0.565   2.936
 2041TIP3    H1 6059   3.609   0.597   3.004
 2041TIP3    H2 6060   3.635   0.611   2.855
 2042TIP3   OH2 6061   4.316   1.065   4.057
 2042TIP3    H1 6062   4.410   1.045   4.057
 2042TIP3    H2 6063   4.284   1.008   3.985
 2043TIP3   OH2 6064   4.288   0.656   2.204
 2043TIP3    H1 6065   4.232   0.577   2.213
 2043TIP3    H2 6066   4.342   0.634   2.127
 2044TIP3   OH2 6067   4.953   0.982   3.787
 2044TIP3    H1 6068   4.945   0.912   3.857
 2044TIP3    H2 6069   5.028   1.035   3.819
 2045TIP3   OH2 6070   4.737   0.703   2.101
 2045TIP3    H1 6071   4.766   0.632   2.161
 2045TIP3    H2 6072   4.814   0.714   2.043
 2046TIP3   OH2 6073   3.965   0.516   4.216
 2046TIP3    H1 6074   3.982   0.420   4.215
 2046TIP3    H2 6075   3.878   0.520   4.169
 2047TIP3   OH2 6076   3.955   0.163   2.397
 2047TIP3    H1 6077   4.003   0.126   2.475
 2047TIP3    H2 6078   4.019   0.229   2.366
 2048TIP3   OH2 6079   4.570   0.606   3.984
 2048TIP3    H1 6080   4.525   0.625   3.899
 2048TIP3    H2 6081   4.597   0.512   3.975
 2049TIP3   OH2 6082   4.376   0.340   2.235
 2049TIP3    H1 6083   4.427   0.373   2.311
 2049TIP3    H2 6084   4.420   0.254   2.219
 2050TIP3   OH2 6085   5.062   0.615   3.593
 2050TIP3    H1 6086   5.135   0.660   3.547
 2050TIP3    H2 6087   4.990   0.679   3.579
 2051TIP3   OH2 6088   4.091   0.253   4.195
 2051TIP3    H1 6089   4.176   0.214   4.169
 2051TIP3    H2 6090   4.113   0.288   4.284
 2052TIP3   OH2 6091   4.135   0.075   2.618
 2052TIP3    H1 6092   4.118   0.040   2.708
 2052TIP3    H2 6093   4.178  -0.002   2.575
 2053TIP3   OH2 6094   4.421   0.169   3.857
 2053TIP3    H1 6095   4.335   0.217   3.852
 2053TIP3    H2 6096   4.464   0.195   3.772
 2054TIP3   OH2 6097   4.249  -0.134   2.477
 2054TIP3    H1 6098   4.224  -0.140   2.382
 2054TIP3    H2 6099   4.347  -0.132   2.469
 2055TIP3   OH2 6100   4.937   0.541   3.988
 2055TIP3    H1 6101   5.005   0.501   3.932
 2055TIP3    H2 6102   4.923   0.471   4.056
 2056TIP3   OH2 6103   5.068   0.195   2.130
 2056TIP3    H1 6104   5.046   0.151   2.046
 2056TIP3    H2 6105   5.040   0.287   2.108
 2057TIP3   OH2 6106   4.501  -0.056   3.976
 2057TIP3    H1 6107   4.453  -0.118   3.917
 2057TIP3    H2 6108   4.476   0.030   3.933
 2058TIP3   OH2 6109   4.579   0.254   3.656
 2058TIP3    H1 6110   4.660   0.263   3.603
 2058TIP3    H2 6111   4.519   0.317   3.610
 2059TIP3   OH2 6112   5.142   0.216   4.022
 2059TIP3    H1 6113   5.177   0.157   4.093
 2059TIP3    H2 6114   5.220   0.269   3.999
 2060TIP3   OH2 6115   5.192   0.467   3.777
 2060TIP3    H1 6116   5.132   0.522   3.720
 2060TIP3    H2 6117   5.278   0.491   3.737
 2061TIP3   OH2 6118   4.386   0.066   4.210
 2061TIP3    H1 6119   4.338  -0.014   4.235
 2061TIP3    H2 6120   4.444   0.033   4.139
 2062TIP3   OH2 6121   4.781  -0.003   4.012
 2062TIP3    H1 6122   4.804  -0.033   4.102
 2062TIP3    H2 6123   4.684  -0.014   4.014
 2063TIP3   OH2 6124   4.055   0.925   2.372
 2063TIP3    H1 6125   4.151   0.921   2.357
 2063TIP3    H2 6126   4.029   0.979   2.295
 2064TIP3   OH2 6127   3.535   0.311   2.582
 2064TIP3    H1 6128   3.631   0.331   2.572
 2064TIP3    H2 6129   3.530   0.221   2.542
 2065TIP3   OH2 6130   3.445   0.921   3.012
 2065TIP3    H1 6131   3.381   0.859   2.970
 2065TIP3    H2 6132   3.493   0.860   3.072
 2066TIP3   OH2 6133   3.586   0.764   3.191
 2066TIP3    H1 6134   3.579   0.695   3.260
 2066TIP3    H2 6135   3.640   0.829   3.239
 2067TIP3   OH2 6136   5.318   1.163   2.992
 2067TIP3    H1 6137   5.341   1.203   3.077
 2067TIP3    H2 6138   5.373   1.213   2.930
 2068TIP3   OH2 6139   5.341   1.193   3.274
 2068TIP3    H1 6140   5.295   1.106   3.267
 2068TIP3    H2 6141   5.415   1.167   3.331
 2069TIP3   OH2 6142   5.392   0.867   3.848
 2069TIP3    H1 6143   5.318   0.877   3.911
 2069TIP3    H2 6144   5.431   0.957   3.850
 2070TIP3   OH2 6145   5.205   0.380   2.460
 2070TIP3    H1 6146   5.268   0.448   2.429
 2070TIP3    H2 6147   5.252   0.347   2.540
 2071TIP3   OH2 6148   5.333   0.254   2.666
 2071TIP3    H1 6149   5.264   0.215   2.725
 2071TIP3    H2 6150   5.394   0.296   2.731
 2072TIP3   OH2 6151   5.392   0.645   3.104
 2072TIP3    H1 6152   5.441   0.577   3.053
 2072TIP3    H2 6153   5.388   0.719   3.040
 2073TIP3   OH2 6154   5.217   0.941   3.295
 2073TIP3    H1 6155   5.145   0.985   3.345
 2073TIP3    H2 6156   5.168   0.896   3.223
 2074TIP3   OH2 6157   5.263   0.155   2.314
 2074TIP3    H1 6158   5.194   0.165   2.244
 2074TIP3    H2 6159   5.239   0.233   2.369
 2075TIP3   OH2 6160   5.136  -0.185   2.257
 2075TIP3    H1 6161   5.107  -0.109   2.206
 2075TIP3    H2 6162   5.088  -0.256   2.211
 2076TIP3   OH2 6163   5.146   0.121   2.810
 2076TIP3    H1 6164   5.146   0.025   2.787
 2076TIP3    H2 6165   5.131   0.120   2.908
 2077TIP3   OH2 6166   3.771   0.180   3.561
 2077TIP3    H1 6167   3.768   0.149   3.468
 2077TIP3    H2 6168   3.868   0.181   3.576
 2078TIP3   OH2 6169   5.436   0.531   3.671
 2078TIP3    H1 6170   5.508   0.466   3.658
 2078TIP3    H2 6171   5.456   0.599   3.604
 2079TIP3   OH2 6172   5.618   0.331   3.683
 2079TIP3    H1 6173   5.543   0.278   3.718
 2079TIP3    H2 6174   5.692   0.270   3.704
 2080TIP3   OH2 6175   5.147  -0.130   2.684
 2080TIP3    H1 6176   5.173  -0.210   2.735
 2080TIP3    H2 6177   5.208  -0.133   2.607
 2081TIP3   OH2 6178   5.301  -0.001   3.211
 2081TIP3    H1 6179   5.387   0.023   3.169
 2081TIP3    H2 6180   5.315   0.037   3.300
 2082TIP3   OH2 6181   5.368   0.151   3.436
 2082TIP3    H1 6182   5.290   0.185   3.484
 2082TIP3    H2 6183   5.400   0.232   3.391
 2083TIP3   OH2 6184   3.994  -0.135   4.243
 2083TIP3    H1 6185   4.081  -0.158   4.206
 2083TIP3    H2 6186   3.956  -0.224   4.259
 2084TIP3   OH2 6187   3.749  -0.170   3.637
 2084TIP3    H1 6188   3.797  -0.166   3.551
 2084TIP3    H2 6189   3.777  -0.087   3.678
 2085TIP3   OH2 6190   4.901   1.040   2.648
 2085TIP3    H1 6191   4.946   1.024   2.562
 2085TIP3    H2 6192   4.957   1.109   2.686
 2086TIP3   OH2 6193   3.998   0.830   4.025
 2086TIP3    H1 6194   3.906   0.845   4.000
 2086TIP3    H2 6195   3.995   0.842   4.120
 2087TIP3   OH2 6196   4.179   0.876   3.577
 2087TIP3    H1 6197   4.128   0.952   3.541
 2087TIP3    H2 6198   4.264   0.893   3.531
 2088TIP3   OH2 6199   4.618   1.117   3.714
 2088TIP3    H1 6200   4.659   1.118   3.803
 2088TIP3    H2 6201   4.683   1.171   3.663
 2089TIP3   OH2 6202   4.796   1.274   3.577
 2089TIP3    H1 6203   4.867   1.224   3.534
 2089TIP3    H2 6204   4.849   1.331   3.638
 2090TIP3   OH2 6205   3.850   1.135   3.599
 2090TIP3    H1 6206   3.763   1.176   3.579
 2090TIP3    H2 6207   3.847   1.137   3.696
 2091TIP3   OH2 6208   4.088   1.112   3.462
 2091TIP3    H1 6209   4.002   1.126   3.508
 2091TIP3    H2 6210   4.068   1.144   3.372
 2092TIP3   OH2 6211   4.514   1.138   3.259
 2092TIP3    H1 6212   4.445   1.157   3.193
 2092TIP3    H2 6213   4.525   1.226   3.301
 2093TIP3   OH2 6214   4.783   1.078   3.312
 2093TIP3    H1 6215   4.689   1.095   3.293
 2093TIP3    H2 6216   4.826   1.151   3.265
 2094TIP3   OH2 6217   4.990   1.269   3.223
 2094TIP3    H1 6218   4.974   1.354   3.176
 2094TIP3    H2 6219   5.015   1.210   3.149
 2095TIP3   OH2 6220   3.760   0.924   3.346
 2095TIP3    H1 6221   3.790   0.899   3.437
 2095TIP3    H2 6222   3.834   0.883   3.295
 2096TIP3   OH2 6223   3.958   0.800   3.205
 2096TIP3    H1 6224   3.972   0.715   3.254
 2096TIP3    H2 6225   4.049   0.836   3.204
 2097TIP3   OH2 6226   4.225   0.890   3.211
 2097TIP3    H1 6227   4.255   0.798   3.202
 2097TIP3    H2 6228   4.272   0.914   3.293
 2098TIP3   OH2 6229   3.550   0.702   2.736
 2098TIP3    H1 6230   3.463   0.671   2.702
 2098TIP3    H2 6231   3.543   0.797   2.712
 2099TIP3   OH2 6232   4.321   0.896   2.324
 2099TIP3    H1 6233   4.411   0.913   2.289
 2099TIP3    H2 6234   4.299   0.818   2.269
 2100TIP3   OH2 6235   5.043   1.005   2.413
 2100TIP3    H1 6236   5.033   0.908   2.397
 2100TIP3    H2 6237   5.003   1.039   2.329
 2101TIP3   OH2 6238   3.624   0.718   2.375
 2101TIP3    H1 6239   3.633   0.744   2.467
 2101TIP3    H2 6240   3.712   0.676   2.357
 2102TIP3   OH2 6241   5.268   1.147   3.599
 2102TIP3    H1 6242   5.189   1.117   3.549
 2102TIP3    H2 6243   5.248   1.243   3.605
 2103TIP3   OH2 6244   6.529   0.523   2.374
 2103TIP3    H1 6245   6.503   0.615   2.350
 2103TIP3    H2 6246   6.453   0.475   2.336
 2104TIP3   OH2 6247   6.539   0.521   2.749
 2104TIP3    H1 6248   6.569   0.493   2.838
 2104TIP3    H2 6249   6.492   0.442   2.718
 2105TIP3   OH2 6250   5.833   0.415   3.109
 2105TIP3    H1 6251   5.865   0.345   3.169
 2105TIP3    H2 6252   5.912   0.470   3.102
 2106TIP3   OH2 6253   6.781   0.824   2.433
 2106TIP3    H1 6254   6.762   0.760   2.502
 2106TIP3    H2 6255   6.809   0.902   2.483
 2107TIP3   OH2 6256   5.811   0.829   2.839
 2107TIP3    H1 6257   5.800   0.731   2.838
 2107TIP3    H2 6258   5.907   0.836   2.827
 2108TIP3   OH2 6259   5.503   0.042   2.631
 2108TIP3    H1 6260   5.448   0.122   2.645
 2108TIP3    H2 6261   5.440  -0.013   2.582
 2109TIP3   OH2 6262   5.565   0.329   2.798
 2109TIP3    H1 6263   5.608   0.245   2.828
 2109TIP3    H2 6264   5.625   0.359   2.728
 2110TIP3   OH2 6265   6.432   1.288   2.447
 2110TIP3    H1 6266   6.474   1.216   2.396
 2110TIP3    H2 6267   6.417   1.246   2.532
 2111TIP3   OH2 6268   6.331   0.747   2.796
 2111TIP3    H1 6269   6.370   0.673   2.748
 2111TIP3    H2 6270   6.414   0.794   2.821
 2112TIP3   OH2 6271   6.750   0.242   2.839
 2112TIP3    H1 6272   6.764   0.152   2.870
 2112TIP3    H2 6273   6.717   0.229   2.748
 2113TIP3   OH2 6274   6.080  -0.131   2.757
 2113TIP3    H1 6275   6.049  -0.042   2.732
 2113TIP3    H2 6276   5.996  -0.182   2.754
 2114TIP3   OH2 6277   3.536   6.590   8.978
 2114TIP3    H1 6278   3.576   6.534   9.048
 2114TIP3    H2 6279   3.572   6.549   8.899
 2115TIP3   OH2 6280   5.696   0.109   2.891
 2115TIP3    H1 6281   5.789   0.112   2.924
 2115TIP3    H2 6282   5.707   0.047   2.817
 2116TIP3   OH2 6283   6.156   0.313   2.698
 2116TIP3    H1 6284   6.250   0.286   2.712
 2116TIP3    H2 6285   6.114   0.227   2.676
 2117TIP3   OH2 6286   7.379   0.254   2.982
 2117TIP3    H1 6287   7.308   0.316   2.959
 2117TIP3    H2 6288   7.447   0.310   3.021
 2118TIP3   OH2 6289   6.421   0.739   2.237
 2118TIP3    H1 6290   6.385   0.730   2.148
 2118TIP3    H2 6291   6.380   0.825   2.264
 2119TIP3   OH2 6292   6.189   0.668   3.021
 2119TIP3    H1 6293   6.126   0.735   3.056
 2119TIP3    H2 6294   6.228   0.715   2.944
 2120TIP3   OH2 6295   5.954   0.075   2.956
 2120TIP3    H1 6296   6.023   0.122   3.006
 2120TIP3    H2 6297   5.975  -0.017   2.982
 2121TIP3   OH2 6298   6.019   0.864   3.121
 2121TIP3    H1 6299   5.992   0.950   3.081
 2121TIP3    H2 6300   5.939   0.846   3.174
 2122TIP3   OH2 6301   5.401   0.554   2.361
 2122TIP3    H1 6302   5.362   0.570   2.272
 2122TIP3    H2 6303   5.430   0.644   2.384
 2123TIP3   OH2 6304   6.849   1.068   2.593
 2123TIP3    H1 6305   6.760   1.060   2.633
 2123TIP3    H2 6306   6.842   1.154   2.548
 2124TIP3   OH2 6307   6.548   1.113   2.268
 2124TIP3    H1 6308   6.598   1.031   2.247
 2124TIP3    H2 6309   6.608   1.180   2.227
 2125TIP3   OH2 6310   6.693   0.898   2.181
 2125TIP3    H1 6311   6.663   0.815   2.140
 2125TIP3    H2 6312   6.730   0.865   2.266
 2126TIP3   OH2 6313   7.071   0.975   2.944
 2126TIP3    H1 6314   7.059   0.901   2.881
 2126TIP3    H2 6315   7.051   1.053   2.887
 2127TIP3   OH2 6316   6.362   0.376   2.198
 2127TIP3    H1 6317   6.284   0.432   2.179
 2127TIP3    H2 6318   6.407   0.372   2.112
 2128TIP3   OH2 6319   7.264   0.611   2.777
 2128TIP3    H1 6320   7.183   0.667   2.782
 2128TIP3    H2 6321   7.300   0.639   2.691
 2129TIP3   OH2 6322   6.703   0.447   2.178
 2129TIP3    H1 6323   6.658   0.478   2.260
 2129TIP3    H2 6324   6.794   0.431   2.210
 2130TIP3   OH2 6325   6.939   0.506   3.075
 2130TIP3    H1 6326   6.930   0.597   3.107
 2130TIP3    H2 6327   6.851   0.493   3.034
 2131TIP3   OH2 6328   5.945   0.450   2.582
 2131TIP3    H1 6329   5.910   0.392   2.512
 2131TIP3    H2 6330   6.023   0.399   2.615
 2132TIP3   OH2 6331   6.075   0.865   2.732
 2132TIP3    H1 6332   6.053   0.831   2.644
 2132TIP3    H2 6333   6.164   0.828   2.748
 2133TIP3   OH2 6334   6.089   0.420   2.949
 2133TIP3    H1 6335   6.114   0.397   2.857
 2133TIP3    H2 6336   6.127   0.510   2.960
 2134TIP3   OH2 6337   6.610   1.063   2.717
 2134TIP3    H1 6338   6.593   1.145   2.768
 2134TIP3    H2 6339   6.591   0.992   2.781
 2135TIP3   OH2 6340   6.219   0.981   3.268
 2135TIP3    H1 6341   6.156   1.044   3.309
 2135TIP3    H2 6342   6.156   0.928   3.214
 2136TIP3   OH2 6343   6.563   0.291   2.004
 2136TIP3    H1 6344   6.620   0.345   2.064
 2136TIP3    H2 6345   6.596   0.321   1.918
 2137TIP3   OH2 6346   5.968   0.543   3.364
 2137TIP3    H1 6347   5.971   0.629   3.410
 2137TIP3    H2 6348   5.873   0.520   3.378
 2138TIP3   OH2 6349   6.302   0.988   2.269
 2138TIP3    H1 6350   6.381   1.045   2.278
 2138TIP3    H2 6351   6.237   1.048   2.230
 2139TIP3   OH2 6352   6.014   1.148   3.354
 2139TIP3    H1 6353   5.981   1.152   3.262
 2139TIP3    H2 6354   5.933   1.124   3.404
 2140TIP3   OH2 6355   5.817   0.296   2.369
 2140TIP3    H1 6356   5.743   0.345   2.327
 2140TIP3    H2 6357   5.770   0.222   2.409
 2141TIP3   OH2 6358   6.803   0.938   1.647
 2141TIP3    H1 6359   6.842   1.025   1.622
 2141TIP3    H2 6360   6.877   0.877   1.626
 2142TIP3   OH2 6361   5.594   0.681   3.297
 2142TIP3    H1 6362   5.524   0.665   3.230
 2142TIP3    H2 6363   5.628   0.591   3.312
 2143TIP3   OH2 6364   5.446   0.870   2.937
 2143TIP3    H1 6365   5.542   0.876   2.923
 2143TIP3    H2 6366   5.427   0.954   2.981
 2144TIP3   OH2 6367   7.315   1.329   2.993
 2144TIP3    H1 6368   7.311   1.232   3.006
 2144TIP3    H2 6369   7.230   1.355   3.035
 2145TIP3   OH2 6370   6.419   1.106   3.125
 2145TIP3    H1 6371   6.416   1.200   3.153
 2145TIP3    H2 6372   6.344   1.069   3.175
 2146TIP3   OH2 6373   6.184   1.240   2.075
 2146TIP3    H1 6374   6.133   1.220   1.994
 2146TIP3    H2 6375   6.147   1.325   2.103
 2147TIP3   OH2 6376   5.622   1.091   2.454
 2147TIP3    H1 6377   5.660   1.077   2.544
 2147TIP3    H2 6378   5.571   1.007   2.443
 2148TIP3   OH2 6379   6.377   1.146   1.714
 2148TIP3    H1 6380   6.433   1.073   1.683
 2148TIP3    H2 6381   6.410   1.159   1.806
 2149TIP3   OH2 6382   6.433   1.190   1.980
 2149TIP3    H1 6383   6.344   1.200   2.022
 2149TIP3    H2 6384   6.484   1.153   2.054
 2150TIP3   OH2 6385   7.157   0.475   3.273
 2150TIP3    H1 6386   7.084   0.464   3.207
 2150TIP3    H2 6387   7.170   0.379   3.293
 2151TIP3   OH2 6388   5.799   0.863   3.282
 2151TIP3    H1 6389   5.845   0.846   3.366
 2151TIP3    H2 6390   5.723   0.801   3.288
 2152TIP3   OH2 6391   6.997   0.259   3.218
 2152TIP3    H1 6392   6.926   0.238   3.279
 2152TIP3    H2 6393   6.952   0.310   3.149
 2153TIP3   OH2 6394   6.149   0.207   3.107
 2153TIP3    H1 6395   6.086   0.223   3.180
 2153TIP3    H2 6396   6.133   0.286   3.051
 2154TIP3   OH2 6397   6.010   0.095   2.610
 2154TIP3    H1 6398   5.917   0.067   2.625
 2154TIP3    H2 6399   6.025   0.061   2.519
 2155TIP3   OH2 6400   6.505   0.185   2.321
 2155TIP3    H1 6401   6.439   0.251   2.290
 2155TIP3    H2 6402   6.576   0.201   2.258
 2156TIP3   OH2 6403   6.685   0.488   3.411
 2156TIP3    H1 6404   6.655   0.405   3.456
 2156TIP3    H2 6405   6.781   0.486   3.434
 2157TIP3   OH2 6406   6.656   0.216   2.582
 2157TIP3    H1 6407   6.591   0.247   2.516
 2157TIP3    H2 6408   6.702   0.147   2.528
 2158TIP3   OH2 6409   5.951   0.235   3.298
 2158TIP3    H1 6410   5.954   0.299   3.371
 2158TIP3    H2 6411   5.927   0.153   3.343
 2159TIP3   OH2 6412   5.577  -0.159   2.431
 2159TIP3    H1 6413   5.589  -0.155   2.334
 2159TIP3    H2 6414   5.483  -0.134   2.437
 2160TIP3   OH2 6415   6.675   0.450   2.992
 2160TIP3    H1 6416   6.706   0.377   2.932
 2160TIP3    H2 6417   6.649   0.396   3.070
 2161TIP3   OH2 6418   5.762  -0.033   2.652
 2161TIP3    H1 6419   5.670  -0.000   2.637
 2161TIP3    H2 6420   5.754  -0.119   2.609
 2162TIP3   OH2 6421   6.048  -0.014   2.360
 2162TIP3    H1 6422   6.127  -0.048   2.313
 2162TIP3    H2 6423   5.983  -0.022   2.288
 2163TIP3   OH2 6424   5.857  -0.040   2.134
 2163TIP3    H1 6425   5.759  -0.055   2.141
 2163TIP3    H2 6426   5.858   0.032   2.069
 2164TIP3   OH2 6427   7.005   1.674   3.087
 2164TIP3    H1 6428   7.002   1.700   2.993
 2164TIP3    H2 6429   7.085   1.721   3.117
 2165TIP3   OH2 6430   5.960   0.786   3.507
 2165TIP3    H1 6431   6.036   0.822   3.554
 2165TIP3    H2 6432   5.893   0.784   3.578
 2166TIP3   OH2 6433   6.416   0.242   2.757
 2166TIP3    H1 6434   6.497   0.199   2.724
 2166TIP3    H2 6435   6.416   0.212   2.851
 2167TIP3   OH2 6436   6.419   0.176   3.019
 2167TIP3    H1 6437   6.329   0.163   3.056
 2167TIP3    H2 6438   6.468   0.214   3.094
 2168TIP3   OH2 6439   6.138   0.522   2.147
 2168TIP3    H1 6440   6.059   0.466   2.134
 2168TIP3    H2 6441   6.118   0.561   2.236
 2169TIP3   OH2 6442   7.033   0.761   2.773
 2169TIP3    H1 6443   7.057   0.812   2.693
 2169TIP3    H2 6444   6.947   0.720   2.747
 2170TIP3   OH2 6445   6.542   0.849   3.143
 2170TIP3    H1 6446   6.542   0.822   3.235
 2170TIP3    H2 6447   6.501   0.937   3.145
 2171TIP3   OH2 6448   5.835   0.552   2.821
 2171TIP3    H1 6449   5.870   0.520   2.735
 2171TIP3    H2 6450   5.867   0.484   2.882
 2172TIP3   OH2 6451   6.283   0.679   1.975
 2172TIP3    H1 6452   6.234   0.765   1.978
 2172TIP3    H2 6453   6.228   0.626   2.038
 2173TIP3   OH2 6454   5.712   0.461   3.434
 2173TIP3    H1 6455   5.720   0.446   3.530
 2173TIP3    H2 6456   5.634   0.405   3.411
 2174TIP3   OH2 6457   6.430   0.589   3.458
 2174TIP3    H1 6458   6.366   0.532   3.412
 2174TIP3    H2 6459   6.515   0.557   3.423
 2175TIP3   OH2 6460   6.698   1.099   3.046
 2175TIP3    H1 6461   6.601   1.101   3.055
 2175TIP3    H2 6462   6.724   1.157   3.121
 2176TIP3   OH2 6463   7.322   1.037   3.027
 2176TIP3    H1 6464   7.225   1.030   3.010
 2176TIP3    H2 6465   7.356   1.010   2.939
 2177TIP3   OH2 6466   6.790   1.011   1.913
 2177TIP3    H1 6467   6.781   0.946   1.985
 2177TIP3    H2 6468   6.791   0.956   1.832
 2178TIP3   OH2 6469   6.799   0.627   2.692
 2178TIP3    H1 6470   6.706   0.600   2.705
 2178TIP3    H2 6471   6.834   0.547   2.648
 2179TIP3   OH2 6472   5.928   0.853   2.447
 2179TIP3    H1 6473   5.924   0.935   2.393
 2179TIP3    H2 6474   5.834   0.837   2.461
 2180TIP3   OH2 6475   5.495   0.160   2.163
 2180TIP3    H1 6476   5.533   0.249   2.180
 2180TIP3    H2 6477   5.413   0.166   2.218
 2181TIP3   OH2 6478   6.060   0.618   2.388
 2181TIP3    H1 6479   6.026   0.708   2.405
 2181TIP3    H2 6480   6.025   0.570   2.464
 2182TIP3   OH2 6481   6.201   1.196   2.915
 2182TIP3    H1 6482   6.239   1.270   2.863
 2182TIP3    H2 6483   6.280   1.161   2.958
 2183TIP3   OH2 6484   5.852   1.088   2.300
 2183TIP3    H1 6485   5.765   1.098   2.343
 2183TIP3    H2 6486   5.883   1.181   2.301
 2184TIP3   OH2 6487   6.583   0.830   2.874
 2184TIP3    H1 6488   6.577   0.831   2.972
 2184TIP3    H2 6489   6.662   0.775   2.860
 2185TIP3   OH2 6490   6.528   0.709   1.803
 2185TIP3    H1 6491   6.580   0.713   1.886
 2185TIP3    H2 6492   6.438   0.721   1.839
 2186TIP3   OH2 6493   6.835   1.362   2.922
 2186TIP3    H1 6494   6.753   1.309   2.913
 2186TIP3    H2 6495   6.822   1.428   2.851
 2187TIP3   OH2 6496   6.893   1.192   1.577
 2187TIP3    H1 6497   6.929   1.262   1.519
 2187TIP3    H2 6498   6.817   1.243   1.613
 2188TIP3   OH2 6499   6.696   0.670   2.012
 2188TIP3    H1 6500   6.693   0.592   2.071
 2188TIP3    H2 6501   6.794   0.684   2.006
 2189TIP3   OH2 6502   5.640   1.059   3.072
 2189TIP3    H1 6503   5.691   0.986   3.110
 2189TIP3    H2 6504   5.664   1.132   3.131
 2190TIP3   OH2 6505   5.928   0.697   1.748
 2190TIP3    H1 6506   5.936   0.601   1.733
 2190TIP3    H2 6507   5.914   0.699   1.846
 2191TIP3   OH2 6508   5.893   0.708   2.017
 2191TIP3    H1 6509   5.928   0.685   2.103
 2191TIP3    H2 6510   5.876   0.804   2.027
 2192TIP3   OH2 6511   5.602   0.405   2.242
 2192TIP3    H1 6512   5.533   0.451   2.295
 2192TIP3    H2 6513   5.609   0.470   2.168
 2193TIP3   OH2 6514   6.143   0.909   1.977
 2193TIP3    H1 6515   6.054   0.927   2.014
 2193TIP3    H2 6516   6.152   0.987   1.919
 2194TIP3   OH2 6517   6.401  -0.030   2.450
 2194TIP3    H1 6518   6.429   0.049   2.399
 2194TIP3    H2 6519   6.330   0.005   2.505
 2195TIP3   OH2 6520   6.617   0.286   3.205
 2195TIP3    H1 6521   6.601   0.348   3.279
 2195TIP3    H2 6522   6.643   0.207   3.254
 2196TIP3   OH2 6523   5.886   0.978   2.047
 2196TIP3    H1 6524   5.852   1.047   1.985
 2196TIP3    H2 6525   5.865   1.019   2.134
 2197TIP3   OH2 6526   6.886   0.386   2.575
 2197TIP3    H1 6527   6.809   0.328   2.589
 2197TIP3    H2 6528   6.957   0.338   2.623
 2198TIP3   OH2 6529   5.597   0.596   2.051
 2198TIP3    H1 6530   5.590   0.693   2.056
 2198TIP3    H2 6531   5.653   0.581   1.972
 2199TIP3   OH2 6532   5.593  -0.093   2.158
 2199TIP3    H1 6533   5.550  -0.004   2.161
 2199TIP3    H2 6534   5.523  -0.148   2.118
 2200TIP3   OH2 6535   6.856   1.339   2.517
 2200TIP3    H1 6536   6.813   1.385   2.441
 2200TIP3    H2 6537   6.950   1.359   2.497
 2201TIP3   OH2 6538   5.484   0.849   2.436
 2201TIP3    H1 6539   5.403   0.874   2.482
 2201TIP3    H2 6540   5.455   0.850   2.342
 2202TIP3   OH2 6541   5.629   1.371   3.495
 2202TIP3    H1 6542   5.715   1.370   3.543
 2202TIP3    H2 6543   5.605   1.277   3.496
 2203TIP3   OH2 6544   6.106   1.304   3.567
 2203TIP3    H1 6545   6.198   1.326   3.546
 2203TIP3    H2 6546   6.079   1.255   3.486
 2204TIP3   OH2 6547   6.068   0.919   1.669
 2204TIP3    H1 6548   6.030   0.839   1.710
 2204TIP3    H2 6549   6.147   0.882   1.623
 2205TIP3   OH2 6550   6.743   1.243   3.280
 2205TIP3    H1 6551   6.741   1.170   3.347
 2205TIP3    H2 6552   6.824   1.291   3.305
 2206TIP3   OH2 6553   6.537   0.962   1.587
 2206TIP3    H1 6554   6.615   0.934   1.640
 2206TIP3    H2 6555   6.579   1.025   1.526
 2207TIP3   OH2 6556   5.758   0.774   3.697
 2207TIP3    H1 6557   5.773   0.678   3.702
 2207TIP3    H2 6558   5.671   0.779   3.652
 2208TIP3   OH2 6559   5.740   0.415   1.890
 2208TIP3    H1 6560   5.790   0.404   1.973
 2208TIP3    H2 6561   5.813   0.426   1.825
 2209TIP3   OH2 6562   6.365   0.859   3.468
 2209TIP3    H1 6563   6.317   0.877   3.385
 2209TIP3    H2 6564   6.390   0.764   3.459
 2210TIP3   OH2 6565   6.234   0.634   1.705
 2210TIP3    H1 6566   6.242   0.639   1.803
 2210TIP3    H2 6567   6.207   0.542   1.690
 2211TIP3   OH2 6568   6.859   0.865   3.088
 2211TIP3    H1 6569   6.929   0.913   3.040
 2211TIP3    H2 6570   6.784   0.927   3.077
 2212TIP3   OH2 6571   5.880   0.513   3.683
 2212TIP3    H1 6572   5.959   0.461   3.660
 2212TIP3    H2 6573   5.905   0.544   3.773
 2213TIP3   OH2 6574   5.941   0.327   2.120
 2213TIP3    H1 6575   5.902   0.317   2.210
 2213TIP3    H2 6576   5.994   0.246   2.113
 2214TIP3   OH2 6577   6.218   0.428   3.345
 2214TIP3    H1 6578   6.131   0.473   3.341
 2214TIP3    H2 6579   6.258   0.452   3.258
 2215TIP3   OH2 6580   6.742   0.797   3.487
 2215TIP3    H1 6581   6.791   0.747   3.421
 2215TIP3    H2 6582   6.721   0.727   3.551
 2216TIP3   OH2 6583   6.297   0.199   3.461
 2216TIP3    H1 6584   6.247   0.137   3.404
 2216TIP3    H2 6585   6.271   0.285   3.420
 2217TIP3   OH2 6586   6.379   0.514   3.144
 2217TIP3    H1 6587   6.455   0.516   3.084
 2217TIP3    H2 6588   6.316   0.575   3.099
 2218TIP3   OH2 6589   6.940   0.466   3.508
 2218TIP3    H1 6590   6.965   0.409   3.585
 2218TIP3    H2 6591   7.022   0.462   3.456
 2219TIP3   OH2 6592   7.010   0.732   3.263
 2219TIP3    H1 6593   6.919   0.766   3.245
 2219TIP3    H2 6594   7.053   0.792   3.198
 2220TIP3   OH2 6595   6.185   0.325   3.693
 2220TIP3    H1 6596   6.136   0.252   3.733
 2220TIP3    H2 6597   6.237   0.281   3.623
 2221TIP3   OH2 6598   6.575   0.260   3.496
 2221TIP3    H1 6599   6.601   0.228   3.586
 2221TIP3    H2 6600   6.480   0.242   3.499
 2222TIP3   OH2 6601   5.853   1.183   1.860
 2222TIP3    H1 6602   5.948   1.179   1.840
 2222TIP3    H2 6603   5.821   1.234   1.784
 2223TIP3   OH2 6604   5.318   0.524   2.097
 2223TIP3    H1 6605   5.393   0.586   2.079
 2223TIP3    H2 6606   5.331   0.455   2.029
 2224TIP3   OH2 6607   5.244   1.181   2.490
 2224TIP3    H1 6608   5.181   1.118   2.448
 2224TIP3    H2 6609   5.288   1.122   2.554
 2225TIP3   OH2 6610   5.377   1.032   2.679
 2225TIP3    H1 6611   5.366   0.956   2.739
 2225TIP3    H2 6612   5.432   1.091   2.733
 2226TIP3   OH2 6613   7.111   1.425   2.478
 2226TIP3    H1 6614   7.138   1.468   2.561
 2226TIP3    H2 6615   7.176   1.460   2.415
 2227TIP3   OH2 6616   7.134   1.451   2.762
 2227TIP3    H1 6617   7.095   1.362   2.757
 2227TIP3    H2 6618   7.217   1.430   2.808
 2228TIP3   OH2 6619   7.187   1.109   3.333
 2228TIP3    H1 6620   7.116   1.119   3.400
 2228TIP3    H2 6621   7.229   1.196   3.336
 2229TIP3   OH2 6622   6.963   0.688   1.990
 2229TIP3    H1 6623   7.026   0.760   1.969
 2229TIP3    H2 6624   7.023   0.631   2.043
 2230TIP3   OH2 6625   7.118   0.527   2.154
 2230TIP3    H1 6626   7.053   0.469   2.199
 2230TIP3    H2 6627   7.185   0.540   2.222
 2231TIP3   OH2 6628   7.188   0.899   2.588
 2231TIP3    H1 6629   7.226   0.839   2.522
 2231TIP3    H2 6630   7.180   0.981   2.536
 2232TIP3   OH2 6631   7.013   1.194   2.785
 2232TIP3    H1 6632   6.942   1.242   2.833
 2232TIP3    H2 6633   6.963   1.152   2.712
 2233TIP3   OH2 6634   6.942   0.373   2.306
 2233TIP3    H1 6635   6.966   0.279   2.309
 2233TIP3    H2 6636   6.923   0.391   2.400
 2234TIP3   OH2 6637   5.567   0.433   3.052
 2234TIP3    H1 6638   5.562   0.404   2.958
 2234TIP3    H2 6639   5.665   0.435   3.064
 2235TIP3   OH2 6640   7.258   0.795   3.155
 2235TIP3    H1 6641   7.341   0.764   3.112
 2235TIP3    H2 6642   7.261   0.889   3.124
 2236TIP3   OH2 6643   7.404   0.579   3.246
 2236TIP3    H1 6644   7.361   0.495   3.225
 2236TIP3    H2 6645   7.496   0.551   3.231
 2237TIP3   OH2 6646   7.101   0.265   2.697
 2237TIP3    H1 6647   7.185   0.289   2.653
 2237TIP3    H2 6648   7.119   0.294   2.788
 2238TIP3   OH2 6649   7.164   0.412   2.932
 2238TIP3    H1 6650   7.081   0.446   2.970
 2238TIP3    H2 6651   7.194   0.487   2.876
 2239TIP3   OH2 6652   5.785   0.118   3.727
 2239TIP3    H1 6653   5.872   0.087   3.701
 2239TIP3    H2 6654   5.745   0.036   3.762
 2240TIP3   OH2 6655   5.546   0.088   3.125
 2240TIP3    H1 6656   5.592   0.090   3.038
 2240TIP3    H2 6657   5.572   0.174   3.161
 2241TIP3   OH2 6658   6.693   1.297   2.134
 2241TIP3    H1 6659   6.747   1.289   2.053
 2241TIP3    H2 6660   6.743   1.363   2.184
 2242TIP3   OH2 6661   5.796   1.094   3.523
 2242TIP3    H1 6662   5.704   1.076   3.496
 2242TIP3    H2 6663   5.789   1.081   3.619
 2243TIP3   OH2 6664   5.977   1.137   3.069
 2243TIP3    H1 6665   5.924   1.209   3.029
 2243TIP3    H2 6666   6.060   1.152   3.019
 2244TIP3   OH2 6667   6.416   1.373   3.205
 2244TIP3    H1 6668   6.459   1.380   3.293
 2244TIP3    H2 6669   6.479   1.426   3.150
 2245TIP3   OH2 6670   6.593   1.529   3.065
 2245TIP3    H1 6671   6.663   1.483   3.018
 2245TIP3    H2 6672   6.646   1.587   3.124
 2246TIP3   OH2 6673   5.650   1.390   3.092
 2246TIP3    H1 6674   5.560   1.418   3.065
 2246TIP3    H2 6675   5.658   1.438   3.175
 2247TIP3   OH2 6676   5.885   1.369   2.948
 2247TIP3    H1 6677   5.798   1.381   2.993
 2247TIP3    H2 6678   5.865   1.400   2.858
 2248TIP3   OH2 6679   6.310   1.394   2.746
 2248TIP3    H1 6680   6.239   1.411   2.681
 2248TIP3    H2 6681   6.321   1.483   2.786
 2249TIP3   OH2 6682   6.579   1.333   2.799
 2249TIP3    H1 6683   6.485   1.351   2.779
 2249TIP3    H2 6684   6.624   1.405   2.752
 2250TIP3   OH2 6685   6.783   1.525   2.709
 2250TIP3    H1 6686   6.769   1.610   2.663
 2250TIP3    H2 6687   6.811   1.466   2.635
 2251TIP3   OH2 6688   5.559   1.184   2.833
 2251TIP3    H1 6689   5.586   1.155   2.923
 2251TIP3    H2 6690   5.631   1.142   2.781
 2252TIP3   OH2 6691   5.754   1.056   2.695
 2252TIP3    H1 6692   5.769   0.972   2.745
 2252TIP3    H2 6693   5.845   1.091   2.688
 2253TIP3   OH2 6694   6.022   1.148   2.696
 2253TIP3    H1 6695   6.051   1.055   2.685
 2253TIP3    H2 6696   6.068   1.170   2.779
 2254TIP3   OH2 6697   6.120   1.144   1.812
 2254TIP3    H1 6698   6.206   1.168   1.770
 2254TIP3    H2 6699   6.092   1.072   1.750
 2255TIP3   OH2 6700   6.844   1.273   1.902
 2255TIP3    H1 6701   6.828   1.176   1.905
 2255TIP3    H2 6702   6.794   1.298   1.821
 2256TIP3   OH2 6703   5.413   0.986   1.865
 2256TIP3    H1 6704   5.382   0.991   1.958
 2256TIP3    H2 6705   5.498   0.940   1.879
 2257TIP3   OH2 6706   7.063   1.405   3.086
 2257TIP3    H1 6707   6.985   1.376   3.034
 2257TIP3    H2 6708   7.046   1.501   3.090
 2258TIP3   OH2 6709   7.582   1.055   2.364
 2258TIP3    H1 6710   7.552   0.999   2.291
 2258TIP3    H2 6711   7.677   1.065   2.341
 2259TIP3   OH2 6712   7.382   0.569   2.283
 2259TIP3    H1 6713   7.438   0.491   2.273
 2259TIP3    H2 6714   7.388   0.609   2.194
 2260TIP3   OH2 6715   7.167   0.856   1.943
 2260TIP3    H1 6716   7.211   0.808   1.870
 2260TIP3    H2 6717   7.215   0.942   1.941
 2261TIP3   OH2 6718   7.773   1.414   2.799
 2261TIP3    H1 6719   7.736   1.442   2.713
 2261TIP3    H2 6720   7.696   1.420   2.858
 2262TIP3   OH2 6721   7.393   0.945   2.780
 2262TIP3    H1 6722   7.322   0.922   2.717
 2262TIP3    H2 6723   7.416   0.859   2.821
 2263TIP3   OH2 6724   7.248   1.128   2.427
 2263TIP3    H1 6725   7.344   1.133   2.422
 2263TIP3    H2 6726   7.227   1.211   2.473
 2264TIP3   OH2 6727   7.393   1.354   1.943
 2264TIP3    H1 6728   7.463   1.355   2.010
 2264TIP3    H2 6729   7.363   1.261   1.948
 2265TIP3   OH2 6730   7.611   1.110   2.752
 2265TIP3    H1 6731   7.654   1.090   2.838
 2265TIP3    H2 6732   7.528   1.058   2.760
 2266TIP3   OH2 6733   7.739   1.027   2.984
 2266TIP3    H1 6734   7.807   1.097   2.997
 2266TIP3    H2 6735   7.691   1.034   3.068
 2267TIP3   OH2 6736   7.464   0.739   2.954
 2267TIP3    H1 6737   7.544   0.724   3.009
 2267TIP3    H2 6738   7.444   0.652   2.917
 2268TIP3   OH2 6739   7.430   1.317   2.563
 2268TIP3    H1 6740   7.492   1.252   2.601
 2268TIP3    H2 6741   7.460   1.400   2.603
 2269TIP3   OH2 6742   7.266   1.108   1.919
 2269TIP3    H1 6743   7.195   1.144   1.974
 2269TIP3    H2 6744   7.239   1.138   1.829
 2270TIP3   OH2 6745   7.426   1.628   2.985
 2270TIP3    H1 6746   7.512   1.628   3.033
 2270TIP3    H2 6747   7.404   1.533   2.986
 2271TIP3   OH2 6748   7.545   1.020   3.193
 2271TIP3    H1 6749   7.565   0.927   3.176
 2271TIP3    H2 6750   7.461   1.032   3.144
 2272TIP3   OH2 6751   7.660   0.748   3.164
 2272TIP3    H1 6752   7.748   0.722   3.136
 2272TIP3    H2 6753   7.680   0.788   3.251
 2273TIP3   OH2 6754   7.047   1.440   1.977
 2273TIP3    H1 6755   6.979   1.379   1.941
 2273TIP3    H2 6756   7.091   1.381   2.042
 2274TIP3   OH2 6757   7.169   1.283   2.167
 2274TIP3    H1 6758   7.165   1.211   2.232
 2274TIP3    H2 6759   7.227   1.346   2.213
 2275TIP3   OH2 6760   7.382   0.675   2.537
 2275TIP3    H1 6761   7.370   0.641   2.446
 2275TIP3    H2 6762   7.465   0.724   2.528
 2276TIP3   OH2 6763   7.577   0.371   3.203
 2276TIP3    H1 6764   7.672   0.359   3.210
 2276TIP3    H2 6765   7.545   0.285   3.238
 2277TIP3   OH2 6766   7.347   0.345   2.600
 2277TIP3    H1 6767   7.421   0.327   2.542
 2277TIP3    H2 6768   7.363   0.436   2.628
 2278TIP3   OH2 6769   7.591   1.355   3.007
 2278TIP3    H1 6770   7.497   1.331   2.990
 2278TIP3    H2 6771   7.594   1.345   3.104
 2279TIP3   OH2 6772   7.436   1.631   2.588
 2279TIP3    H1 6773   7.348   1.667   2.562
 2279TIP3    H2 6774   7.461   1.698   2.654
 2280TIP3   OH2 6775   7.689   1.615   2.451
 2280TIP3    H1 6776   7.597   1.623   2.483
 2280TIP3    H2 6777   7.681   1.651   2.360
 2281TIP3   OH2 6778   7.347   1.442   2.321
 2281TIP3    H1 6779   7.379   1.420   2.411
 2281TIP3    H2 6780   7.420   1.401   2.269
 2282TIP3   OH2 6781   7.536   1.306   2.182
 2282TIP3    H1 6782   7.545   1.215   2.214
 2282TIP3    H2 6783   7.628   1.325   2.154
 2283TIP3   OH2 6784   7.147   1.212   1.696
 2283TIP3    H1 6785   7.059   1.179   1.673
 2283TIP3    H2 6786   7.132   1.308   1.691
 2284TIP3   OH2 6787   7.213   1.267   1.376
 2284TIP3    H1 6788   7.199   1.277   1.472
 2284TIP3    H2 6789   7.275   1.192   1.371
 2285TIP3   OH2 6790   0.790   1.580   3.538
 2285TIP3    H1 6791   0.754   1.667   3.508
 2285TIP3    H2 6792   0.712   1.541   3.580
 2286TIP3   OH2 6793   0.780   1.566   3.931
 2286TIP3    H1 6794   0.820   1.546   4.018
 2286TIP3    H2 6795   0.746   1.478   3.907
 2287TIP3   OH2 6796   0.086   1.461   4.294
 2287TIP3    H1 6797   0.125   1.397   4.358
 2287TIP3    H2 6798   0.163   1.518   4.278
 2288TIP3   OH2 6799   1.027   1.873   3.607
 2288TIP3    H1 6800   1.015   1.801   3.670
 2288TIP3    H2 6801   1.059   1.945   3.663
 2289TIP3   OH2 6802   0.059   1.867   4.012
 2289TIP3    H1 6803   0.051   1.769   4.015
 2289TIP3    H2 6804   0.156   1.877   4.004
 2290TIP3   OH2 6805   0.677   2.328   3.622
 2290TIP3    H1 6806   0.721   2.258   3.571
 2290TIP3    H2 6807   0.668   2.287   3.709
 2291TIP3   OH2 6808   0.582   1.793   3.974
 2291TIP3    H1 6809   0.622   1.714   3.933
 2291TIP3    H2 6810   0.665   1.840   3.997
 2292TIP3   OH2 6811   1.598   1.111   3.972
 2292TIP3    H1 6812   1.627   1.195   4.012
 2292TIP3    H2 6813   1.617   1.127   3.878
 2293TIP3   OH2 6814   0.998   1.294   4.003
 2293TIP3    H1 6815   1.039   1.208   4.022
 2293TIP3    H2 6816   0.960   1.279   3.915
 2294TIP3   OH2 6817   1.017   1.057   3.605
 2294TIP3    H1 6818   1.096   1.035   3.660
 2294TIP3    H2 6819   1.059   1.067   3.518
 2295TIP3   OH2 6820   0.412   1.345   3.869
 2295TIP3    H1 6821   0.509   1.344   3.887
 2295TIP3    H2 6822   0.398   1.250   3.856
 2296TIP3   OH2 6823   1.672   1.322   4.139
 2296TIP3    H1 6824   1.586   1.367   4.122
 2296TIP3    H2 6825   1.688   1.350   4.230
 2297TIP3   OH2 6826   0.354   0.931   4.397
 2297TIP3    H1 6827   0.296   0.970   4.328
 2297TIP3    H2 6828   0.293   0.927   4.473
 2298TIP3   OH2 6829   0.664   1.790   3.415
 2298TIP3    H1 6830   0.642   1.791   3.321
 2298TIP3    H2 6831   0.622   1.874   3.445
 2299TIP3   OH2 6832   0.434   1.713   4.194
 2299TIP3    H1 6833   0.374   1.781   4.230
 2299TIP3    H2 6834   0.478   1.761   4.121
 2300TIP3   OH2 6835   1.235   1.049   3.769
 2300TIP3    H1 6836   1.225   0.997   3.850
 2300TIP3    H2 6837   1.287   1.126   3.800
 2301TIP3   OH2 6838   0.204   1.041   4.202
 2301TIP3    H1 6839   0.260   1.122   4.205
 2301TIP3    H2 6840   0.220   1.009   4.112
 2302TIP3   OH2 6841   0.261   1.909   4.295
 2302TIP3    H1 6842   0.237   1.997   4.258
 2302TIP3    H2 6843   0.183   1.893   4.352
 2303TIP3   OH2 6844   1.093   2.113   3.771
 2303TIP3    H1 6845   1.003   2.107   3.809
 2303TIP3    H2 6846   1.088   2.200   3.726
 2304TIP3   OH2 6847   1.389   1.013   4.138
 2304TIP3    H1 6848   1.301   1.035   4.104
 2304TIP3    H2 6849   1.448   1.043   4.066
 2305TIP3   OH2 6850   0.705   0.672   4.126
 2305TIP3    H1 6851   0.676   0.583   4.104
 2305TIP3    H2 6852   0.620   0.711   4.157
 2306TIP3   OH2 6853   0.795   2.155   3.443
 2306TIP3    H1 6854   0.847   2.074   3.423
 2306TIP3    H2 6855   0.856   2.222   3.405
 2307TIP3   OH2 6856   0.942   1.942   3.353
 2307TIP3    H1 6857   0.929   1.859   3.306
 2307TIP3    H2 6858   0.976   1.910   3.440
 2308TIP3   OH2 6859   1.321   2.023   4.116
 2308TIP3    H1 6860   1.311   1.946   4.056
 2308TIP3    H2 6861   1.305   2.098   4.055
 2309TIP3   OH2 6862   1.517   1.664   3.963
 2309TIP3    H1 6863   1.433   1.715   3.967
 2309TIP3    H2 6864   1.547   1.687   3.872
 2310TIP3   OH2 6865   0.965   1.515   3.339
 2310TIP3    H1 6866   0.906   1.531   3.416
 2310TIP3    H2 6867   1.044   1.480   3.385
 2311TIP3   OH2 6868   1.196   1.537   4.262
 2311TIP3    H1 6869   1.194   1.620   4.313
 2311TIP3    H2 6870   1.111   1.542   4.215
 2312TIP3   OH2 6871   0.193   1.490   3.761
 2312TIP3    H1 6872   0.170   1.445   3.679
 2312TIP3    H2 6873   0.273   1.442   3.791
 2313TIP3   OH2 6874   0.325   1.905   3.908
 2313TIP3    H1 6875   0.310   1.870   3.819
 2313TIP3    H2 6876   0.415   1.871   3.927
 2314TIP3   OH2 6877   0.324   1.476   4.110
 2314TIP3    H1 6878   0.364   1.451   4.025
 2314TIP3    H2 6879   0.371   1.558   4.134
 2315TIP3   OH2 6880   0.852   2.113   3.897
 2315TIP3    H1 6881   0.842   2.187   3.959
 2315TIP3    H2 6882   0.841   2.034   3.954
 2316TIP3   OH2 6883   0.467   2.021   4.435
 2316TIP3    H1 6884   0.410   2.084   4.485
 2316TIP3    H2 6885   0.398   1.970   4.388
 2317TIP3   OH2 6886   0.241   1.591   4.532
 2317TIP3    H1 6887   0.238   1.677   4.579
 2317TIP3    H2 6888   0.149   1.560   4.544
 2318TIP3   OH2 6889   0.545   2.041   3.438
 2318TIP3    H1 6890   0.629   2.088   3.451
 2318TIP3    H2 6891   0.485   2.113   3.413
 2319TIP3   OH2 6892   0.262   2.190   4.528
 2319TIP3    H1 6893   0.226   2.194   4.437
 2319TIP3    H2 6894   0.181   2.176   4.582
 2320TIP3   OH2 6895   1.123   1.959   2.770
 2320TIP3    H1 6896   1.129   2.056   2.752
 2320TIP3    H2 6897   1.216   1.933   2.756
 2321TIP3   OH2 6898  -0.136   1.714   4.468
 2321TIP3    H1 6899  -0.205   1.695   4.403
 2321TIP3    H2 6900  -0.118   1.625   4.503
 2322TIP3   OH2 6901  -0.295   1.938   4.090
 2322TIP3    H1 6902  -0.208   1.898   4.077
 2322TIP3    H2 6903  -0.274   2.002   4.160
 2323TIP3   OH2 6904   1.560   2.370   4.166
 2323TIP3    H1 6905   1.559   2.274   4.182
 2323TIP3    H2 6906   1.477   2.397   4.211
 2324TIP3   OH2 6907   0.667   2.142   4.300
 2324TIP3    H1 6908   0.648   2.224   4.348
 2324TIP3    H2 6909   0.593   2.087   4.336
 2325TIP3   OH2 6910   0.432   2.280   3.259
 2325TIP3    H1 6911   0.391   2.266   3.172
 2325TIP3    H2 6912   0.399   2.369   3.283
 2326TIP3   OH2 6913  -0.137   2.142   3.627
 2326TIP3    H1 6914  -0.100   2.115   3.714
 2326TIP3    H2 6915  -0.188   2.062   3.601
 2327TIP3   OH2 6916   0.635   2.174   2.895
 2327TIP3    H1 6917   0.693   2.100   2.872
 2327TIP3    H2 6918   0.665   2.195   2.987
 2328TIP3   OH2 6919   0.681   2.233   3.161
 2328TIP3    H1 6920   0.593   2.242   3.203
 2328TIP3    H2 6921   0.734   2.202   3.236
 2329TIP3   OH2 6922   1.449   1.499   4.439
 2329TIP3    H1 6923   1.366   1.508   4.388
 2329TIP3    H2 6924   1.466   1.403   4.429
 2330TIP3   OH2 6925   0.046   1.916   4.469
 2330TIP3    H1 6926   0.103   1.889   4.544
 2330TIP3    H2 6927  -0.023   1.845   4.470
 2331TIP3   OH2 6928   0.453   0.747   4.211
 2331TIP3    H1 6929   0.371   0.695   4.204
 2331TIP3    H2 6930   0.427   0.813   4.279
 2332TIP3   OH2 6931   1.017   0.852   4.429
 2332TIP3    H1 6932   1.080   0.819   4.497
 2332TIP3    H2 6933   0.929   0.834   4.472
 2333TIP3   OH2 6934   1.216   1.274   4.361
 2333TIP3    H1 6935   1.167   1.273   4.447
 2333TIP3    H2 6936   1.193   1.362   4.325
 2334TIP3   OH2 6937   0.377   1.251   4.255
 2334TIP3    H1 6938   0.332   1.270   4.339
 2334TIP3    H2 6939   0.359   1.333   4.205
 2335TIP3   OH2 6940   0.772   1.262   3.498
 2335TIP3    H1 6941   0.683   1.249   3.462
 2335TIP3    H2 6942   0.827   1.250   3.420
 2336TIP3   OH2 6943   0.926   1.495   4.594
 2336TIP3    H1 6944   0.903   1.421   4.655
 2336TIP3    H2 6945   1.020   1.507   4.616
 2337TIP3   OH2 6946   0.906   1.258   3.746
 2337TIP3    H1 6947   0.854   1.286   3.667
 2337TIP3    H2 6948   0.944   1.175   3.708
 2338TIP3   OH2 6949   0.204   1.285   4.469
 2338TIP3    H1 6950   0.243   1.343   4.536
 2338TIP3    H2 6951   0.187   1.204   4.519
 2339TIP3   OH2 6952   0.916   1.492   4.166
 2339TIP3    H1 6953   0.951   1.421   4.107
 2339TIP3    H2 6954   0.888   1.438   4.243
 2340TIP3   OH2 6955   0.581   0.989   3.866
 2340TIP3    H1 6956   0.524   0.914   3.886
 2340TIP3    H2 6957   0.668   0.956   3.895
 2341TIP3   OH2 6958   1.081   1.032   4.049
 2341TIP3    H1 6959   1.041   1.045   4.138
 2341TIP3    H2 6960   1.016   0.972   4.008
 2342TIP3   OH2 6961   1.248   2.722   4.265
 2342TIP3    H1 6962   1.248   2.749   4.171
 2342TIP3    H2 6963   1.328   2.770   4.297
 2343TIP3   OH2 6964   0.209   1.832   4.681
 2343TIP3    H1 6965   0.290   1.859   4.729
 2343TIP3    H2 6966   0.145   1.830   4.755
 2344TIP3   OH2 6967   0.673   1.297   3.941
 2344TIP3    H1 6968   0.731   1.243   3.885
 2344TIP3    H2 6969   0.671   1.243   4.023
 2345TIP3   OH2 6970   0.648   1.189   4.220
 2345TIP3    H1 6971   0.558   1.222   4.239
 2345TIP3    H2 6972   0.705   1.249   4.273
 2346TIP3   OH2 6973   1.282   1.807   3.949
 2346TIP3    H1 6974   1.308   1.857   3.868
 2346TIP3    H2 6975   1.198   1.765   3.922
 2347TIP3   OH2 6976   0.788   1.883   4.322
 2347TIP3    H1 6977   0.820   1.859   4.410
 2347TIP3    H2 6978   0.747   1.970   4.336
 2348TIP3   OH2 6979   0.073   1.588   3.999
 2348TIP3    H1 6980   0.104   1.559   3.911
 2348TIP3    H2 6981   0.129   1.535   4.057
 2349TIP3   OH2 6982   0.531   1.721   3.137
 2349TIP3    H1 6983   0.491   1.811   3.138
 2349TIP3    H2 6984   0.486   1.680   3.212
 2350TIP3   OH2 6985  -0.000   1.484   4.619
 2350TIP3    H1 6986   0.034   1.504   4.708
 2350TIP3    H2 6987  -0.097   1.480   4.637
 2351TIP3   OH2 6988   0.687   1.631   4.631
 2351TIP3    H1 6989   0.627   1.568   4.588
 2351TIP3    H2 6990   0.774   1.594   4.605
 2352TIP3   OH2 6991   0.943   2.150   4.214
 2352TIP3    H1 6992   0.848   2.136   4.229
 2352TIP3    H2 6993   0.969   2.199   4.293
 2353TIP3   OH2 6994   1.358   1.212   3.107
 2353TIP3    H1 6995   1.277   1.163   3.086
 2353TIP3    H2 6996   1.339   1.302   3.071
 2354TIP3   OH2 6997   1.571   2.080   4.206
 2354TIP3    H1 6998   1.473   2.073   4.196
 2354TIP3    H2 6999   1.598   2.051   4.116
 2355TIP3   OH2 7000   1.029   2.039   3.024
 2355TIP3    H1 7001   1.023   1.977   3.098
 2355TIP3    H2 7002   1.073   1.987   2.954
 2356TIP3   OH2 7003   1.048   1.670   3.865
 2356TIP3    H1 7004   0.956   1.642   3.878
 2356TIP3    H2 7005   1.085   1.589   3.823
 2357TIP3   OH2 7006   0.174   1.896   3.623
 2357TIP3    H1 7007   0.172   1.988   3.586
 2357TIP3    H2 7008   0.089   1.894   3.668
 2358TIP3   OH2 7009   0.341   1.675   3.605
 2358TIP3    H1 7010   0.292   1.759   3.599
 2358TIP3    H2 7011   0.282   1.621   3.660
 2359TIP3   OH2 7012   0.448   2.237   4.089
 2359TIP3    H1 7013   0.484   2.313   4.039
 2359TIP3    H2 7014   0.529   2.195   4.119
 2360TIP3   OH2 7015   0.118   2.140   3.517
 2360TIP3    H1 7016   0.024   2.153   3.538
 2360TIP3    H2 7017   0.145   2.231   3.495
 2361TIP3   OH2 7018   0.835   1.878   4.051
 2361TIP3    H1 7019   0.826   1.871   4.149
 2361TIP3    H2 7020   0.912   1.821   4.035
 2362TIP3   OH2 7021   0.749   1.742   2.968
 2362TIP3    H1 7022   0.824   1.732   3.031
 2362TIP3    H2 7023   0.673   1.734   3.030
 2363TIP3   OH2 7024   1.085   2.406   4.103
 2363TIP3    H1 7025   1.004   2.353   4.092
 2363TIP3    H2 7026   1.071   2.473   4.033
 2364TIP3   OH2 7027   1.144   2.237   2.753
 2364TIP3    H1 7028   1.179   2.307   2.694
 2364TIP3    H2 7029   1.069   2.287   2.792
 2365TIP3   OH2 7030   0.963   1.717   3.155
 2365TIP3    H1 7031   0.953   1.645   3.222
 2365TIP3    H2 7032   1.059   1.708   3.137
 2366TIP3   OH2 7033  -0.121   2.099   4.254
 2366TIP3    H1 7034  -0.057   2.038   4.295
 2366TIP3    H2 7035  -0.097   2.183   4.296
 2367TIP3   OH2 7036   1.003   1.096   4.308
 2367TIP3    H1 7037   1.090   1.134   4.332
 2367TIP3    H2 7038   1.005   1.010   4.355
 2368TIP3   OH2 7039   0.400   1.952   3.150
 2368TIP3    H1 7040   0.349   1.971   3.230
 2368TIP3    H2 7041   0.395   2.039   3.104
 2369TIP3   OH2 7042   0.844   1.330   4.374
 2369TIP3    H1 7043   0.873   1.377   4.455
 2369TIP3    H2 7044   0.898   1.248   4.376
 2370TIP3   OH2 7045   1.482   1.232   4.357
 2370TIP3    H1 7046   1.384   1.232   4.365
 2370TIP3    H2 7047   1.491   1.184   4.273
 2371TIP3   OH2 7048   1.136   1.428   3.746
 2371TIP3    H1 7049   1.059   1.369   3.757
 2371TIP3    H2 7050   1.207   1.378   3.793
 2372TIP3   OH2 7051   1.104   2.383   3.693
 2372TIP3    H1 7052   1.062   2.429   3.617
 2372TIP3    H2 7053   1.199   2.402   3.673
 2373TIP3   OH2 7054  -0.101   2.428   4.655
 2373TIP3    H1 7055  -0.024   2.441   4.714
 2373TIP3    H2 7056  -0.114   2.333   4.665
 2374TIP3   OH2 7057   0.365   2.377   4.707
 2374TIP3    H1 7058   0.455   2.341   4.717
 2374TIP3    H2 7059   0.331   2.316   4.638
 2375TIP3   OH2 7060   0.966   2.310   4.467
 2375TIP3    H1 7061   0.954   2.233   4.526
 2375TIP3    H2 7062   1.061   2.330   4.483
 2376TIP3   OH2 7063   0.808   1.986   2.757
 2376TIP3    H1 7064   0.885   2.033   2.796
 2376TIP3    H2 7065   0.827   2.001   2.661
 2377TIP3   OH2 7066   0.004   1.810   4.868
 2377TIP3    H1 7067   0.036   1.717   4.869
 2377TIP3    H2 7068  -0.091   1.797   4.866
 2378TIP3   OH2 7069   0.614   1.904   4.646
 2378TIP3    H1 7070   0.572   1.918   4.559
 2378TIP3    H2 7071   0.647   1.812   4.640
 2379TIP3   OH2 7072   1.108   1.916   4.255
 2379TIP3    H1 7073   1.185   1.956   4.211
 2379TIP3    H2 7074   1.039   1.981   4.233
 2380TIP3   OH2 7075   0.112   1.556   4.864
 2380TIP3    H1 7076   0.177   1.484   4.857
 2380TIP3    H2 7077   0.126   1.578   4.958
 2381TIP3   OH2 7078   0.463   1.432   4.514
 2381TIP3    H1 7079   0.391   1.499   4.517
 2381TIP3    H2 7080   0.517   1.467   4.439
 2382TIP3   OH2 7081   0.979   1.838   4.648
 2382TIP3    H1 7082   1.061   1.809   4.606
 2382TIP3    H2 7083   0.972   1.776   4.723
 2383TIP3   OH2 7084   0.585   1.219   4.635
 2383TIP3    H1 7085   0.595   1.145   4.571
 2383TIP3    H2 7086   0.545   1.289   4.578
 2384TIP3   OH2 7087   0.607   1.020   4.445
 2384TIP3    H1 7088   0.629   1.058   4.357
 2384TIP3    H2 7089   0.517   0.983   4.428
 2385TIP3   OH2 7090   0.611   1.546   4.323
 2385TIP3    H1 7091   0.698   1.554   4.281
 2385TIP3    H2 7092   0.558   1.614   4.276
 2386TIP3   OH2 7093   1.194   1.514   4.703
 2386TIP3    H1 7094   1.240   1.429   4.712
 2386TIP3    H2 7095   1.265   1.571   4.668
 2387TIP3   OH2 7096   1.236   1.767   4.440
 2387TIP3    H1 7097   1.179   1.823   4.382
 2387TIP3    H2 7098   1.324   1.787   4.401
 2388TIP3   OH2 7099   0.496   1.333   4.871
 2388TIP3    H1 7100   0.401   1.322   4.894
 2388TIP3    H2 7101   0.504   1.289   4.784
 2389TIP3   OH2 7102   0.760   0.799   4.499
 2389TIP3    H1 7103   0.709   0.880   4.481
 2389TIP3    H2 7104   0.688   0.734   4.501
 2390TIP3   OH2 7105   0.841   1.278   4.736
 2390TIP3    H1 7106   0.827   1.263   4.831
 2390TIP3    H2 7107   0.753   1.252   4.702
 2391TIP3   OH2 7108   1.085   1.235   4.594
 2391TIP3    H1 7109   1.008   1.230   4.654
 2391TIP3    H2 7110   1.158   1.201   4.649
 2392TIP3   OH2 7111   1.313   1.171   4.741
 2392TIP3    H1 7112   1.326   1.075   4.758
 2392TIP3    H2 7113   1.309   1.208   4.831
 2393TIP3   OH2 7114   0.800   0.766   4.768
 2393TIP3    H1 7115   0.878   0.707   4.767
 2393TIP3    H2 7116   0.789   0.781   4.672
 2394TIP3   OH2 7117   0.881   0.997   4.915
 2394TIP3    H1 7118   0.845   0.924   4.861
 2394TIP3    H2 7119   0.802   1.056   4.924
 2395TIP3   OH2 7120  -0.399   2.091   3.868
 2395TIP3    H1 7121  -0.379   2.013   3.923
 2395TIP3    H2 7122  -0.337   2.155   3.907
 2396TIP3   OH2 7123   1.361   2.468   3.655
 2396TIP3    H1 7124   1.382   2.504   3.743
 2396TIP3    H2 7125   1.419   2.520   3.597
 2397TIP3   OH2 7126   1.384   2.492   3.936
 2397TIP3    H1 7127   1.345   2.402   3.933
 2397TIP3    H2 7128   1.461   2.474   3.993
 2398TIP3   OH2 7129   1.431   2.172   4.508
 2398TIP3    H1 7130   1.362   2.181   4.577
 2398TIP3    H2 7131   1.476   2.259   4.513
 2399TIP3   OH2 7132   1.252   1.682   3.121
 2399TIP3    H1 7133   1.320   1.747   3.097
 2399TIP3    H2 7134   1.291   1.645   3.204
 2400TIP3   OH2 7135   1.375   1.550   3.330
 2400TIP3    H1 7136   1.310   1.507   3.390
 2400TIP3    H2 7137   1.441   1.586   3.393
 2401TIP3   OH2 7138   1.433   1.944   3.762
 2401TIP3    H1 7139   1.488   1.877   3.716
 2401TIP3    H2 7140   1.431   2.017   3.697
 2402TIP3   OH2 7141   1.262   2.241   3.957
 2402TIP3    H1 7142   1.190   2.284   4.007
 2402TIP3    H2 7143   1.212   2.196   3.885
 2403TIP3   OH2 7144   1.298   1.451   2.978
 2403TIP3    H1 7145   1.212   1.453   2.933
 2403TIP3    H2 7146   1.288   1.530   3.035
 2404TIP3   OH2 7147   1.187   1.410   3.474
 2404TIP3    H1 7148   1.184   1.312   3.462
 2404TIP3    H2 7149   1.175   1.418   3.571
 2405TIP3   OH2 7150  -0.177   1.472   4.243
 2405TIP3    H1 7151  -0.178   1.492   4.148
 2405TIP3    H2 7152  -0.080   1.477   4.261
 2406TIP3   OH2 7153   1.481   1.833   4.335
 2406TIP3    H1 7154   1.551   1.765   4.324
 2406TIP3    H2 7155   1.510   1.902   4.273
 2407TIP3   OH2 7156   1.663   1.634   4.342
 2407TIP3    H1 7157   1.589   1.584   4.383
 2407TIP3    H2 7158   1.737   1.572   4.360
 2408TIP3   OH2 7159   1.189   1.147   3.384
 2408TIP3    H1 7160   1.225   1.065   3.425
 2408TIP3    H2 7161   1.254   1.159   3.315
 2409TIP3   OH2 7162   1.348   1.296   3.868
 2409TIP3    H1 7163   1.434   1.321   3.826
 2409TIP3    H2 7164   1.363   1.333   3.957
 2410TIP3   OH2 7165   1.421   1.442   4.098
 2410TIP3    H1 7166   1.343   1.475   4.147
 2410TIP3    H2 7167   1.453   1.524   4.053
 2411TIP3   OH2 7168   1.864   1.032   4.652
 2411TIP3    H1 7169   1.928   0.969   4.611
 2411TIP3    H2 7170   1.839   1.087   4.575
 2412TIP3   OH2 7171   1.296   0.918   3.462
 2412TIP3    H1 7172   1.336   0.867   3.535
 2412TIP3    H2 7173   1.270   0.850   3.397
 2413TIP3   OH2 7174   1.739   1.171   4.455
 2413TIP3    H1 7175   1.653   1.213   4.476
 2413TIP3    H2 7176   1.707   1.097   4.399
 2414TIP3   OH2 7177   0.942   2.337   3.309
 2414TIP3    H1 7178   0.997   2.332   3.229
 2414TIP3    H2 7179   0.986   2.408   3.359
 2415TIP3   OH2 7180   0.039   2.147   4.699
 2415TIP3    H1 7181  -0.012   2.068   4.677
 2415TIP3    H2 7182   0.053   2.137   4.795
 2416TIP3   OH2 7183   0.223   2.179   4.242
 2416TIP3    H1 7184   0.174   2.256   4.205
 2416TIP3    H2 7185   0.308   2.194   4.195
 2417TIP3   OH2 7186   0.840   2.543   4.269
 2417TIP3    H1 7187   0.860   2.517   4.176
 2417TIP3    H2 7188   0.895   2.624   4.279
 2418TIP3   OH2 7189   1.639   0.933   4.339
 2418TIP3    H1 7190   1.549   0.923   4.302
 2418TIP3    H2 7191   1.674   0.842   4.328
 2419TIP3   OH2 7192  -0.106   2.427   4.271
 2419TIP3    H1 7193  -0.197   2.456   4.248
 2419TIP3    H2 7194  -0.091   2.483   4.349
 2420TIP3   OH2 7195   0.133   2.412   4.128
 2420TIP3    H1 7196   0.045   2.425   4.170
 2420TIP3    H2 7197   0.116   2.447   4.038
 2421TIP3   OH2 7198   0.557   2.435   3.921
 2421TIP3    H1 7199   0.488   2.453   3.854
 2421TIP3    H2 7200   0.568   2.524   3.961
 2422TIP3   OH2 7201   0.826   2.392   3.992
 2422TIP3    H1 7202   0.734   2.402   3.960
 2422TIP3    H2 7203   0.874   2.451   3.932
 2423TIP3   OH2 7204   1.026   2.564   3.887
 2423TIP3    H1 7205   1.016   2.652   3.843
 2423TIP3    H2 7206   1.057   2.509   3.812
 2424TIP3   OH2 7207  -0.191   2.228   4.001
 2424TIP3    H1 7208  -0.175   2.203   4.094
 2424TIP3    H2 7209  -0.120   2.177   3.956
 2425TIP3   OH2 7210   0.001   2.089   3.864
 2425TIP3    H1 7211   0.020   2.011   3.920
 2425TIP3    H2 7212   0.089   2.132   3.860
 2426TIP3   OH2 7213   0.266   2.191   3.874
 2426TIP3    H1 7214   0.300   2.101   3.863
 2426TIP3    H2 7215   0.311   2.216   3.957
 2427TIP3   OH2 7216   0.843   0.859   3.956
 2427TIP3    H1 7217   0.803   0.790   4.013
 2427TIP3    H2 7218   0.911   0.809   3.907
 2428TIP3   OH2 7219   1.365   0.741   3.881
 2428TIP3    H1 7220   1.407   0.782   3.802
 2428TIP3    H2 7221   1.270   0.745   3.857
 2429TIP3   OH2 7222   1.480   0.828   3.650
 2429TIP3    H1 7223   1.547   0.777   3.600
 2429TIP3    H2 7224   1.505   0.920   3.624
 2430TIP3   OH2 7225   1.082   0.735   3.835
 2430TIP3    H1 7226   1.085   0.696   3.746
 2430TIP3    H2 7227   1.074   0.654   3.890
 2431TIP3   OH2 7228   0.377   2.188   2.999
 2431TIP3    H1 7229   0.460   2.194   2.947
 2431TIP3    H2 7230   0.313   2.159   2.931
 2432TIP3   OH2 7231   1.090   2.304   3.076
 2432TIP3    H1 7232   1.070   2.209   3.062
 2432TIP3    H2 7233   1.042   2.343   2.999
 2433TIP3   OH2 7234   1.382   0.900   4.775
 2433TIP3    H1 7235   1.407   0.874   4.866
 2433TIP3    H2 7236   1.468   0.899   4.729
 2434TIP3   OH2 7237   1.311   2.453   4.263
 2434TIP3    H1 7238   1.235   2.425   4.208
 2434TIP3    H2 7239   1.296   2.549   4.267
 2435TIP3   OH2 7240   2.581   1.823   3.032
 2435TIP3    H1 7241   2.551   1.913   3.007
 2435TIP3    H2 7242   2.509   1.770   2.994
 2436TIP3   OH2 7243   2.580   1.824   3.415
 2436TIP3    H1 7244   2.613   1.797   3.503
 2436TIP3    H2 7245   2.537   1.744   3.383
 2437TIP3   OH2 7246   1.876   1.715   3.776
 2437TIP3    H1 7247   1.907   1.645   3.837
 2437TIP3    H2 7248   1.953   1.774   3.777
 2438TIP3   OH2 7249   2.826   2.131   3.094
 2438TIP3    H1 7250   2.804   2.064   3.161
 2438TIP3    H2 7251   2.856   2.206   3.149
 2439TIP3   OH2 7252   1.851   2.128   3.497
 2439TIP3    H1 7253   1.842   2.030   3.498
 2439TIP3    H2 7254   1.948   2.137   3.495
 2440TIP3   OH2 7255   1.562   1.337   3.280
 2440TIP3    H1 7256   1.508   1.416   3.298
 2440TIP3    H2 7257   1.493   1.273   3.256
 2441TIP3   OH2 7258   1.613   1.616   3.460
 2441TIP3    H1 7259   1.662   1.539   3.496
 2441TIP3    H2 7260   1.675   1.651   3.395
 2442TIP3   OH2 7261   2.481   2.585   3.116
 2442TIP3    H1 7262   2.516   2.524   3.048
 2442TIP3    H2 7263   2.483   2.527   3.193
 2443TIP3   OH2 7264   2.377   2.050   3.459
 2443TIP3    H1 7265   2.416   1.976   3.412
 2443TIP3    H2 7266   2.460   2.095   3.486
 2444TIP3   OH2 7267   3.384   1.380   3.448
 2444TIP3    H1 7268   3.418   1.460   3.493
 2444TIP3    H2 7269   3.435   1.382   3.364
 2445TIP3   OH2 7270   2.774   1.526   3.492
 2445TIP3    H1 7271   2.860   1.483   3.487
 2445TIP3    H2 7272   2.751   1.531   3.397
 2446TIP3   OH2 7273   2.135   1.207   3.451
 2446TIP3    H1 7274   2.109   1.281   3.391
 2446TIP3    H2 7275   2.086   1.133   3.409
 2447TIP3   OH2 7276   2.833   1.307   3.078
 2447TIP3    H1 7277   2.903   1.295   3.146
 2447TIP3    H2 7278   2.878   1.372   3.019
 2448TIP3   OH2 7279   1.762   1.411   3.563
 2448TIP3    H1 7280   1.845   1.391   3.611
 2448TIP3    H2 7281   1.775   1.354   3.484
 2449TIP3   OH2 7282   2.200   1.610   3.357
 2449TIP3    H1 7283   2.294   1.584   3.369
 2449TIP3    H2 7284   2.160   1.526   3.326
 2450TIP3   OH2 7285   3.460   1.590   3.629
 2450TIP3    H1 7286   3.375   1.587   3.675
 2450TIP3    H2 7287   3.519   1.608   3.705
 2451TIP3   OH2 7288   2.124   1.192   3.891
 2451TIP3    H1 7289   2.064   1.229   3.823
 2451TIP3    H2 7290   2.071   1.209   3.972
 2452TIP3   OH2 7291   2.466   2.041   2.900
 2452TIP3    H1 7292   2.430   2.026   2.812
 2452TIP3    H2 7293   2.422   2.124   2.926
 2453TIP3   OH2 7294   2.233   1.967   3.685
 2453TIP3    H1 7295   2.172   2.035   3.721
 2453TIP3    H2 7296   2.276   2.017   3.612
 2454TIP3   OH2 7297   3.029   1.311   3.276
 2454TIP3    H1 7298   3.048   1.229   3.325
 2454TIP3    H2 7299   3.115   1.331   3.236
 2455TIP3   OH2 7300   1.999   1.307   3.671
 2455TIP3    H1 7301   2.061   1.380   3.695
 2455TIP3    H2 7302   2.049   1.266   3.597
 2456TIP3   OH2 7303   2.061   2.164   3.781
 2456TIP3    H1 7304   2.034   2.252   3.747
 2456TIP3    H2 7305   1.983   2.145   3.838
 2457TIP3   OH2 7306   1.452   1.856   3.020
 2457TIP3    H1 7307   1.415   1.885   2.935
 2457TIP3    H2 7308   1.484   1.941   3.057
 2458TIP3   OH2 7309   2.887   2.368   3.257
 2458TIP3    H1 7310   2.796   2.363   3.296
 2458TIP3    H2 7311   2.884   2.454   3.213
 2459TIP3   OH2 7312   3.173   1.264   3.600
 2459TIP3    H1 7313   3.124   1.346   3.609
 2459TIP3    H2 7314   3.250   1.293   3.546
 2460TIP3   OH2 7315   2.476   0.908   3.619
 2460TIP3    H1 7316   2.457   0.812   3.626
 2460TIP3    H2 7317   2.393   0.945   3.659
 2461TIP3   OH2 7318   2.587   2.416   2.927
 2461TIP3    H1 7319   2.638   2.333   2.909
 2461TIP3    H2 7320   2.650   2.481   2.888
 2462TIP3   OH2 7321   2.734   2.200   2.842
 2462TIP3    H1 7322   2.704   2.117   2.803
 2462TIP3    H2 7323   2.774   2.169   2.927
 2463TIP3   OH2 7324   3.116   2.277   3.597
 2463TIP3    H1 7325   3.130   2.213   3.526
 2463TIP3    H2 7326   3.099   2.360   3.546
 2464TIP3   OH2 7327   2.412   1.676   2.864
 2464TIP3    H1 7328   2.333   1.728   2.840
 2464TIP3    H2 7329   2.461   1.672   2.779
 2465TIP3   OH2 7330   2.369   1.465   2.574
 2465TIP3    H1 7331   2.437   1.515   2.624
 2465TIP3    H2 7332   2.427   1.402   2.527
 2466TIP3   OH2 7333   2.756   1.756   2.826
 2466TIP3    H1 7334   2.714   1.778   2.913
 2466TIP3    H2 7335   2.828   1.696   2.857
 2467TIP3   OH2 7336   2.986   1.794   3.761
 2467TIP3    H1 7337   2.991   1.879   3.809
 2467TIP3    H2 7338   2.905   1.808   3.707
 2468TIP3   OH2 7339   1.990   1.754   3.249
 2468TIP3    H1 7340   1.949   1.696   3.181
 2468TIP3    H2 7341   2.066   1.701   3.279
 2469TIP3   OH2 7342   2.123   2.164   3.396
 2469TIP3    H1 7343   2.103   2.127   3.309
 2469TIP3    H2 7344   2.213   2.128   3.413
 2470TIP3   OH2 7345   2.129   1.724   3.605
 2470TIP3    H1 7346   2.160   1.702   3.514
 2470TIP3    H2 7347   2.171   1.810   3.623
 2471TIP3   OH2 7348   2.645   2.367   3.382
 2471TIP3    H1 7349   2.640   2.442   3.442
 2471TIP3    H2 7350   2.634   2.290   3.443
 2472TIP3   OH2 7351   2.266   2.282   3.925
 2472TIP3    H1 7352   2.207   2.343   3.975
 2472TIP3    H2 7353   2.200   2.228   3.878
 2473TIP3   OH2 7354   2.591   1.618   2.660
 2473TIP3    H1 7355   2.655   1.673   2.711
 2473TIP3    H2 7356   2.618   1.640   2.568
 2474TIP3   OH2 7357   2.021   1.837   4.030
 2474TIP3    H1 7358   2.026   1.925   4.073
 2474TIP3    H2 7359   1.926   1.817   4.045
 2475TIP3   OH2 7360   2.343   2.291   2.932
 2475TIP3    H1 7361   2.427   2.342   2.940
 2475TIP3    H2 7362   2.283   2.355   2.893
 2476TIP3   OH2 7363   2.059   2.445   4.015
 2476TIP3    H1 7364   2.021   2.447   3.925
 2476TIP3    H2 7365   1.980   2.426   4.070
 2477TIP3   OH2 7366   3.110   0.850   2.704
 2477TIP3    H1 7367   3.031   0.873   2.757
 2477TIP3    H2 7368   3.128   0.936   2.661
 2478TIP3   OH2 7369   1.859   1.598   3.051
 2478TIP3    H1 7370   1.788   1.640   2.999
 2478TIP3    H2 7371   1.824   1.509   3.065
 2479TIP3   OH2 7372   2.917   2.221   2.244
 2479TIP3    H1 7373   2.924   2.319   2.240
 2479TIP3    H2 7374   3.011   2.195   2.235
 2480TIP3   OH2 7375   1.637   1.981   3.962
 2480TIP3    H1 7376   1.570   1.959   3.893
 2480TIP3    H2 7377   1.675   1.894   3.984
 2481TIP3   OH2 7378   1.492   2.175   3.592
 2481TIP3    H1 7379   1.588   2.172   3.586
 2481TIP3    H2 7380   1.479   2.254   3.647
 2482TIP3   OH2 7381   3.359   2.627   3.655
 2482TIP3    H1 7382   3.357   2.532   3.677
 2482TIP3    H2 7383   3.276   2.657   3.699
 2483TIP3   OH2 7384   2.456   2.414   3.781
 2483TIP3    H1 7385   2.458   2.505   3.817
 2483TIP3    H2 7386   2.390   2.371   3.840
 2484TIP3   OH2 7387   2.226   2.540   2.737
 2484TIP3    H1 7388   2.178   2.522   2.655
 2484TIP3    H2 7389   2.190   2.627   2.764
 2485TIP3   OH2 7390   1.661   2.389   3.121
 2485TIP3    H1 7391   1.709   2.381   3.207
 2485TIP3    H2 7392   1.605   2.310   3.125
 2486TIP3   OH2 7393   2.421   2.442   2.376
 2486TIP3    H1 7394   2.476   2.368   2.342
 2486TIP3    H2 7395   2.458   2.454   2.466
 2487TIP3   OH2 7396   2.476   2.489   2.643
 2487TIP3    H1 7397   2.389   2.499   2.687
 2487TIP3    H2 7398   2.530   2.455   2.716
 2488TIP3   OH2 7399   3.241   1.756   3.928
 2488TIP3    H1 7400   3.158   1.767   3.880
 2488TIP3    H2 7401   3.260   1.662   3.914
 2489TIP3   OH2 7402   1.843   2.163   3.945
 2489TIP3    H1 7403   1.891   2.150   4.029
 2489TIP3    H2 7404   1.768   2.101   3.955
 2490TIP3   OH2 7405   2.239   0.990   3.736
 2490TIP3    H1 7406   2.151   0.957   3.707
 2490TIP3    H2 7407   2.210   1.068   3.787
 2491TIP3   OH2 7408   2.766   1.128   3.890
 2491TIP3    H1 7409   2.843   1.114   3.949
 2491TIP3    H2 7410   2.692   1.114   3.954
 2492TIP3   OH2 7411   3.003   1.524   3.827
 2492TIP3    H1 7412   2.954   1.513   3.912
 2492TIP3    H2 7413   2.986   1.619   3.807
 2493TIP3   OH2 7414   2.664   1.663   2.406
 2493TIP3    H1 7415   2.638   1.632   2.317
 2493TIP3    H2 7416   2.754   1.697   2.388
 2494TIP3   OH2 7417   2.385   1.044   2.698
 2494TIP3    H1 7418   2.357   1.039   2.791
 2494TIP3    H2 7419   2.356   0.956   2.667
 2495TIP3   OH2 7420   2.181   1.501   3.752
 2495TIP3    H1 7421   2.130   1.520   3.833
 2495TIP3    H2 7422   2.163   1.582   3.700
 2496TIP3   OH2 7423   2.056   1.392   3.268
 2496TIP3    H1 7424   1.964   1.362   3.286
 2496TIP3    H2 7425   2.069   1.352   3.179
 2497TIP3   OH2 7426   2.549   1.472   2.992
 2497TIP3    H1 7427   2.500   1.545   2.947
 2497TIP3    H2 7428   2.613   1.445   2.924
 2498TIP3   OH2 7429   2.718   1.755   4.079
 2498TIP3    H1 7430   2.699   1.681   4.141
 2498TIP3    H2 7431   2.812   1.771   4.100
 2499TIP3   OH2 7432   2.698   1.507   3.229
 2499TIP3    H1 7433   2.640   1.532   3.154
 2499TIP3    H2 7434   2.746   1.434   3.184
 2500TIP3   OH2 7435   1.996   1.529   3.958
 2500TIP3    H1 7436   2.020   1.594   4.027
 2500TIP3    H2 7437   1.982   1.448   4.011
 2501TIP3   OH2 7438   2.068   1.012   2.680
 2501TIP3    H1 7439   2.055   0.991   2.774
 2501TIP3    H2 7440   1.980   1.051   2.662
 2502TIP3   OH2 7441   1.586   1.056   3.541
 2502TIP3    H1 7442   1.663   1.084   3.594
 2502TIP3    H2 7443   1.624   1.016   3.462
 2503TIP3   OH2 7444   1.592   1.062   3.076
 2503TIP3    H1 7445   1.631   1.082   2.989
 2503TIP3    H2 7446   1.522   1.129   3.083
 2504TIP3   OH2 7447   2.706   1.736   3.652
 2504TIP3    H1 7448   2.739   1.662   3.597
 2504TIP3    H2 7449   2.688   1.688   3.736
 2505TIP3   OH2 7450   2.391   1.204   3.333
 2505TIP3    H1 7451   2.299   1.197   3.365
 2505TIP3    H2 7452   2.434   1.239   3.412
 2506TIP3   OH2 7453   1.821   1.267   3.334
 2506TIP3    H1 7454   1.727   1.277   3.305
 2506TIP3    H2 7455   1.841   1.175   3.312
 2507TIP3   OH2 7456   2.090   1.270   3.028
 2507TIP3    H1 7457   2.183   1.283   3.001
 2507TIP3    H2 7458   2.040   1.293   2.946
 2508TIP3   OH2 7459   1.933   1.315   2.811
 2508TIP3    H1 7460   1.866   1.257   2.774
 2508TIP3    H2 7461   1.984   1.340   2.731
 2509TIP3   OH2 7462   3.027   2.967   3.743
 2509TIP3    H1 7463   3.031   2.993   3.649
 2509TIP3    H2 7464   3.113   3.006   3.772
 2510TIP3   OH2 7465   2.005   2.086   4.169
 2510TIP3    H1 7466   2.085   2.116   4.217
 2510TIP3    H2 7467   1.940   2.086   4.242
 2511TIP3   OH2 7468   2.464   1.538   3.420
 2511TIP3    H1 7469   2.543   1.509   3.370
 2511TIP3    H2 7470   2.482   1.505   3.509
 2512TIP3   OH2 7471   1.991   1.025   3.303
 2512TIP3    H1 7472   1.955   0.948   3.352
 2512TIP3    H2 7473   2.010   0.986   3.216
 2513TIP3   OH2 7474   2.453   1.435   3.717
 2513TIP3    H1 7475   2.363   1.473   3.726
 2513TIP3    H2 7476   2.508   1.498   3.768
 2514TIP3   OH2 7477   2.179   1.827   2.807
 2514TIP3    H1 7478   2.107   1.761   2.797
 2514TIP3    H2 7479   2.161   1.860   2.898
 2515TIP3   OH2 7480   3.111   1.997   3.394
 2515TIP3    H1 7481   3.115   2.091   3.353
 2515TIP3    H2 7482   3.004   2.004   3.407
 2516TIP3   OH2 7483   2.643   1.138   2.678
 2516TIP3    H1 7484   2.545   1.128   2.685
 2516TIP3    H2 7485   2.659   1.232   2.701
 2517TIP3   OH2 7486   2.576   2.143   3.809
 2517TIP3    H1 7487   2.614   2.126   3.896
 2517TIP3    H2 7488   2.540   2.232   3.819
 2518TIP3   OH2 7489   2.717   1.390   2.772
 2518TIP3    H1 7490   2.807   1.414   2.802
 2518TIP3    H2 7491   2.695   1.467   2.717
 2519TIP3   OH2 7492   1.873   1.851   3.485
 2519TIP3    H1 7493   1.914   1.821   3.400
 2519TIP3    H2 7494   1.914   1.790   3.548
 2520TIP3   OH2 7495   2.323   1.977   2.630
 2520TIP3    H1 7496   2.275   2.063   2.636
 2520TIP3    H2 7497   2.271   1.922   2.692
 2521TIP3   OH2 7498   1.757   1.769   4.099
 2521TIP3    H1 7499   1.776   1.755   4.194
 2521TIP3    H2 7500   1.687   1.703   4.084
 2522TIP3   OH2 7501   2.479   1.888   4.119
 2522TIP3    H1 7502   2.420   1.822   4.078
 2522TIP3    H2 7503   2.567   1.854   4.092
 2523TIP3   OH2 7504   2.734   2.404   3.702
 2523TIP3    H1 7505   2.639   2.405   3.720
 2523TIP3    H2 7506   2.768   2.454   3.780
 2524TIP3   OH2 7507   3.365   2.333   3.698
 2524TIP3    H1 7508   3.267   2.331   3.689
 2524TIP3    H2 7509   3.391   2.306   3.607
 2525TIP3   OH2 7510   2.838   2.296   2.516
 2525TIP3    H1 7511   2.827   2.232   2.588
 2525TIP3    H2 7512   2.868   2.241   2.442
 2526TIP3   OH2 7513   2.837   1.924   3.358
 2526TIP3    H1 7514   2.746   1.907   3.369
 2526TIP3    H2 7515   2.873   1.839   3.331
 2527TIP3   OH2 7516   1.975   2.154   3.110
 2527TIP3    H1 7517   1.973   2.235   3.056
 2527TIP3    H2 7518   1.881   2.139   3.127
 2528TIP3   OH2 7519   1.543   1.457   2.835
 2528TIP3    H1 7520   1.587   1.543   2.853
 2528TIP3    H2 7521   1.462   1.466   2.889
 2529TIP3   OH2 7522   2.106   1.917   3.051
 2529TIP3    H1 7523   2.073   2.007   3.070
 2529TIP3    H2 7524   2.072   1.868   3.128
 2530TIP3   OH2 7525   2.251   2.486   3.592
 2530TIP3    H1 7526   2.299   2.569   3.593
 2530TIP3    H2 7527   2.314   2.430   3.642
 2531TIP3   OH2 7528   1.890   2.388   2.961
 2531TIP3    H1 7529   1.806   2.399   3.009
 2531TIP3    H2 7530   1.924   2.481   2.962
 2532TIP3   OH2 7531   2.628   2.133   3.541
 2532TIP3    H1 7532   2.616   2.132   3.638
 2532TIP3    H2 7533   2.712   2.084   3.533
 2533TIP3   OH2 7534   2.625   2.019   2.406
 2533TIP3    H1 7535   2.676   1.998   2.488
 2533TIP3    H2 7536   2.536   1.994   2.437
 2534TIP3   OH2 7537   2.881   2.660   3.586
 2534TIP3    H1 7538   2.800   2.607   3.583
 2534TIP3    H2 7539   2.864   2.727   3.516
 2535TIP3   OH2 7540   2.943   2.498   2.242
 2535TIP3    H1 7541   2.985   2.570   2.191
 2535TIP3    H2 7542   2.865   2.547   2.275
 2536TIP3   OH2 7543   1.963   1.275   4.103
 2536TIP3    H1 7544   1.867   1.278   4.116
 2536TIP3    H2 7545   1.991   1.220   4.179
 2537TIP3   OH2 7546   2.768   1.959   2.636
 2537TIP3    H1 7547   2.757   1.891   2.706
 2537TIP3    H2 7548   2.866   1.958   2.628
 2538TIP3   OH2 7549   1.682   2.358   3.737
 2538TIP3    H1 7550   1.737   2.289   3.777
 2538TIP3    H2 7551   1.704   2.434   3.793
 2539TIP3   OH2 7552   1.969   2.003   2.421
 2539TIP3    H1 7553   1.985   1.910   2.397
 2539TIP3    H2 7554   1.950   1.995   2.517
 2540TIP3   OH2 7555   1.915   2.010   2.692
 2540TIP3    H1 7556   1.988   1.982   2.749
 2540TIP3    H2 7557   1.918   2.108   2.702
 2541TIP3   OH2 7558   1.648   1.703   2.900
 2541TIP3    H1 7559   1.584   1.752   2.956
 2541TIP3    H2 7560   1.665   1.770   2.831
 2542TIP3   OH2 7561   2.682   1.095   2.960
 2542TIP3    H1 7562   2.673   1.113   2.864
 2542TIP3    H2 7563   2.731   1.175   2.990
 2543TIP3   OH2 7564   2.182   2.208   2.639
 2543TIP3    H1 7565   2.095   2.231   2.677
 2543TIP3    H2 7566   2.200   2.287   2.587
 2544TIP3   OH2 7567   2.373   1.272   3.058
 2544TIP3    H1 7568   2.438   1.343   3.036
 2544TIP3    H2 7569   2.379   1.271   3.156
 2545TIP3   OH2 7570   2.658   1.579   3.875
 2545TIP3    H1 7571   2.655   1.653   3.940
 2545TIP3    H2 7572   2.722   1.522   3.920
 2546TIP3   OH2 7573   2.514   0.999   3.162
 2546TIP3    H1 7574   2.488   1.081   3.208
 2546TIP3    H2 7575   2.579   1.034   3.096
 2547TIP3   OH2 7576   1.928   2.282   2.710
 2547TIP3    H1 7577   1.898   2.353   2.650
 2547TIP3    H2 7578   1.911   2.323   2.798
 2548TIP3   OH2 7579   2.048   0.998   2.995
 2548TIP3    H1 7580   2.045   1.093   3.015
 2548TIP3    H2 7581   2.144   0.985   2.986
 2549TIP3   OH2 7582   3.272   1.498   3.815
 2549TIP3    H1 7583   3.175   1.490   3.825
 2549TIP3    H2 7584   3.299   1.404   3.803
 2550TIP3   OH2 7585   2.949   1.674   3.272
 2550TIP3    H1 7586   2.864   1.651   3.231
 2550TIP3    H2 7587   3.005   1.608   3.228
 2551TIP3   OH2 7588   1.645   1.911   2.700
 2551TIP3    H1 7589   1.714   1.979   2.711
 2551TIP3    H2 7590   1.693   1.851   2.639
 2552TIP3   OH2 7591   1.618   1.193   2.819
 2552TIP3    H1 7592   1.607   1.289   2.835
 2552TIP3    H2 7593   1.535   1.168   2.776
 2553TIP3   OH2 7594   2.902   2.637   3.180
 2553TIP3    H1 7595   2.861   2.685   3.104
 2553TIP3    H2 7596   2.997   2.658   3.162
 2554TIP3   OH2 7597   1.978   0.906   3.706
 2554TIP3    H1 7598   1.944   0.873   3.620
 2554TIP3    H2 7599   1.966   0.828   3.764
 2555TIP3   OH2 7600   1.508   2.121   3.086
 2555TIP3    H1 7601   1.451   2.158   3.156
 2555TIP3    H2 7602   1.474   2.169   3.006
 2556TIP3   OH2 7603   1.676   2.675   4.160
 2556TIP3    H1 7604   1.761   2.679   4.209
 2556TIP3    H2 7605   1.659   2.579   4.160
 2557TIP3   OH2 7606   2.148   2.631   4.204
 2557TIP3    H1 7607   2.243   2.618   4.216
 2557TIP3    H2 7608   2.129   2.567   4.134
 2558TIP3   OH2 7609   2.130   2.206   2.327
 2558TIP3    H1 7610   2.075   2.136   2.369
 2558TIP3    H2 7611   2.207   2.153   2.301
 2559TIP3   OH2 7612   2.796   2.535   3.934
 2559TIP3    H1 7613   2.787   2.468   4.006
 2559TIP3    H2 7614   2.872   2.588   3.966
 2560TIP3   OH2 7615   2.567   2.244   2.249
 2560TIP3    H1 7616   2.610   2.184   2.314
 2560TIP3    H2 7617   2.642   2.289   2.208
 2561TIP3   OH2 7618   1.803   2.076   4.360
 2561TIP3    H1 7619   1.819   1.980   4.367
 2561TIP3    H2 7620   1.715   2.078   4.316
 2562TIP3   OH2 7621   1.790   1.724   2.569
 2562TIP3    H1 7622   1.852   1.694   2.639
 2562TIP3    H2 7623   1.852   1.729   2.492
 2563TIP3   OH2 7624   2.410   2.163   4.135
 2563TIP3    H1 7625   2.370   2.181   4.048
 2563TIP3    H2 7626   2.442   2.070   4.125
 2564TIP3   OH2 7627   2.298   1.924   2.362
 2564TIP3    H1 7628   2.299   1.937   2.460
 2564TIP3    H2 7629   2.295   1.825   2.358
 2565TIP3   OH2 7630   2.900   2.170   3.732
 2565TIP3    H1 7631   2.978   2.215   3.694
 2565TIP3    H2 7632   2.833   2.241   3.724
 2566TIP3   OH2 7633   1.923   1.810   4.344
 2566TIP3    H1 7634   2.001   1.758   4.320
 2566TIP3    H2 7635   1.950   1.843   4.433
 2567TIP3   OH2 7636   1.982   1.630   2.772
 2567TIP3    H1 7637   1.959   1.592   2.858
 2567TIP3    H2 7638   2.023   1.554   2.726
 2568TIP3   OH2 7639   2.261   1.695   4.002
 2568TIP3    H1 7640   2.182   1.754   4.004
 2568TIP3    H2 7641   2.309   1.729   3.923
 2569TIP3   OH2 7642   2.093   1.425   2.616
 2569TIP3    H1 7643   2.069   1.433   2.522
 2569TIP3    H2 7644   2.191   1.429   2.610
 2570TIP3   OH2 7645   2.772   2.093   4.135
 2570TIP3    H1 7646   2.860   2.074   4.101
 2570TIP3    H2 7647   2.767   2.032   4.211
 2571TIP3   OH2 7648   2.888   1.761   2.281
 2571TIP3    H1 7649   2.882   1.713   2.196
 2571TIP3    H2 7650   2.878   1.853   2.255
 2572TIP3   OH2 7651   2.379   1.484   4.131
 2572TIP3    H1 7652   2.379   1.405   4.075
 2572TIP3    H2 7653   2.336   1.552   4.074
 2573TIP3   OH2 7654   2.383   1.267   3.938
 2573TIP3    H1 7655   2.405   1.315   3.856
 2573TIP3    H2 7656   2.289   1.244   3.922
 2574TIP3   OH2 7657   2.413   1.797   3.803
 2574TIP3    H1 7658   2.498   1.822   3.763
 2574TIP3    H2 7659   2.353   1.864   3.763
 2575TIP3   OH2 7660   2.988   1.769   4.191
 2575TIP3    H1 7661   3.036   1.688   4.213
 2575TIP3    H2 7662   3.059   1.826   4.160
 2576TIP3   OH2 7663   3.033   2.024   3.919
 2576TIP3    H1 7664   2.975   2.080   3.862
 2576TIP3    H2 7665   3.121   2.045   3.881
 2577TIP3   OH2 7666   2.256   1.591   4.362
 2577TIP3    H1 7667   2.190   1.522   4.379
 2577TIP3    H2 7668   2.293   1.562   4.276
 2578TIP3   OH2 7669   2.521   1.029   3.987
 2578TIP3    H1 7670   2.467   1.111   3.980
 2578TIP3    H2 7671   2.451   0.961   3.991
 2579TIP3   OH2 7672   2.643   1.536   4.222
 2579TIP3    H1 7673   2.637   1.522   4.318
 2579TIP3    H2 7674   2.551   1.511   4.197
 2580TIP3   OH2 7675   2.870   1.480   4.064
 2580TIP3    H1 7676   2.803   1.486   4.135
 2580TIP3    H2 7677   2.950   1.456   4.117
 2581TIP3   OH2 7678   3.096   1.428   4.219
 2581TIP3    H1 7679   3.114   1.333   4.236
 2581TIP3    H2 7680   3.098   1.466   4.309
 2582TIP3   OH2 7681   2.098   1.369   4.418
 2582TIP3    H1 7682   2.103   1.277   4.386
 2582TIP3    H2 7683   2.137   1.359   4.508
 2583TIP3   OH2 7684   2.608   1.044   4.258
 2583TIP3    H1 7685   2.679   0.976   4.259
 2583TIP3    H2 7686   2.573   1.031   4.168
 2584TIP3   OH2 7687   2.674   1.256   4.422
 2584TIP3    H1 7688   2.652   1.185   4.358
 2584TIP3    H2 7689   2.595   1.314   4.417
 2585TIP3   OH2 7690   1.899   2.485   2.524
 2585TIP3    H1 7691   1.994   2.476   2.504
 2585TIP3    H2 7692   1.871   2.540   2.448
 2586TIP3   OH2 7693   1.379   1.864   2.739
 2586TIP3    H1 7694   1.473   1.890   2.725
 2586TIP3    H2 7695   1.376   1.777   2.695
 2587TIP3   OH2 7696   1.295   2.476   3.154
 2587TIP3    H1 7697   1.228   2.416   3.115
 2587TIP3    H2 7698   1.338   2.417   3.219
 2588TIP3   OH2 7699   1.430   2.321   3.339
 2588TIP3    H1 7700   1.416   2.255   3.409
 2588TIP3    H2 7701   1.480   2.388   3.390
 2589TIP3   OH2 7702   3.154   2.730   3.141
 2589TIP3    H1 7703   3.179   2.765   3.229
 2589TIP3    H2 7704   3.220   2.772   3.084
 2590TIP3   OH2 7705   3.180   2.751   3.423
 2590TIP3    H1 7706   3.147   2.659   3.424
 2590TIP3    H2 7707   3.259   2.742   3.478
 2591TIP3   OH2 7708   3.225   2.424   3.993
 2591TIP3    H1 7709   3.156   2.436   4.061
 2591TIP3    H2 7710   3.272   2.510   3.999
 2592TIP3   OH2 7711   3.043   1.950   2.620
 2592TIP3    H1 7712   3.117   2.006   2.589
 2592TIP3    H2 7713   3.083   1.906   2.698
 2593TIP3   OH2 7714   3.167   1.805   2.817
 2593TIP3    H1 7715   3.116   1.740   2.869
 2593TIP3    H2 7716   3.239   1.833   2.878
 2594TIP3   OH2 7717   3.225   2.195   3.251
 2594TIP3    H1 7718   3.284   2.140   3.200
 2594TIP3    H2 7719   3.220   2.275   3.197
 2595TIP3   OH2 7720   3.058   2.496   3.446
 2595TIP3    H1 7721   2.991   2.545   3.497
 2595TIP3    H2 7722   3.004   2.455   3.375
 2596TIP3   OH2 7723   3.118   1.745   2.442
 2596TIP3    H1 7724   3.033   1.727   2.399
 2596TIP3    H2 7725   3.089   1.799   2.518
 2597TIP3   OH2 7726   2.955   1.398   2.402
 2597TIP3    H1 7727   2.936   1.408   2.309
 2597TIP3    H2 7728   2.951   1.301   2.412
 2598TIP3   OH2 7729   1.612   1.738   3.712
 2598TIP3    H1 7730   1.609   1.704   3.620
 2598TIP3    H2 7731   1.709   1.739   3.727
 2599TIP3   OH2 7732   3.279   2.089   3.818
 2599TIP3    H1 7733   3.349   2.021   3.808
 2599TIP3    H2 7734   3.315   2.164   3.767
 2600TIP3   OH2 7735   3.455   1.882   3.821
 2600TIP3    H1 7736   3.383   1.836   3.869
 2600TIP3    H2 7737   3.530   1.821   3.840
 2601TIP3   OH2 7738   2.933   1.121   2.391
 2601TIP3    H1 7739   3.007   1.097   2.451
 2601TIP3    H2 7740   2.859   1.069   2.428
 2602TIP3   OH2 7741   1.831   1.424   4.385
 2602TIP3    H1 7742   1.929   1.419   4.391
 2602TIP3    H2 7743   1.808   1.337   4.424
 2603TIP3   OH2 7744   3.676   1.286   4.140
 2603TIP3    H1 7745   3.694   1.203   4.091
 2603TIP3    H2 7746   3.645   1.340   4.065
 2604TIP3   OH2 7747   3.122   1.096   2.880
 2604TIP3    H1 7748   3.151   1.097   2.973
 2604TIP3    H2 7749   3.041   1.041   2.886
 2605TIP3   OH2 7750   1.794   1.115   3.715
 2605TIP3    H1 7751   1.856   1.039   3.725
 2605TIP3    H2 7752   1.857   1.189   3.707
 2606TIP3   OH2 7753   1.594   1.389   3.788
 2606TIP3    H1 7754   1.643   1.383   3.704
 2606TIP3    H2 7755   1.625   1.473   3.823
 2607TIP3   OH2 7756   3.537   1.428   3.947
 2607TIP3    H1 7757   3.457   1.456   3.995
 2607TIP3    H2 7758   3.502   1.351   3.896
 2608TIP3   OH2 7759   3.168   1.064   2.528
 2608TIP3    H1 7760   3.216   0.996   2.477
 2608TIP3    H2 7761   3.232   1.138   2.530
 2609TIP3   OH2 7762   1.582   0.898   3.292
 2609TIP3    H1 7763   1.488   0.903   3.316
 2609TIP3    H2 7764   1.587   0.956   3.213
 2610TIP3   OH2 7765   2.736   2.597   2.795
 2610TIP3    H1 7766   2.790   2.587   2.714
 2610TIP3    H2 7767   2.788   2.662   2.846
 2611TIP3   OH2 7768   1.799   0.970   4.104
 2611TIP3    H1 7769   1.748   0.968   4.187
 2611TIP3    H2 7770   1.733   1.010   4.043
 2612TIP3   OH2 7771   1.839   2.399   4.177
 2612TIP3    H1 7772   1.745   2.377   4.166
 2612TIP3    H2 7773   1.851   2.387   4.272
 2613TIP3   OH2 7774   2.014   2.434   3.728
 2613TIP3    H1 7775   1.966   2.509   3.689
 2613TIP3    H2 7776   2.100   2.446   3.684
 2614TIP3   OH2 7777   2.459   2.680   3.860
 2614TIP3    H1 7778   2.497   2.675   3.951
 2614TIP3    H2 7779   2.529   2.732   3.815
 2615TIP3   OH2 7780   2.642   2.834   3.725
 2615TIP3    H1 7781   2.718   2.784   3.691
 2615TIP3    H2 7782   2.689   2.893   3.789
 2616TIP3   OH2 7783   3.414   1.216   3.804
 2616TIP3    H1 7784   3.343   1.148   3.801
 2616TIP3    H2 7785   3.489   1.161   3.838
 2617TIP3   OH2 7786   1.695   2.691   3.755
 2617TIP3    H1 7787   1.603   2.719   3.733
 2617TIP3    H2 7788   1.709   2.743   3.836
 2618TIP3   OH2 7789   1.927   2.668   3.610
 2618TIP3    H1 7790   1.840   2.680   3.655
 2618TIP3    H2 7791   1.907   2.702   3.520
 2619TIP3   OH2 7792   2.303   2.776   3.365
 2619TIP3    H1 7793   2.259   2.689   3.382
 2619TIP3    H2 7794   2.346   2.794   3.454
 2620TIP3   OH2 7795   2.622   2.643   3.454
 2620TIP3    H1 7796   2.546   2.672   3.403
 2620TIP3    H2 7797   2.690   2.708   3.422
 2621TIP3   OH2 7798   2.815   2.820   3.369
 2621TIP3    H1 7799   2.811   2.908   3.325
 2621TIP3    H2 7800   2.854   2.765   3.297
 2622TIP3   OH2 7801   1.604   2.484   3.494
 2622TIP3    H1 7802   1.629   2.456   3.585
 2622TIP3    H2 7803   1.677   2.440   3.444
 2623TIP3   OH2 7804   1.798   2.354   3.354
 2623TIP3    H1 7805   1.812   2.271   3.405
 2623TIP3    H2 7806   1.889   2.390   3.353
 2624TIP3   OH2 7807   2.061   2.433   3.372
 2624TIP3    H1 7808   2.093   2.341   3.360
 2624TIP3    H2 7809   2.110   2.458   3.452
 2625TIP3   OH2 7810   2.681   1.098   3.533
 2625TIP3    H1 7811   2.610   1.031   3.525
 2625TIP3    H2 7812   2.730   1.084   3.449
 2626TIP3   OH2 7813   3.159   0.995   3.360
 2626TIP3    H1 7814   3.199   1.037   3.280
 2626TIP3    H2 7815   3.064   0.998   3.341
 2627TIP3   OH2 7816   3.255   1.089   3.124
 2627TIP3    H1 7817   3.324   1.031   3.084
 2627TIP3    H2 7818   3.295   1.176   3.102
 2628TIP3   OH2 7819   1.883   0.819   3.459
 2628TIP3    H1 7820   1.793   0.783   3.453
 2628TIP3    H2 7821   1.936   0.736   3.457
 2629TIP3   OH2 7822   1.706   0.680   3.132
 2629TIP3    H1 7823   1.672   0.694   3.042
 2629TIP3    H2 7824   1.665   0.753   3.182
 2630TIP3   OH2 7825   2.339   0.842   3.338
 2630TIP3    H1 7826   2.399   0.892   3.279
 2630TIP3    H2 7827   2.349   0.888   3.422
 2631TIP3   OH2 7828   2.877   0.998   3.326
 2631TIP3    H1 7829   2.873   0.959   3.237
 2631TIP3    H2 7830   2.865   0.918   3.382
 2632TIP3   OH2 7831   2.906   0.914   2.889
 2632TIP3    H1 7832   2.821   0.958   2.902
 2632TIP3    H2 7833   2.892   0.829   2.935
 2633TIP3   OH2 7834   1.390   2.260   2.885
 2633TIP3    H1 7835   1.303   2.231   2.852
 2633TIP3    H2 7836   1.386   2.354   2.861
 2634TIP3   OH2 7837   1.831   0.941   2.812
 2634TIP3    H1 7838   1.772   0.863   2.815
 2634TIP3    H2 7839   1.883   0.930   2.894
 2635TIP3   OH2 7840   2.320   1.022   2.964
 2635TIP3    H1 7841   2.378   0.974   3.026
 2635TIP3    H2 7842   2.341   1.114   2.990
 2636TIP3   OH2 7843   2.164   2.439   2.471
 2636TIP3    H1 7844   2.251   2.464   2.434
 2636TIP3    H2 7845   2.142   2.365   2.410
 2637TIP3   OH2 7846   2.883   2.562   2.563
 2637TIP3    H1 7847   2.871   2.465   2.549
 2637TIP3    H2 7848   2.839   2.598   2.483
 2638TIP3   OH2 7849   2.096   1.095   4.352
 2638TIP3    H1 7850   2.062   1.024   4.409
 2638TIP3    H2 7851   2.191   1.095   4.379
 2639TIP3   OH2 7852   2.345   1.091   4.470
 2639TIP3    H1 7853   2.433   1.067   4.434
 2639TIP3    H2 7854   2.333   1.022   4.538
 2640TIP3   OH2 7855   1.470   2.280   2.528
 2640TIP3    H1 7856   1.470   2.307   2.621
 2640TIP3    H2 7857   1.560   2.242   2.517
 2641TIP3   OH2 7858   3.162   1.161   4.257
 2641TIP3    H1 7859   3.186   1.127   4.346
 2641TIP3    H2 7860   3.250   1.163   4.213
 2642TIP3   OH2 7861   3.110   2.706   3.748
 2642TIP3    H1 7862   3.029   2.678   3.700
 2642TIP3    H2 7863   3.093   2.802   3.755
 2643TIP3   OH2 7864   4.372   2.076   2.520
 2643TIP3    H1 7865   4.344   2.168   2.501
 2643TIP3    H2 7866   4.297   2.028   2.481
 2644TIP3   OH2 7867   4.364   2.084   2.906
 2644TIP3    H1 7868   4.407   2.058   2.989
 2644TIP3    H2 7869   4.332   1.999   2.872
 2645TIP3   OH2 7870   3.662   1.979   3.275
 2645TIP3    H1 7871   3.697   1.907   3.331
 2645TIP3    H2 7872   3.746   2.021   3.248
 2646TIP3   OH2 7873   3.646   2.382   2.982
 2646TIP3    H1 7874   3.639   2.284   2.984
 2646TIP3    H2 7875   3.742   2.393   2.978
 2647TIP3   OH2 7876   3.329   1.563   2.769
 2647TIP3    H1 7877   3.296   1.653   2.755
 2647TIP3    H2 7878   3.253   1.522   2.812
 2648TIP3   OH2 7879   3.405   1.875   2.949
 2648TIP3    H1 7880   3.456   1.797   2.983
 2648TIP3    H2 7881   3.471   1.914   2.889
 2649TIP3   OH2 7882   4.274   2.839   2.595
 2649TIP3    H1 7883   4.318   2.768   2.545
 2649TIP3    H2 7884   4.269   2.800   2.683
 2650TIP3   OH2 7885   4.173   2.306   2.948
 2650TIP3    H1 7886   4.217   2.228   2.908
 2650TIP3    H2 7887   4.254   2.356   2.971
 2651TIP3   OH2 7888   5.192   1.624   2.945
 2651TIP3    H1 7889   5.219   1.709   2.984
 2651TIP3    H2 7890   5.210   1.640   2.850
 2652TIP3   OH2 7891   4.585   1.803   2.977
 2652TIP3    H1 7892   4.630   1.719   2.997
 2652TIP3    H2 7893   4.554   1.788   2.886
 2653TIP3   OH2 7894   3.925   1.467   2.943
 2653TIP3    H1 7895   3.907   1.539   2.880
 2653TIP3    H2 7896   3.878   1.393   2.899
 2654TIP3   OH2 7897   4.619   1.558   2.563
 2654TIP3    H1 7898   4.691   1.545   2.629
 2654TIP3    H2 7899   4.672   1.592   2.488
 2655TIP3   OH2 7900   3.557   1.675   3.046
 2655TIP3    H1 7901   3.631   1.652   3.105
 2655TIP3    H2 7902   3.575   1.615   2.970
 2656TIP3   OH2 7903   3.996   1.865   2.850
 2656TIP3    H1 7904   4.092   1.842   2.859
 2656TIP3    H2 7905   3.960   1.781   2.815
 2657TIP3   OH2 7906   5.264   1.836   3.114
 2657TIP3    H1 7907   5.180   1.881   3.092
 2657TIP3    H2 7908   5.278   1.867   3.204
 2658TIP3   OH2 7909   3.924   1.448   3.374
 2658TIP3    H1 7910   3.863   1.486   3.308
 2658TIP3    H2 7911   3.874   1.465   3.457
 2659TIP3   OH2 7912   4.252   2.297   2.397
 2659TIP3    H1 7913   4.244   2.293   2.301
 2659TIP3    H2 7914   4.206   2.381   2.417
 2660TIP3   OH2 7915   4.027   2.224   3.167
 2660TIP3    H1 7916   3.969   2.295   3.203
 2660TIP3    H2 7917   4.074   2.271   3.095
 2661TIP3   OH2 7918   4.824   1.565   2.741
 2661TIP3    H1 7919   4.815   1.517   2.825
 2661TIP3    H2 7920   4.877   1.642   2.767
 2662TIP3   OH2 7921   3.788   1.563   3.162
 2662TIP3    H1 7922   3.850   1.637   3.184
 2662TIP3    H2 7923   3.838   1.523   3.087
 2663TIP3   OH2 7924   3.858   2.422   3.266
 2663TIP3    H1 7925   3.834   2.511   3.232
 2663TIP3    H2 7926   3.779   2.405   3.322
 2664TIP3   OH2 7927   3.250   2.112   2.508
 2664TIP3    H1 7928   3.212   2.145   2.425
 2664TIP3    H2 7929   3.284   2.195   2.547
 2665TIP3   OH2 7930   4.697   2.637   2.773
 2665TIP3    H1 7931   4.605   2.612   2.793
 2665TIP3    H2 7932   4.685   2.708   2.708
 2666TIP3   OH2 7933   4.983   1.524   3.110
 2666TIP3    H1 7934   4.895   1.550   3.078
 2666TIP3    H2 7935   5.042   1.556   3.039
 2667TIP3   OH2 7936   4.273   1.164   3.092
 2667TIP3    H1 7937   4.259   1.070   3.112
 2667TIP3    H2 7938   4.197   1.204   3.139
 2668TIP3   OH2 7939   4.394   2.662   2.417
 2668TIP3    H1 7940   4.457   2.588   2.426
 2668TIP3    H2 7941   4.452   2.729   2.372
 2669TIP3   OH2 7942   4.916   2.535   3.091
 2669TIP3    H1 7943   4.902   2.460   3.029
 2669TIP3    H2 7944   4.897   2.612   3.032
 2670TIP3   OH2 7945   4.205   1.930   2.348
 2670TIP3    H1 7946   4.128   1.986   2.325
 2670TIP3    H2 7947   4.256   1.931   2.265
 2671TIP3   OH2 7948   4.163   1.721   2.060
 2671TIP3    H1 7949   4.230   1.771   2.111
 2671TIP3    H2 7950   4.221   1.658   2.012
 2672TIP3   OH2 7951   5.111   2.179   2.941
 2672TIP3    H1 7952   5.026   2.229   2.943
 2672TIP3    H2 7953   5.141   2.200   2.850
 2673TIP3   OH2 7954   4.549   2.008   2.322
 2673TIP3    H1 7955   4.498   2.037   2.401
 2673TIP3    H2 7956   4.636   1.989   2.362
 2674TIP3   OH2 7957   4.788   2.051   3.233
 2674TIP3    H1 7958   4.784   2.135   3.283
 2674TIP3    H2 7959   4.705   2.057   3.183
 2675TIP3   OH2 7960   3.786   2.010   2.738
 2675TIP3    H1 7961   3.748   1.951   2.669
 2675TIP3    H2 7962   3.863   1.957   2.769
 2676TIP3   OH2 7963   3.915   2.421   2.884
 2676TIP3    H1 7964   3.900   2.387   2.794
 2676TIP3    H2 7965   4.005   2.387   2.904
 2677TIP3   OH2 7966   3.910   1.987   3.090
 2677TIP3    H1 7967   3.950   1.958   3.005
 2677TIP3    H2 7968   3.961   2.069   3.110
 2678TIP3   OH2 7969   4.437   2.619   2.860
 2678TIP3    H1 7970   4.434   2.699   2.916
 2678TIP3    H2 7971   4.428   2.547   2.925
 2679TIP3   OH2 7972   4.063   2.537   3.415
 2679TIP3    H1 7973   4.002   2.600   3.461
 2679TIP3    H2 7974   3.998   2.485   3.364
 2680TIP3   OH2 7975   4.391   1.873   2.146
 2680TIP3    H1 7976   4.451   1.932   2.197
 2680TIP3    H2 7977   4.418   1.895   2.053
 2681TIP3   OH2 7978   3.822   2.095   3.521
 2681TIP3    H1 7979   3.824   2.183   3.564
 2681TIP3    H2 7980   3.727   2.080   3.514
 2682TIP3   OH2 7981   4.138   2.554   2.417
 2682TIP3    H1 7982   4.224   2.599   2.426
 2682TIP3    H2 7983   4.081   2.622   2.380
 2683TIP3   OH2 7984   3.857   2.701   3.502
 2683TIP3    H1 7985   3.819   2.710   3.413
 2683TIP3    H2 7986   3.778   2.679   3.556
 2684TIP3   OH2 7987   4.910   1.119   2.204
 2684TIP3    H1 7988   4.826   1.142   2.247
 2684TIP3    H2 7989   4.923   1.194   2.143
 2685TIP3   OH2 7990   3.655   1.854   2.540
 2685TIP3    H1 7991   3.586   1.896   2.485
 2685TIP3    H2 7992   3.619   1.765   2.551
 2686TIP3   OH2 7993   4.709   2.477   1.737
 2686TIP3    H1 7994   4.717   2.575   1.731
 2686TIP3    H2 7995   4.803   2.450   1.723
 2687TIP3   OH2 7996   3.431   2.234   3.455
 2687TIP3    H1 7997   3.380   2.213   3.374
 2687TIP3    H2 7998   3.473   2.149   3.479
 2688TIP3   OH2 7999   3.291   2.425   3.090
 2688TIP3    H1 8000   3.386   2.421   3.070
 2688TIP3    H2 8001   3.288   2.509   3.140
 2689TIP3   OH2 8002   5.154   2.887   3.140
 2689TIP3    H1 8003   5.151   2.790   3.151
 2689TIP3    H2 8004   5.070   2.912   3.183
 2690TIP3   OH2 8005   4.257   2.666   3.271
 2690TIP3    H1 8006   4.255   2.759   3.303
 2690TIP3    H2 8007   4.187   2.626   3.327
 2691TIP3   OH2 8008   4.018   2.793   2.226
 2691TIP3    H1 8009   3.976   2.778   2.140
 2691TIP3    H2 8010   3.988   2.883   2.249
 2692TIP3   OH2 8011   3.457   2.645   2.611
 2692TIP3    H1 8012   3.508   2.638   2.694
 2692TIP3    H2 8013   3.404   2.563   2.616
 2693TIP3   OH2 8014   4.220   2.697   1.862
 2693TIP3    H1 8015   4.279   2.627   1.826
 2693TIP3    H2 8016   4.257   2.708   1.952
 2694TIP3   OH2 8017   4.271   2.750   2.131
 2694TIP3    H1 8018   4.184   2.756   2.177
 2694TIP3    H2 8019   4.326   2.710   2.199
 2695TIP3   OH2 8020   5.042   2.013   3.412
 2695TIP3    H1 8021   4.959   2.026   3.364
 2695TIP3    H2 8022   5.057   1.917   3.401
 2696TIP3   OH2 8023   3.638   2.417   3.428
 2696TIP3    H1 8024   3.685   2.416   3.513
 2696TIP3    H2 8025   3.562   2.358   3.445
 2697TIP3   OH2 8026   4.036   1.242   3.222
 2697TIP3    H1 8027   3.947   1.214   3.194
 2697TIP3    H2 8028   4.012   1.324   3.271
 2698TIP3   OH2 8029   4.573   1.358   3.416
 2698TIP3    H1 8030   4.641   1.331   3.481
 2698TIP3    H2 8031   4.489   1.339   3.464
 2699TIP3   OH2 8032   4.810   1.789   3.335
 2699TIP3    H1 8033   4.759   1.787   3.419
 2699TIP3    H2 8034   4.785   1.876   3.298
 2700TIP3   OH2 8035   4.465   1.908   1.887
 2700TIP3    H1 8036   4.440   1.890   1.795
 2700TIP3    H2 8037   4.546   1.962   1.874
 2701TIP3   OH2 8038   4.181   1.294   2.193
 2701TIP3    H1 8039   4.149   1.291   2.285
 2701TIP3    H2 8040   4.144   1.209   2.160
 2702TIP3   OH2 8041   3.966   1.761   3.236
 2702TIP3    H1 8042   3.922   1.783   3.321
 2702TIP3    H2 8043   3.949   1.843   3.184
 2703TIP3   OH2 8044   3.850   1.646   2.754
 2703TIP3    H1 8045   3.757   1.621   2.772
 2703TIP3    H2 8046   3.863   1.605   2.666
 2704TIP3   OH2 8047   4.341   1.729   2.482
 2704TIP3    H1 8048   4.292   1.802   2.438
 2704TIP3    H2 8049   4.399   1.699   2.409
 2705TIP3   OH2 8050   4.519   2.006   3.566
 2705TIP3    H1 8051   4.496   1.935   3.628
 2705TIP3    H2 8052   4.612   2.021   3.589
 2706TIP3   OH2 8053   4.498   1.758   2.720
 2706TIP3    H1 8054   4.438   1.790   2.649
 2706TIP3    H2 8055   4.533   1.679   2.674
 2707TIP3   OH2 8056   3.788   1.790   3.450
 2707TIP3    H1 8057   3.833   1.850   3.512
 2707TIP3    H2 8058   3.784   1.708   3.502
 2708TIP3   OH2 8059   3.835   1.267   2.158
 2708TIP3    H1 8060   3.828   1.265   2.256
 2708TIP3    H2 8061   3.758   1.323   2.135
 2709TIP3   OH2 8062   3.382   1.309   3.040
 2709TIP3    H1 8063   3.460   1.343   3.088
 2709TIP3    H2 8064   3.418   1.285   2.952
 2710TIP3   OH2 8065   3.336   1.296   2.549
 2710TIP3    H1 8066   3.384   1.328   2.469
 2710TIP3    H2 8067   3.294   1.379   2.576
 2711TIP3   OH2 8068   4.504   2.003   3.140
 2711TIP3    H1 8069   4.540   1.932   3.081
 2711TIP3    H2 8070   4.477   1.948   3.217
 2712TIP3   OH2 8071   4.184   1.465   2.814
 2712TIP3    H1 8072   4.105   1.466   2.871
 2712TIP3    H2 8073   4.256   1.463   2.879
 2713TIP3   OH2 8074   3.606   1.525   2.819
 2713TIP3    H1 8075   3.512   1.523   2.791
 2713TIP3    H2 8076   3.637   1.435   2.798
 2714TIP3   OH2 8077   3.879   1.518   2.513
 2714TIP3    H1 8078   3.974   1.534   2.495
 2714TIP3    H2 8079   3.835   1.542   2.428
 2715TIP3   OH2 8080   4.677   1.543   3.020
 2715TIP3    H1 8081   4.642   1.557   3.111
 2715TIP3    H2 8082   4.608   1.484   2.983
 2716TIP3   OH2 8083   3.728   1.555   2.286
 2716TIP3    H1 8084   3.658   1.511   2.235
 2716TIP3    H2 8085   3.782   1.594   2.214
 2717TIP3   OH2 8086   4.847   3.232   3.237
 2717TIP3    H1 8087   4.843   3.259   3.144
 2717TIP3    H2 8088   4.925   3.282   3.269
 2718TIP3   OH2 8089   3.800   2.340   3.657
 2718TIP3    H1 8090   3.880   2.373   3.702
 2718TIP3    H2 8091   3.735   2.351   3.730
 2719TIP3   OH2 8092   4.263   1.795   2.909
 2719TIP3    H1 8093   4.338   1.760   2.858
 2719TIP3    H2 8094   4.273   1.752   2.995
 2720TIP3   OH2 8095   3.780   1.285   2.794
 2720TIP3    H1 8096   3.746   1.206   2.842
 2720TIP3    H2 8097   3.833   1.245   2.724
 2721TIP3   OH2 8098   4.239   1.695   3.204
 2721TIP3    H1 8099   4.149   1.732   3.216
 2721TIP3    H2 8100   4.296   1.757   3.253
 2722TIP3   OH2 8101   3.974   2.083   2.292
 2722TIP3    H1 8102   3.901   2.019   2.282
 2722TIP3    H2 8103   3.957   2.118   2.383
 2723TIP3   OH2 8104   4.876   2.318   2.926
 2723TIP3    H1 8105   4.895   2.369   2.844
 2723TIP3    H2 8106   4.791   2.275   2.904
 2724TIP3   OH2 8107   4.432   1.398   2.153
 2724TIP3    H1 8108   4.336   1.380   2.168
 2724TIP3    H2 8109   4.443   1.491   2.183
 2725TIP3   OH2 8110   4.371   2.399   3.296
 2725TIP3    H1 8111   4.407   2.389   3.385
 2725TIP3    H2 8112   4.336   2.490   3.297
 2726TIP3   OH2 8113   4.502   1.643   2.263
 2726TIP3    H1 8114   4.598   1.650   2.280
 2726TIP3    H2 8115   4.484   1.725   2.213
 2727TIP3   OH2 8116   3.664   2.100   2.970
 2727TIP3    H1 8117   3.704   2.078   2.883
 2727TIP3    H2 8118   3.722   2.050   3.029
 2728TIP3   OH2 8119   4.120   2.232   2.112
 2728TIP3    H1 8120   4.073   2.318   2.121
 2728TIP3    H2 8121   4.071   2.178   2.178
 2729TIP3   OH2 8122   3.550   2.027   3.599
 2729TIP3    H1 8123   3.603   2.051   3.678
 2729TIP3    H2 8124   3.513   1.944   3.633
 2730TIP3   OH2 8125   4.279   2.143   3.605
 2730TIP3    H1 8126   4.221   2.086   3.552
 2730TIP3    H2 8127   4.367   2.109   3.578
 2731TIP3   OH2 8128   4.534   2.658   3.193
 2731TIP3    H1 8129   4.438   2.661   3.203
 2731TIP3    H2 8130   4.562   2.713   3.270
 2732TIP3   OH2 8131   4.948   1.734   2.097
 2732TIP3    H1 8132   4.885   1.690   2.035
 2732TIP3    H2 8133   4.943   1.824   2.059
 2733TIP3   OH2 8134   5.166   2.595   3.177
 2733TIP3    H1 8135   5.068   2.588   3.169
 2733TIP3    H2 8136   5.191   2.564   3.087
 2734TIP3   OH2 8137   4.624   2.561   2.003
 2734TIP3    H1 8138   4.664   2.521   2.084
 2734TIP3    H2 8139   4.654   2.497   1.936
 2735TIP3   OH2 8140   4.647   2.172   2.865
 2735TIP3    H1 8141   4.551   2.161   2.859
 2735TIP3    H2 8142   4.678   2.101   2.806
 2736TIP3   OH2 8143   3.774   2.412   2.599
 2736TIP3    H1 8144   3.776   2.492   2.543
 2736TIP3    H2 8145   3.679   2.399   2.609
 2737TIP3   OH2 8146   3.343   1.715   2.298
 2737TIP3    H1 8147   3.391   1.798   2.323
 2737TIP3    H2 8148   3.263   1.725   2.356
 2738TIP3   OH2 8149   3.898   2.172   2.536
 2738TIP3    H1 8150   3.870   2.263   2.557
 2738TIP3    H2 8151   3.868   2.124   2.615
 2739TIP3   OH2 8152   4.042   2.752   3.064
 2739TIP3    H1 8153   4.083   2.826   3.015
 2739TIP3    H2 8154   4.118   2.717   3.113
 2740TIP3   OH2 8155   3.687   2.652   2.448
 2740TIP3    H1 8156   3.603   2.661   2.496
 2740TIP3    H2 8157   3.721   2.744   2.453
 2741TIP3   OH2 8158   4.425   2.390   3.026
 2741TIP3    H1 8159   4.416   2.386   3.123
 2741TIP3    H2 8160   4.505   2.338   3.011
 2742TIP3   OH2 8161   4.401   2.279   1.906
 2742TIP3    H1 8162   4.463   2.252   1.979
 2742TIP3    H2 8163   4.317   2.257   1.948
 2743TIP3   OH2 8164   4.675   2.921   3.078
 2743TIP3    H1 8165   4.595   2.865   3.068
 2743TIP3    H2 8166   4.660   2.986   3.005
 2744TIP3   OH2 8167   4.741   2.755   1.726
 2744TIP3    H1 8168   4.779   2.832   1.680
 2744TIP3    H2 8169   4.660   2.796   1.762
 2745TIP3   OH2 8170   3.778   1.531   3.595
 2745TIP3    H1 8171   3.682   1.525   3.610
 2745TIP3    H2 8172   3.812   1.474   3.667
 2746TIP3   OH2 8173   4.559   2.196   2.110
 2746TIP3    H1 8174   4.553   2.145   2.193
 2746TIP3    H2 8175   4.642   2.245   2.126
 2747TIP3   OH2 8176   3.475   2.616   3.226
 2747TIP3    H1 8177   3.536   2.551   3.264
 2747TIP3    H2 8178   3.500   2.696   3.276
 2748TIP3   OH2 8179   3.763   2.262   1.910
 2748TIP3    H1 8180   3.785   2.171   1.884
 2748TIP3    H2 8181   3.746   2.252   2.005
 2749TIP3   OH2 8182   3.709   2.266   2.183
 2749TIP3    H1 8183   3.787   2.239   2.233
 2749TIP3    H2 8184   3.714   2.364   2.191
 2750TIP3   OH2 8185   3.447   1.958   2.385
 2750TIP3    H1 8186   3.380   2.003   2.441
 2750TIP3    H2 8187   3.465   2.029   2.320
 2751TIP3   OH2 8188   4.600   1.596   3.278
 2751TIP3    H1 8189   4.681   1.635   3.316
 2751TIP3    H2 8190   4.587   1.515   3.332
 2752TIP3   OH2 8191   4.475   1.349   2.444
 2752TIP3    H1 8192   4.467   1.372   2.350
 2752TIP3    H2 8193   4.519   1.428   2.481
 2753TIP3   OH2 8194   3.976   2.461   2.127
 2753TIP3    H1 8195   3.890   2.489   2.164
 2753TIP3    H2 8196   3.998   2.538   2.073
 2754TIP3   OH2 8197   4.160   1.529   2.544
 2754TIP3    H1 8198   4.226   1.600   2.525
 2754TIP3    H2 8199   4.171   1.520   2.641
 2755TIP3   OH2 8200   4.436   1.841   3.350
 2755TIP3    H1 8201   4.462   1.895   3.428
 2755TIP3    H2 8202   4.491   1.762   3.360
 2756TIP3   OH2 8203   4.309   1.247   2.643
 2756TIP3    H1 8204   4.303   1.323   2.703
 2756TIP3    H2 8205   4.370   1.283   2.574
 2757TIP3   OH2 8206   3.720   2.538   2.198
 2757TIP3    H1 8207   3.694   2.610   2.136
 2757TIP3    H2 8208   3.707   2.582   2.285
 2758TIP3   OH2 8209   3.823   1.253   2.434
 2758TIP3    H1 8210   3.821   1.343   2.472
 2758TIP3    H2 8211   3.920   1.236   2.442
 2759TIP3   OH2 8212   5.076   1.745   3.332
 2759TIP3    H1 8213   4.978   1.744   3.340
 2759TIP3    H2 8214   5.085   1.704   3.244
 2760TIP3   OH2 8215   4.729   1.938   2.720
 2760TIP3    H1 8216   4.652   1.879   2.732
 2760TIP3    H2 8217   4.799   1.890   2.769
 2761TIP3   OH2 8218   3.441   2.168   2.185
 2761TIP3    H1 8219   3.513   2.233   2.197
 2761TIP3    H2 8220   3.487   2.108   2.122
 2762TIP3   OH2 8221   3.382   1.443   2.322
 2762TIP3    H1 8222   3.387   1.541   2.320
 2762TIP3    H2 8223   3.294   1.426   2.286
 2763TIP3   OH2 8224   4.697   2.905   2.667
 2763TIP3    H1 8225   4.655   2.951   2.591
 2763TIP3    H2 8226   4.792   2.919   2.645
 2764TIP3   OH2 8227   3.768   1.166   3.196
 2764TIP3    H1 8228   3.740   1.131   3.108
 2764TIP3    H2 8229   3.760   1.087   3.253
 2765TIP3   OH2 8230   3.306   2.377   2.575
 2765TIP3    H1 8231   3.244   2.413   2.639
 2765TIP3    H2 8232   3.277   2.423   2.492
 2766TIP3   OH2 8233   3.477   2.927   3.633
 2766TIP3    H1 8234   3.560   2.938   3.685
 2766TIP3    H2 8235   3.458   2.833   3.650
 2767TIP3   OH2 8236   3.960   2.887   3.692
 2767TIP3    H1 8237   4.054   2.864   3.693
 2767TIP3    H2 8238   3.927   2.829   3.621
 2768TIP3   OH2 8239   3.929   2.464   1.817
 2768TIP3    H1 8240   3.876   2.392   1.858
 2768TIP3    H2 8241   4.006   2.414   1.785
 2769TIP3   OH2 8242   4.588   2.796   3.425
 2769TIP3    H1 8243   4.582   2.726   3.495
 2769TIP3    H2 8244   4.665   2.849   3.456
 2770TIP3   OH2 8245   4.365   2.501   1.732
 2770TIP3    H1 8246   4.408   2.442   1.797
 2770TIP3    H2 8247   4.429   2.499   1.658
 2771TIP3   OH2 8248   3.598   2.334   3.850
 2771TIP3    H1 8249   3.615   2.239   3.857
 2771TIP3    H2 8250   3.510   2.336   3.806
 2772TIP3   OH2 8251   3.576   1.976   2.046
 2772TIP3    H1 8252   3.634   1.947   2.119
 2772TIP3    H2 8253   3.642   1.982   1.974
 2773TIP3   OH2 8254   4.207   2.419   3.622
 2773TIP3    H1 8255   4.167   2.440   3.535
 2773TIP3    H2 8256   4.239   2.327   3.609
 2774TIP3   OH2 8257   4.080   2.177   1.847
 2774TIP3    H1 8258   4.090   2.192   1.943
 2774TIP3    H2 8259   4.086   2.079   1.844
 2775TIP3   OH2 8260   4.699   2.431   3.231
 2775TIP3    H1 8261   4.775   2.472   3.185
 2775TIP3    H2 8262   4.630   2.499   3.214
 2776TIP3   OH2 8263   3.715   2.067   3.824
 2776TIP3    H1 8264   3.796   2.020   3.799
 2776TIP3    H2 8265   3.741   2.099   3.914
 2777TIP3   OH2 8266   3.774   1.887   2.257
 2777TIP3    H1 8267   3.757   1.848   2.344
 2777TIP3    H2 8268   3.817   1.813   2.209
 2778TIP3   OH2 8269   4.047   1.941   3.484
 2778TIP3    H1 8270   3.976   2.009   3.492
 2778TIP3    H2 8271   4.102   1.980   3.412
 2779TIP3   OH2 8272   3.887   1.683   2.103
 2779TIP3    H1 8273   3.863   1.688   2.008
 2779TIP3    H2 8274   3.985   1.687   2.097
 2780TIP3   OH2 8275   4.569   2.351   3.624
 2780TIP3    H1 8276   4.647   2.322   3.575
 2780TIP3    H2 8277   4.565   2.287   3.697
 2781TIP3   OH2 8278   4.704   2.008   1.768
 2781TIP3    H1 8279   4.680   1.966   1.683
 2781TIP3    H2 8280   4.673   2.100   1.750
 2782TIP3   OH2 8281   4.178   1.740   3.616
 2782TIP3    H1 8282   4.179   1.660   3.560
 2782TIP3    H2 8283   4.133   1.805   3.558
 2783TIP3   OH2 8284   4.181   1.526   3.427
 2783TIP3    H1 8285   4.209   1.568   3.343
 2783TIP3    H2 8286   4.088   1.502   3.406
 2784TIP3   OH2 8287   4.203   2.060   3.301
 2784TIP3    H1 8288   4.289   2.072   3.259
 2784TIP3    H2 8289   4.148   2.126   3.253
 2785TIP3   OH2 8290   4.785   2.027   3.676
 2785TIP3    H1 8291   4.835   1.944   3.687
 2785TIP3    H2 8292   4.853   2.086   3.640
 2786TIP3   OH2 8293   4.827   2.281   3.415
 2786TIP3    H1 8294   4.770   2.337   3.357
 2786TIP3    H2 8295   4.915   2.302   3.375
 2787TIP3   OH2 8296   4.055   1.847   3.849
 2787TIP3    H1 8297   3.987   1.778   3.865
 2787TIP3    H2 8298   4.090   1.819   3.761
 2788TIP3   OH2 8299   4.312   1.288   3.494
 2788TIP3    H1 8300   4.262   1.370   3.472
 2788TIP3    H2 8301   4.242   1.220   3.484
 2789TIP3   OH2 8302   4.438   1.790   3.709
 2789TIP3    H1 8303   4.422   1.776   3.805
 2789TIP3    H2 8304   4.348   1.767   3.676
 2790TIP3   OH2 8305   4.676   1.741   3.564
 2790TIP3    H1 8306   4.600   1.743   3.626
 2790TIP3    H2 8307   4.750   1.711   3.622
 2791TIP3   OH2 8308   4.911   1.685   3.714
 2791TIP3    H1 8309   4.920   1.589   3.730
 2791TIP3    H2 8310   4.902   1.722   3.805
 2792TIP3   OH2 8311   3.891   1.633   3.908
 2792TIP3    H1 8312   3.897   1.542   3.872
 2792TIP3    H2 8313   3.932   1.619   3.996
 2793TIP3   OH2 8314   4.407   1.299   3.752
 2793TIP3    H1 8315   4.472   1.226   3.745
 2793TIP3    H2 8316   4.365   1.294   3.664
 2794TIP3   OH2 8317   4.472   1.513   3.910
 2794TIP3    H1 8318   4.450   1.441   3.847
 2794TIP3    H2 8319   4.392   1.570   3.904
 2795TIP3   OH2 8320   3.694   2.739   2.008
 2795TIP3    H1 8321   3.790   2.731   1.991
 2795TIP3    H2 8322   3.668   2.793   1.931
 2796TIP3   OH2 8323   3.173   2.123   2.216
 2796TIP3    H1 8324   3.268   2.149   2.208
 2796TIP3    H2 8325   3.175   2.032   2.182
 2797TIP3   OH2 8326   3.087   2.733   2.644
 2797TIP3    H1 8327   3.022   2.671   2.605
 2797TIP3    H2 8328   3.133   2.674   2.707
 2798TIP3   OH2 8329   3.225   2.579   2.826
 2798TIP3    H1 8330   3.213   2.511   2.895
 2798TIP3    H2 8331   3.277   2.645   2.876
 2799TIP3   OH2 8332   4.955   2.985   2.627
 2799TIP3    H1 8333   4.978   3.018   2.716
 2799TIP3    H2 8334   5.019   3.030   2.570
 2800TIP3   OH2 8335   4.981   3.010   2.909
 2800TIP3    H1 8336   4.936   2.923   2.906
 2800TIP3    H2 8337   5.056   2.987   2.967
 2801TIP3   OH2 8338   5.028   2.682   3.484
 2801TIP3    H1 8339   4.955   2.692   3.548
 2801TIP3    H2 8340   5.068   2.772   3.487
 2802TIP3   OH2 8341   4.865   2.181   2.086
 2802TIP3    H1 8342   4.863   2.278   2.105
 2802TIP3    H2 8343   4.885   2.149   2.175
 2803TIP3   OH2 8344   4.975   2.052   2.310
 2803TIP3    H1 8345   4.901   2.018   2.364
 2803TIP3    H2 8346   5.017   2.116   2.370
 2804TIP3   OH2 8347   5.029   2.460   2.740
 2804TIP3    H1 8348   5.073   2.392   2.685
 2804TIP3    H2 8349   5.014   2.532   2.676
 2805TIP3   OH2 8350   4.862   2.764   2.943
 2805TIP3    H1 8351   4.790   2.805   2.993
 2805TIP3    H2 8352   4.812   2.715   2.873
 2806TIP3   OH2 8353   4.910   1.961   1.944
 2806TIP3    H1 8354   4.833   1.970   1.883
 2806TIP3    H2 8355   4.895   2.042   1.998
 2807TIP3   OH2 8356   4.780   1.641   1.903
 2807TIP3    H1 8357   4.731   1.681   1.831
 2807TIP3    H2 8358   4.757   1.546   1.892
 2808TIP3   OH2 8359   4.779   1.923   2.450
 2808TIP3    H1 8360   4.790   1.826   2.445
 2808TIP3    H2 8361   4.766   1.937   2.546
 2809TIP3   OH2 8362   3.390   1.976   3.209
 2809TIP3    H1 8363   3.400   1.959   3.111
 2809TIP3    H2 8364   3.487   1.989   3.228
 2810TIP3   OH2 8365   5.073   2.345   3.310
 2810TIP3    H1 8366   5.144   2.280   3.296
 2810TIP3    H2 8367   5.093   2.413   3.244
 2811TIP3   OH2 8368   5.257   2.147   3.315
 2811TIP3    H1 8369   5.181   2.100   3.356
 2811TIP3    H2 8370   5.329   2.083   3.334
 2812TIP3   OH2 8371   4.726   1.373   1.883
 2812TIP3    H1 8372   4.802   1.347   1.939
 2812TIP3    H2 8373   4.655   1.315   1.914
 2813TIP3   OH2 8374   4.778   1.637   2.343
 2813TIP3    H1 8375   4.820   1.549   2.358
 2813TIP3    H2 8376   4.837   1.672   2.274
 2814TIP3   OH2 8377   4.942   1.806   2.842
 2814TIP3    H1 8378   5.027   1.831   2.800
 2814TIP3    H2 8379   4.955   1.846   2.930
 2815TIP3   OH2 8380   5.013   1.956   3.071
 2815TIP3    H1 8381   4.935   1.989   3.119
 2815TIP3    H2 8382   5.044   2.038   3.026
 2816TIP3   OH2 8383   3.626   1.671   3.857
 2816TIP3    H1 8384   3.723   1.671   3.872
 2816TIP3    H2 8385   3.602   1.588   3.904
 2817TIP3   OH2 8386   5.468   1.551   3.627
 2817TIP3    H1 8387   5.523   1.485   3.581
 2817TIP3    H2 8388   5.432   1.603   3.551
 2818TIP3   OH2 8389   4.887   1.389   2.385
 2818TIP3    H1 8390   4.935   1.371   2.468
 2818TIP3    H2 8391   4.828   1.311   2.380
 2819TIP3   OH2 8392   3.585   1.376   3.226
 2819TIP3    H1 8393   3.647   1.300   3.227
 2819TIP3    H2 8394   3.647   1.449   3.208
 2820TIP3   OH2 8395   5.330   1.682   3.434
 2820TIP3    H1 8396   5.245   1.727   3.454
 2820TIP3    H2 8397   5.297   1.611   3.375
 2821TIP3   OH2 8398   4.966   1.320   2.016
 2821TIP3    H1 8399   5.006   1.244   1.969
 2821TIP3    H2 8400   5.037   1.387   2.011
 2822TIP3   OH2 8401   3.375   1.152   2.777
 2822TIP3    H1 8402   3.283   1.135   2.807
 2822TIP3    H2 8403   3.360   1.212   2.700
 2823TIP3   OH2 8404   4.530   2.853   2.282
 2823TIP3    H1 8405   4.585   2.840   2.202
 2823TIP3    H2 8406   4.585   2.915   2.333
 2824TIP3   OH2 8407   3.595   1.237   3.584
 2824TIP3    H1 8408   3.549   1.229   3.670
 2824TIP3    H2 8409   3.521   1.261   3.527
 2825TIP3   OH2 8410   3.639   2.638   3.662
 2825TIP3    H1 8411   3.542   2.631   3.655
 2825TIP3    H2 8412   3.651   2.666   3.753
 2826TIP3   OH2 8413   3.814   2.691   3.212
 2826TIP3    H1 8414   3.768   2.770   3.176
 2826TIP3    H2 8415   3.901   2.705   3.168
 2827TIP3   OH2 8416   4.256   2.932   3.350
 2827TIP3    H1 8417   4.296   2.933   3.439
 2827TIP3    H2 8418   4.321   2.986   3.300
 2828TIP3   OH2 8419   4.434   3.089   3.213
 2828TIP3    H1 8420   4.505   3.038   3.171
 2828TIP3    H2 8421   4.486   3.146   3.274
 2829TIP3   OH2 8422   5.231   1.448   3.311
 2829TIP3    H1 8423   5.140   1.441   3.275
 2829TIP3    H2 8424   5.262   1.355   3.300
 2830TIP3   OH2 8425   3.488   2.944   3.244
 2830TIP3    H1 8426   3.397   2.976   3.225
 2830TIP3    H2 8427   3.509   2.997   3.322
 2831TIP3   OH2 8428   3.723   2.925   3.098
 2831TIP3    H1 8429   3.637   2.938   3.144
 2831TIP3    H2 8430   3.704   2.960   3.009
 2832TIP3   OH2 8431   4.151   2.952   2.896
 2832TIP3    H1 8432   4.083   2.974   2.831
 2832TIP3    H2 8433   4.164   3.039   2.940
 2833TIP3   OH2 8434   4.422   2.891   2.949
 2833TIP3    H1 8435   4.328   2.909   2.930
 2833TIP3    H2 8436   4.465   2.965   2.905
 2834TIP3   OH2 8437   4.625   3.084   2.862
 2834TIP3    H1 8438   4.612   3.168   2.814
 2834TIP3    H2 8439   4.652   3.024   2.789
 2835TIP3   OH2 8440   3.399   2.738   2.981
 2835TIP3    H1 8441   3.426   2.714   3.073
 2835TIP3    H2 8442   3.474   2.698   2.932
 2836TIP3   OH2 8443   3.597   2.613   2.843
 2836TIP3    H1 8444   3.612   2.528   2.891
 2836TIP3    H2 8445   3.688   2.650   2.841
 2837TIP3   OH2 8446   3.862   2.704   2.849
 2837TIP3    H1 8447   3.894   2.613   2.839
 2837TIP3    H2 8448   3.911   2.729   2.930
 2838TIP3   OH2 8449   4.436   1.362   2.930
 2838TIP3    H1 8450   4.395   1.290   2.981
 2838TIP3    H2 8451   4.511   1.317   2.887
 2839TIP3   OH2 8452   4.956   1.250   2.843
 2839TIP3    H1 8453   4.992   1.298   2.764
 2839TIP3    H2 8454   4.860   1.264   2.831
 2840TIP3   OH2 8455   5.051   1.341   2.604
 2840TIP3    H1 8456   5.124   1.290   2.562
 2840TIP3    H2 8457   5.084   1.433   2.589
 2841TIP3   OH2 8458   3.683   1.070   2.947
 2841TIP3    H1 8459   3.591   1.038   2.949
 2841TIP3    H2 8460   3.732   0.985   2.943
 2842TIP3   OH2 8461   3.469   0.944   2.598
 2842TIP3    H1 8462   3.502   1.000   2.525
 2842TIP3    H2 8463   3.443   1.011   2.664
 2843TIP3   OH2 8464   4.129   1.103   2.829
 2843TIP3    H1 8465   4.186   1.149   2.765
 2843TIP3    H2 8466   4.162   1.141   2.913
 2844TIP3   OH2 8467   4.672   1.251   2.811
 2844TIP3    H1 8468   4.677   1.211   2.723
 2844TIP3    H2 8469   4.661   1.170   2.867
 2845TIP3   OH2 8470   4.701   1.179   2.379
 2845TIP3    H1 8471   4.613   1.217   2.393
 2845TIP3    H2 8472   4.691   1.091   2.421
 2846TIP3   OH2 8473   3.187   2.516   2.375
 2846TIP3    H1 8474   3.100   2.489   2.341
 2846TIP3    H2 8475   3.183   2.611   2.353
 2847TIP3   OH2 8476   3.592   1.100   2.358
 2847TIP3    H1 8477   3.640   1.037   2.301
 2847TIP3    H2 8478   3.666   1.154   2.393
 2848TIP3   OH2 8479   4.100   1.277   2.457
 2848TIP3    H1 8480   4.162   1.231   2.515
 2848TIP3    H2 8481   4.120   1.370   2.482
 2849TIP3   OH2 8482   3.962   2.697   1.959
 2849TIP3    H1 8483   4.050   2.720   1.922
 2849TIP3    H2 8484   3.940   2.622   1.898
 2850TIP3   OH2 8485   4.679   2.822   2.051
 2850TIP3    H1 8486   4.668   2.724   2.042
 2850TIP3    H2 8487   4.634   2.851   1.970
 2851TIP3   OH2 8488   3.893   1.371   3.831
 2851TIP3    H1 8489   3.848   1.300   3.879
 2851TIP3    H2 8490   3.986   1.358   3.862
 2852TIP3   OH2 8491   4.142   1.354   3.952
 2852TIP3    H1 8492   4.227   1.322   3.917
 2852TIP3    H2 8493   4.126   1.291   4.026
 2853TIP3   OH2 8494   3.268   2.538   2.017
 2853TIP3    H1 8495   3.278   2.563   2.110
 2853TIP3    H2 8496   3.354   2.494   1.997
 2854TIP3   OH2 8497   4.968   1.413   3.744
 2854TIP3    H1 8498   4.986   1.383   3.836
 2854TIP3    H2 8499   5.057   1.407   3.704
 2855TIP3   OH2 8500   4.905   2.963   3.237
 2855TIP3    H1 8501   4.826   2.933   3.188
 2855TIP3    H2 8502   4.886   3.059   3.243
 2856TIP3   OH2 8503   6.175   2.341   1.998
 2856TIP3    H1 8504   6.143   2.431   1.976
 2856TIP3    H2 8505   6.098   2.287   1.969
 2857TIP3   OH2 8506   6.177   2.335   2.387
 2857TIP3    H1 8507   6.209   2.310   2.476
 2857TIP3    H2 8508   6.130   2.255   2.359
 2858TIP3   OH2 8509   5.473   2.229   2.745
 2858TIP3    H1 8510   5.503   2.161   2.808
 2858TIP3    H2 8511   5.549   2.289   2.745
 2859TIP3   OH2 8512   6.421   2.641   2.067
 2859TIP3    H1 8513   6.398   2.573   2.132
 2859TIP3    H2 8514   6.445   2.716   2.124
 2860TIP3   OH2 8515   5.446   2.646   2.473
 2860TIP3    H1 8516   5.436   2.549   2.473
 2860TIP3    H2 8517   5.543   2.653   2.467
 2861TIP3   OH2 8518   5.153   1.845   2.256
 2861TIP3    H1 8519   5.100   1.924   2.277
 2861TIP3    H2 8520   5.084   1.791   2.213
 2862TIP3   OH2 8521   5.218   2.140   2.441
 2862TIP3    H1 8522   5.263   2.057   2.468
 2862TIP3    H2 8523   5.255   2.155   2.353
 2863TIP3   OH2 8524   6.069   3.102   2.082
 2863TIP3    H1 8525   6.113   3.028   2.036
 2863TIP3    H2 8526   6.050   3.063   2.169
 2864TIP3   OH2 8527   5.969   2.563   2.432
 2864TIP3    H1 8528   6.008   2.486   2.387
 2864TIP3    H2 8529   6.052   2.608   2.458
 2865TIP3   OH2 8530   6.985   1.881   2.431
 2865TIP3    H1 8531   7.014   1.965   2.473
 2865TIP3    H2 8532   7.010   1.897   2.338
 2866TIP3   OH2 8533   6.386   2.063   2.462
 2866TIP3    H1 8534   6.426   1.976   2.482
 2866TIP3    H2 8535   6.351   2.046   2.372
 2867TIP3   OH2 8536   5.727   1.722   2.426
 2867TIP3    H1 8537   5.702   1.794   2.365
 2867TIP3    H2 8538   5.677   1.647   2.385
 2868TIP3   OH2 8539   6.417   1.814   2.050
 2868TIP3    H1 8540   6.489   1.800   2.116
 2868TIP3    H2 8541   6.470   1.849   1.975
 2869TIP3   OH2 8542   5.354   1.921   2.539
 2869TIP3    H1 8543   5.437   1.901   2.585
 2869TIP3    H2 8544   5.366   1.866   2.458
 2870TIP3   OH2 8545   5.794   2.122   2.329
 2870TIP3    H1 8546   5.887   2.096   2.344
 2870TIP3    H2 8547   5.754   2.038   2.298
 2871TIP3   OH2 8548   7.058   2.090   2.601
 2871TIP3    H1 8549   6.972   2.136   2.585
 2871TIP3    H2 8550   7.081   2.125   2.689
 2872TIP3   OH2 8551   5.718   1.706   2.866
 2872TIP3    H1 8552   5.659   1.742   2.796
 2872TIP3    H2 8553   5.663   1.725   2.945
 2873TIP3   OH2 8554   6.072   2.564   1.863
 2873TIP3    H1 8555   6.020   2.539   1.785
 2873TIP3    H2 8556   6.022   2.643   1.893
 2874TIP3   OH2 8557   5.825   2.484   2.657
 2874TIP3    H1 8558   5.762   2.551   2.692
 2874TIP3    H2 8559   5.865   2.532   2.582
 2875TIP3   OH2 8560   6.622   1.820   2.228
 2875TIP3    H1 8561   6.603   1.777   2.313
 2875TIP3    H2 8562   6.674   1.898   2.256
 2876TIP3   OH2 8563   5.592   1.819   2.647
 2876TIP3    H1 8564   5.653   1.893   2.670
 2876TIP3    H2 8565   5.641   1.780   2.571
 2877TIP3   OH2 8566   5.655   2.679   2.756
 2877TIP3    H1 8567   5.628   2.766   2.720
 2877TIP3    H2 8568   5.575   2.660   2.811
 2878TIP3   OH2 8569   5.074   2.379   1.981
 2878TIP3    H1 8570   4.995   2.397   1.929
 2878TIP3    H2 8571   5.079   2.456   2.039
 2879TIP3   OH2 8572   6.487   2.884   2.229
 2879TIP3    H1 8573   6.399   2.873   2.272
 2879TIP3    H2 8574   6.475   2.971   2.186
 2880TIP3   OH2 8575   6.779   1.778   2.597
 2880TIP3    H1 8576   6.692   1.807   2.565
 2880TIP3    H2 8577   6.839   1.812   2.526
 2881TIP3   OH2 8578   6.074   1.424   2.585
 2881TIP3    H1 8579   6.054   1.329   2.597
 2881TIP3    H2 8580   5.995   1.463   2.629
 2882TIP3   OH2 8581   6.189   2.926   1.907
 2882TIP3    H1 8582   6.239   2.844   1.887
 2882TIP3    H2 8583   6.249   2.992   1.865
 2883TIP3   OH2 8584   6.332   2.708   1.814
 2883TIP3    H1 8585   6.267   2.637   1.798
 2883TIP3    H2 8586   6.373   2.677   1.898
 2884TIP3   OH2 8587   6.711   2.794   2.576
 2884TIP3    H1 8588   6.697   2.716   2.518
 2884TIP3    H2 8589   6.691   2.868   2.515
 2885TIP3   OH2 8590   6.003   2.188   1.837
 2885TIP3    H1 8591   5.921   2.238   1.819
 2885TIP3    H2 8592   6.045   2.186   1.749
 2886TIP3   OH2 8593   5.961   1.977   1.544
 2886TIP3    H1 8594   6.027   2.025   1.596
 2886TIP3    H2 8595   6.018   1.912   1.498
 2887TIP3   OH2 8596   6.906   2.434   2.423
 2887TIP3    H1 8597   6.821   2.484   2.428
 2887TIP3    H2 8598   6.934   2.456   2.332
 2888TIP3   OH2 8599   6.352   2.272   1.803
 2888TIP3    H1 8600   6.296   2.297   1.881
 2888TIP3    H2 8601   6.435   2.246   1.849
 2889TIP3   OH2 8602   6.585   2.308   2.721
 2889TIP3    H1 8603   6.581   2.392   2.771
 2889TIP3    H2 8604   6.498   2.310   2.676
 2890TIP3   OH2 8605   5.583   2.267   2.220
 2890TIP3    H1 8606   5.541   2.209   2.153
 2890TIP3    H2 8607   5.658   2.212   2.250
 2891TIP3   OH2 8608   5.715   2.685   2.367
 2891TIP3    H1 8609   5.690   2.643   2.283
 2891TIP3    H2 8610   5.803   2.645   2.384
 2892TIP3   OH2 8611   5.731   2.234   2.580
 2892TIP3    H1 8612   5.753   2.217   2.487
 2892TIP3    H2 8613   5.764   2.326   2.594
 2893TIP3   OH2 8614   6.251   2.877   2.355
 2893TIP3    H1 8615   6.231   2.957   2.407
 2893TIP3    H2 8616   6.230   2.804   2.418
 2894TIP3   OH2 8617   5.857   2.794   2.903
 2894TIP3    H1 8618   5.796   2.857   2.947
 2894TIP3    H2 8619   5.793   2.742   2.850
 2895TIP3   OH2 8620   6.191   2.127   1.633
 2895TIP3    H1 8621   6.249   2.189   1.683
 2895TIP3    H2 8622   6.218   2.148   1.540
 2896TIP3   OH2 8623   5.612   2.347   3.007
 2896TIP3    H1 8624   5.617   2.436   3.047
 2896TIP3    H2 8625   5.517   2.328   3.019
 2897TIP3   OH2 8626   5.939   2.802   1.905
 2897TIP3    H1 8627   6.015   2.861   1.919
 2897TIP3    H2 8628   5.873   2.862   1.867
 2898TIP3   OH2 8629   5.652   2.961   2.990
 2898TIP3    H1 8630   5.617   2.964   2.899
 2898TIP3    H2 8631   5.572   2.938   3.042
 2899TIP3   OH2 8632   6.703   1.364   1.680
 2899TIP3    H1 8633   6.623   1.388   1.730
 2899TIP3    H2 8634   6.718   1.447   1.629
 2900TIP3   OH2 8635   5.452   2.110   2.021
 2900TIP3    H1 8636   5.382   2.156   1.970
 2900TIP3    H2 8637   5.408   2.027   2.042
 2901TIP3   OH2 8638   6.501   2.737   1.226
 2901TIP3    H1 8639   6.506   2.835   1.213
 2901TIP3    H2 8640   6.596   2.714   1.218
 2902TIP3   OH2 8641   5.229   2.496   2.933
 2902TIP3    H1 8642   5.160   2.481   2.865
 2902TIP3    H2 8643   5.264   2.406   2.948
 2903TIP3   OH2 8644   5.085   2.692   2.571
 2903TIP3    H1 8645   5.180   2.688   2.558
 2903TIP3    H2 8646   5.074   2.773   2.622
 2904TIP3   OH2 8647   6.948   3.141   2.626
 2904TIP3    H1 8648   6.947   3.044   2.641
 2904TIP3    H2 8649   6.864   3.166   2.671
 2905TIP3   OH2 8650   6.055   2.922   2.760
 2905TIP3    H1 8651   6.051   3.015   2.791
 2905TIP3    H2 8652   5.982   2.883   2.813
 2906TIP3   OH2 8653   5.821   3.056   1.709
 2906TIP3    H1 8654   5.768   3.036   1.629
 2906TIP3    H2 8655   5.784   3.141   1.738
 2907TIP3   OH2 8656   5.256   2.901   2.093
 2907TIP3    H1 8657   5.296   2.891   2.182
 2907TIP3    H2 8658   5.205   2.817   2.087
 2908TIP3   OH2 8659   6.017   2.958   1.348
 2908TIP3    H1 8660   6.074   2.886   1.313
 2908TIP3    H2 8661   6.050   2.967   1.440
 2909TIP3   OH2 8662   6.070   3.003   1.617
 2909TIP3    H1 8663   5.980   3.015   1.656
 2909TIP3    H2 8664   6.117   2.963   1.693
 2910TIP3   OH2 8665   6.838   2.270   2.898
 2910TIP3    H1 8666   6.754   2.279   2.849
 2910TIP3    H2 8667   6.854   2.173   2.891
 2911TIP3   OH2 8668   5.436   2.676   2.919
 2911TIP3    H1 8669   5.482   2.661   3.003
 2911TIP3    H2 8670   5.360   2.615   2.926
 2912TIP3   OH2 8671   5.834   1.501   2.710
 2912TIP3    H1 8672   5.746   1.469   2.680
 2912TIP3    H2 8673   5.806   1.581   2.757
 2913TIP3   OH2 8674   6.368   1.615   2.903
 2913TIP3    H1 8675   6.436   1.589   2.968
 2913TIP3    H2 8676   6.284   1.596   2.950
 2914TIP3   OH2 8677   6.605   2.045   2.821
 2914TIP3    H1 8678   6.554   2.043   2.906
 2914TIP3    H2 8679   6.580   2.132   2.784
 2915TIP3   OH2 8680   6.271   2.168   1.376
 2915TIP3    H1 8681   6.233   2.147   1.289
 2915TIP3    H2 8682   6.336   2.236   1.354
 2916TIP3   OH2 8683   5.981   1.548   1.679
 2916TIP3    H1 8684   5.946   1.546   1.770
 2916TIP3    H2 8685   5.939   1.466   1.644
 2917TIP3   OH2 8686   5.769   2.013   2.729
 2917TIP3    H1 8687   5.715   2.033   2.808
 2917TIP3    H2 8688   5.755   2.095   2.676
 2918TIP3   OH2 8689   5.649   1.903   2.240
 2918TIP3    H1 8690   5.557   1.876   2.259
 2918TIP3    H2 8691   5.660   1.862   2.151
 2919TIP3   OH2 8692   6.141   1.990   1.972
 2919TIP3    H1 8693   6.089   2.060   1.927
 2919TIP3    H2 8694   6.194   1.955   1.898
 2920TIP3   OH2 8695   6.315   2.264   3.053
 2920TIP3    H1 8696   6.291   2.192   3.115
 2920TIP3    H2 8697   6.409   2.276   3.076
 2921TIP3   OH2 8698   6.297   2.015   2.206
 2921TIP3    H1 8699   6.233   2.042   2.136
 2921TIP3    H2 8700   6.332   1.934   2.162
 2922TIP3   OH2 8701   5.588   2.045   2.934
 2922TIP3    H1 8702   5.601   2.112   3.003
 2922TIP3    H2 8703   5.572   1.964   2.986
 2923TIP3   OH2 8704   5.637   1.526   1.646
 2923TIP3    H1 8705   5.625   1.520   1.742
 2923TIP3    H2 8706   5.557   1.576   1.621
 2924TIP3   OH2 8707   5.172   1.568   2.526
 2924TIP3    H1 8708   5.254   1.597   2.569
 2924TIP3    H2 8709   5.201   1.537   2.438
 2925TIP3   OH2 8710   5.147   1.543   2.030
 2925TIP3    H1 8711   5.192   1.582   1.953
 2925TIP3    H2 8712   5.085   1.615   2.053
 2926TIP3   OH2 8713   6.311   2.261   2.627
 2926TIP3    H1 8714   6.343   2.189   2.568
 2926TIP3    H2 8715   6.278   2.208   2.703
 2927TIP3   OH2 8716   5.982   1.721   2.300
 2927TIP3    H1 8717   5.898   1.722   2.350
 2927TIP3    H2 8718   6.048   1.721   2.372
 2928TIP3   OH2 8719   5.412   1.782   2.308
 2928TIP3    H1 8720   5.318   1.792   2.281
 2928TIP3    H2 8721   5.429   1.688   2.287
 2929TIP3   OH2 8722   5.678   1.776   2.000
 2929TIP3    H1 8723   5.770   1.793   1.973
 2929TIP3    H2 8724   5.627   1.798   1.918
 2930TIP3   OH2 8725   6.468   1.799   2.502
 2930TIP3    H1 8726   6.437   1.813   2.595
 2930TIP3    H2 8727   6.398   1.740   2.469
 2931TIP3   OH2 8728   5.527   1.810   1.777
 2931TIP3    H1 8729   5.452   1.766   1.734
 2931TIP3    H2 8730   5.576   1.845   1.700
 2932TIP3   OH2 8731   6.643   3.488   2.724
 2932TIP3    H1 8732   6.637   3.516   2.631
 2932TIP3    H2 8733   6.721   3.539   2.755
 2933TIP3   OH2 8734   5.597   2.597   3.143
 2933TIP3    H1 8735   5.675   2.630   3.192
 2933TIP3    H2 8736   5.530   2.598   3.214
 2934TIP3   OH2 8737   6.059   2.056   2.401
 2934TIP3    H1 8738   6.132   2.012   2.353
 2934TIP3    H2 8739   6.062   2.012   2.488
 2935TIP3   OH2 8740   5.584   1.535   2.284
 2935TIP3    H1 8741   5.542   1.461   2.333
 2935TIP3    H2 8742   5.616   1.490   2.204
 2936TIP3   OH2 8743   6.036   1.954   2.685
 2936TIP3    H1 8744   5.945   1.986   2.701
 2936TIP3    H2 8745   6.091   2.016   2.737
 2937TIP3   OH2 8746   5.775   2.338   1.785
 2937TIP3    H1 8747   5.702   2.274   1.772
 2937TIP3    H2 8748   5.754   2.373   1.875
 2938TIP3   OH2 8749   6.670   2.576   2.411
 2938TIP3    H1 8750   6.693   2.626   2.330
 2938TIP3    H2 8751   6.585   2.533   2.385
 2939TIP3   OH2 8752   6.230   1.651   1.648
 2939TIP3    H1 8753   6.134   1.630   1.658
 2939TIP3    H2 8754   6.236   1.745   1.675
 2940TIP3   OH2 8755   6.176   2.663   2.780
 2940TIP3    H1 8756   6.193   2.640   2.872
 2940TIP3    H2 8757   6.132   2.749   2.786
 2941TIP3   OH2 8758   6.297   1.900   1.753
 2941TIP3    H1 8759   6.394   1.906   1.767
 2941TIP3    H2 8760   6.277   1.980   1.701
 2942TIP3   OH2 8761   5.478   2.374   2.460
 2942TIP3    H1 8762   5.508   2.337   2.374
 2942TIP3    H2 8763   5.494   2.301   2.521
 2943TIP3   OH2 8764   5.917   2.490   1.608
 2943TIP3    H1 8765   5.869   2.576   1.611
 2943TIP3    H2 8766   5.862   2.435   1.667
 2944TIP3   OH2 8767   5.350   2.276   3.069
 2944TIP3    H1 8768   5.358   2.261   3.166
 2944TIP3    H2 8769   5.274   2.218   3.047
 2945TIP3   OH2 8770   6.072   2.400   3.093
 2945TIP3    H1 8771   6.008   2.340   3.049
 2945TIP3    H2 8772   6.157   2.362   3.061
 2946TIP3   OH2 8773   6.332   2.921   2.677
 2946TIP3    H1 8774   6.236   2.916   2.690
 2946TIP3    H2 8775   6.358   2.973   2.756
 2947TIP3   OH2 8776   6.738   1.990   1.586
 2947TIP3    H1 8777   6.678   1.947   1.521
 2947TIP3    H2 8778   6.736   2.080   1.547
 2948TIP3   OH2 8779   6.961   2.853   2.664
 2948TIP3    H1 8780   6.863   2.844   2.656
 2948TIP3    H2 8781   6.988   2.822   2.575
 2949TIP3   OH2 8782   6.459   2.809   1.501
 2949TIP3    H1 8783   6.414   2.748   1.562
 2949TIP3    H2 8784   6.455   2.762   1.416
 2950TIP3   OH2 8785   6.438   2.440   2.325
 2950TIP3    H1 8786   6.345   2.414   2.341
 2950TIP3    H2 8787   6.471   2.359   2.282
 2951TIP3   OH2 8788   5.565   2.667   2.082
 2951TIP3    H1 8789   5.558   2.749   2.029
 2951TIP3    H2 8790   5.472   2.648   2.100
 2952TIP3   OH2 8791   5.132   1.972   1.788
 2952TIP3    H1 8792   5.175   2.057   1.812
 2952TIP3    H2 8793   5.054   1.974   1.848
 2953TIP3   OH2 8794   5.703   2.433   2.027
 2953TIP3    H1 8795   5.665   2.522   2.045
 2953TIP3    H2 8796   5.664   2.382   2.101
 2954TIP3   OH2 8797   5.837   3.011   2.552
 2954TIP3    H1 8798   5.878   3.084   2.502
 2954TIP3    H2 8799   5.915   2.975   2.599
 2955TIP3   OH2 8800   5.485   2.905   1.936
 2955TIP3    H1 8801   5.399   2.912   1.983
 2955TIP3    H2 8802   5.516   2.998   1.940
 2956TIP3   OH2 8803   6.222   2.645   2.512
 2956TIP3    H1 8804   6.211   2.646   2.610
 2956TIP3    H2 8805   6.300   2.589   2.502
 2957TIP3   OH2 8806   6.201   2.536   1.390
 2957TIP3    H1 8807   6.252   2.511   1.471
 2957TIP3    H2 8808   6.111   2.512   1.418
 2958TIP3   OH2 8809   6.473   3.175   2.561
 2958TIP3    H1 8810   6.393   3.119   2.557
 2958TIP3    H2 8811   6.455   3.239   2.489
 2959TIP3   OH2 8812   6.539   3.012   1.216
 2959TIP3    H1 8813   6.565   3.079   1.150
 2959TIP3    H2 8814   6.461   3.058   1.254
 2960TIP3   OH2 8815   5.553   1.788   3.078
 2960TIP3    H1 8816   5.456   1.793   3.087
 2960TIP3    H2 8817   5.577   1.730   3.151
 2961TIP3   OH2 8818   6.361   2.462   1.600
 2961TIP3    H1 8819   6.349   2.404   1.678
 2961TIP3    H2 8820   6.459   2.466   1.597
 2962TIP3   OH2 8821   5.277   2.874   2.710
 2962TIP3    H1 8822   5.327   2.800   2.747
 2962TIP3    H2 8823   5.300   2.945   2.771
 2963TIP3   OH2 8824   5.567   2.516   1.393
 2963TIP3    H1 8825   5.576   2.422   1.369
 2963TIP3    H2 8826   5.546   2.509   1.489
 2964TIP3   OH2 8827   5.511   2.524   1.662
 2964TIP3    H1 8828   5.574   2.496   1.730
 2964TIP3    H2 8829   5.511   2.622   1.674
 2965TIP3   OH2 8830   5.248   2.213   1.866
 2965TIP3    H1 8831   5.183   2.259   1.925
 2965TIP3    H2 8832   5.256   2.283   1.799
 2966TIP3   OH2 8833   6.398   1.851   2.762
 2966TIP3    H1 8834   6.477   1.891   2.802
 2966TIP3    H2 8835   6.384   1.771   2.816
 2967TIP3   OH2 8836   6.280   1.599   1.931
 2967TIP3    H1 8837   6.263   1.622   1.838
 2967TIP3    H2 8838   6.318   1.682   1.966
 2968TIP3   OH2 8839   5.778   2.723   1.615
 2968TIP3    H1 8840   5.690   2.743   1.652
 2968TIP3    H2 8841   5.789   2.799   1.557
 2969TIP3   OH2 8842   5.965   1.784   2.031
 2969TIP3    H1 8843   6.027   1.858   2.015
 2969TIP3    H2 8844   5.967   1.776   2.128
 2970TIP3   OH2 8845   6.234   2.101   2.835
 2970TIP3    H1 8846   6.256   2.154   2.914
 2970TIP3    H2 8847   6.286   2.020   2.848
 2971TIP3   OH2 8848   6.106   1.507   2.133
 2971TIP3    H1 8849   6.091   1.587   2.187
 2971TIP3    H2 8850   6.169   1.541   2.065
 2972TIP3   OH2 8851   5.523   2.795   1.686
 2972TIP3    H1 8852   5.491   2.865   1.624
 2972TIP3    H2 8853   5.504   2.837   1.773
 2973TIP3   OH2 8854   5.622   1.510   1.922
 2973TIP3    H1 8855   5.618   1.600   1.960
 2973TIP3    H2 8856   5.718   1.494   1.930
 2974TIP3   OH2 8857   6.871   2.002   2.821
 2974TIP3    H1 8858   6.773   2.001   2.826
 2974TIP3    H2 8859   6.884   1.961   2.735
 2975TIP3   OH2 8860   6.523   2.196   2.205
 2975TIP3    H1 8861   6.446   2.138   2.217
 2975TIP3    H2 8862   6.593   2.148   2.255
 2976TIP3   OH2 8863   5.237   2.420   1.674
 2976TIP3    H1 8864   5.302   2.492   1.685
 2976TIP3    H2 8865   5.283   2.366   1.607
 2977TIP3   OH2 8866   5.182   1.702   1.805
 2977TIP3    H1 8867   5.180   1.800   1.806
 2977TIP3    H2 8868   5.092   1.682   1.776
 2978TIP3   OH2 8869   6.495   3.155   2.153
 2978TIP3    H1 8870   6.450   3.200   2.078
 2978TIP3    H2 8871   6.589   3.172   2.131
 2979TIP3   OH2 8872   5.572   1.419   2.678
 2979TIP3    H1 8873   5.538   1.387   2.592
 2979TIP3    H2 8874   5.558   1.341   2.735
 2980TIP3   OH2 8875   5.113   2.657   2.068
 2980TIP3    H1 8876   5.042   2.660   2.134
 2980TIP3    H2 8877   5.066   2.690   1.987
 2981TIP3   OH2 8878   5.268   3.185   3.131
 2981TIP3    H1 8879   5.353   3.186   3.180
 2981TIP3    H2 8880   5.246   3.090   3.133
 2982TIP3   OH2 8881   5.745   3.139   3.183
 2982TIP3    H1 8882   5.841   3.123   3.181
 2982TIP3    H2 8883   5.715   3.081   3.110
 2983TIP3   OH2 8884   5.726   2.720   1.303
 2983TIP3    H1 8885   5.669   2.650   1.344
 2983TIP3    H2 8886   5.801   2.666   1.273
 2984TIP3   OH2 8887   6.384   3.054   2.913
 2984TIP3    H1 8888   6.379   2.983   2.981
 2984TIP3    H2 8889   6.461   3.106   2.943
 2985TIP3   OH2 8890   6.161   2.760   1.223
 2985TIP3    H1 8891   6.202   2.691   1.278
 2985TIP3    H2 8892   6.214   2.757   1.140
 2986TIP3   OH2 8893   5.395   2.589   3.334
 2986TIP3    H1 8894   5.410   2.493   3.338
 2986TIP3    H2 8895   5.307   2.593   3.289
 2987TIP3   OH2 8896   5.375   2.236   1.527
 2987TIP3    H1 8897   5.427   2.205   1.603
 2987TIP3    H2 8898   5.445   2.241   1.458
 2988TIP3   OH2 8899   6.004   2.676   3.107
 2988TIP3    H1 8900   5.958   2.695   3.023
 2988TIP3    H2 8901   6.031   2.583   3.096
 2989TIP3   OH2 8902   5.895   2.439   1.337
 2989TIP3    H1 8903   5.889   2.451   1.434
 2989TIP3    H2 8904   5.890   2.340   1.332
 2990TIP3   OH2 8905   6.496   2.685   2.717
 2990TIP3    H1 8906   6.569   2.731   2.672
 2990TIP3    H2 8907   6.423   2.748   2.703
 2991TIP3   OH2 8908   5.514   2.328   3.321
 2991TIP3    H1 8909   5.589   2.274   3.293
 2991TIP3    H2 8910   5.544   2.359   3.409
 2992TIP3   OH2 8911   5.582   2.145   1.751
 2992TIP3    H1 8912   5.548   2.108   1.834
 2992TIP3    H2 8913   5.614   2.065   1.704
 2993TIP3   OH2 8914   5.855   2.212   2.984
 2993TIP3    H1 8915   5.772   2.265   2.983
 2993TIP3    H2 8916   5.901   2.245   2.903
 2994TIP3   OH2 8917   5.682   1.937   1.589
 2994TIP3    H1 8918   5.655   1.945   1.495
 2994TIP3    H2 8919   5.780   1.943   1.581
 2995TIP3   OH2 8920   6.369   2.610   3.113
 2995TIP3    H1 8921   6.443   2.575   3.061
 2995TIP3    H2 8922   6.361   2.543   3.183
 2996TIP3   OH2 8923   6.530   2.277   1.237
 2996TIP3    H1 8924   6.486   2.225   1.167
 2996TIP3    H2 8925   6.484   2.364   1.224
 2997TIP3   OH2 8926   5.976   1.997   3.101
 2997TIP3    H1 8927   5.973   1.919   3.042
 2997TIP3    H2 8928   5.931   2.065   3.046
 2998TIP3   OH2 8929   5.977   1.782   2.910
 2998TIP3    H1 8930   6.003   1.824   2.826
 2998TIP3    H2 8931   5.883   1.760   2.893
 2999TIP3   OH2 8932   6.001   2.320   2.786
 2999TIP3    H1 8933   6.084   2.331   2.738
 2999TIP3    H2 8934   5.941   2.383   2.740
 3000TIP3   OH2 8935   6.583   2.283   3.164
 3000TIP3    H1 8936   6.631   2.199   3.175
 3000TIP3    H2 8937   6.652   2.339   3.126
 3001TIP3   OH2 8938   6.624   2.538   2.904
 3001TIP3    H1 8939   6.567   2.593   2.844
 3001TIP3    H2 8940   6.712   2.558   2.864
 3002TIP3   OH2 8941   5.857   2.101   3.339
 3002TIP3    H1 8942   5.786   2.034   3.353
 3002TIP3    H2 8943   5.886   2.079   3.248
 3003TIP3   OH2 8944   6.107   1.546   2.984
 3003TIP3    H1 8945   6.059   1.627   2.958
 3003TIP3    H2 8946   6.038   1.478   2.970
 3004TIP3   OH2 8947   6.233   2.046   3.195
 3004TIP3    H1 8948   6.215   2.033   3.290
 3004TIP3    H2 8949   6.145   2.024   3.159
 3005TIP3   OH2 8950   6.471   1.998   3.050
 3005TIP3    H1 8951   6.396   2.000   3.113
 3005TIP3    H2 8952   6.545   1.969   3.108
 3006TIP3   OH2 8953   6.700   1.941   3.201
 3006TIP3    H1 8954   6.714   1.845   3.218
 3006TIP3    H2 8955   6.697   1.978   3.292
 3007TIP3   OH2 8956   5.690   1.884   3.391
 3007TIP3    H1 8957   5.693   1.792   3.357
 3007TIP3    H2 8958   5.726   1.871   3.481
 3008TIP3   OH2 8959   6.199   1.550   3.243
 3008TIP3    H1 8960   6.266   1.481   3.231
 3008TIP3    H2 8961   6.158   1.550   3.154
 3009TIP3   OH2 8962   6.267   1.768   3.398
 3009TIP3    H1 8963   6.244   1.698   3.333
 3009TIP3    H2 8964   6.190   1.828   3.392
 3010TIP3   OH2 8965   5.491   2.998   1.498
 3010TIP3    H1 8966   5.586   2.991   1.476
 3010TIP3    H2 8967   5.460   3.049   1.421
 3011TIP3   OH2 8968   4.965   2.388   1.690
 3011TIP3    H1 8969   5.061   2.404   1.697
 3011TIP3    H2 8970   4.963   2.294   1.662
 3012TIP3   OH2 8971   4.884   2.991   2.126
 3012TIP3    H1 8972   4.817   2.929   2.091
 3012TIP3    H2 8973   4.930   2.933   2.191
 3013TIP3   OH2 8974   5.015   2.841   2.313
 3013TIP3    H1 8975   4.993   2.765   2.369
 3013TIP3    H2 8976   5.067   2.895   2.375
 3014TIP3   OH2 8977   6.758   3.233   2.114
 3014TIP3    H1 8978   6.770   3.262   2.207
 3014TIP3    H2 8979   6.793   3.309   2.065
 3015TIP3   OH2 8980   6.775   3.260   2.393
 3015TIP3    H1 8981   6.730   3.173   2.394
 3015TIP3    H2 8982   6.847   3.241   2.455
 3016TIP3   OH2 8983   6.824   2.942   2.969
 3016TIP3    H1 8984   6.751   2.950   3.034
 3016TIP3    H2 8985   6.865   3.030   2.975
 3017TIP3   OH2 8986   6.641   2.451   1.589
 3017TIP3    H1 8987   6.708   2.517   1.563
 3017TIP3    H2 8988   6.682   2.412   1.670
 3018TIP3   OH2 8989   6.767   2.322   1.795
 3018TIP3    H1 8990   6.699   2.277   1.852
 3018TIP3    H2 8991   6.830   2.356   1.862
 3019TIP3   OH2 8992   6.824   2.715   2.226
 3019TIP3    H1 8993   6.878   2.647   2.180
 3019TIP3    H2 8994   6.809   2.781   2.155
 3020TIP3   OH2 8995   6.649   3.013   2.417
 3020TIP3    H1 8996   6.579   3.055   2.469
 3020TIP3    H2 8997   6.598   2.966   2.347
 3021TIP3   OH2 8998   6.705   2.228   1.442
 3021TIP3    H1 8999   6.637   2.231   1.371
 3021TIP3    H2 9000   6.674   2.302   1.498
 3022TIP3   OH2 9001   6.577   1.904   1.383
 3022TIP3    H1 9002   6.518   1.928   1.310
 3022TIP3    H2 9003   6.556   1.808   1.389
 3023TIP3   OH2 9004   6.580   2.178   1.935
 3023TIP3    H1 9005   6.585   2.081   1.929
 3023TIP3    H2 9006   6.564   2.191   2.032
 3024TIP3   OH2 9007   5.206   2.239   2.693
 3024TIP3    H1 9008   5.201   2.212   2.598
 3024TIP3    H2 9009   5.303   2.245   2.704
 3025TIP3   OH2 9010   6.870   2.603   2.796
 3025TIP3    H1 9011   6.940   2.535   2.785
 3025TIP3    H2 9012   6.895   2.670   2.731
 3026TIP3   OH2 9013   7.053   2.405   2.804
 3026TIP3    H1 9014   6.979   2.354   2.844
 3026TIP3    H2 9015   7.127   2.342   2.820
 3027TIP3   OH2 9016   6.512   1.643   1.390
 3027TIP3    H1 9017   6.588   1.601   1.433
 3027TIP3    H2 9018   6.442   1.576   1.396
 3028TIP3   OH2 9019   6.577   1.895   1.829
 3028TIP3    H1 9020   6.617   1.806   1.845
 3028TIP3    H2 9021   6.634   1.926   1.757
 3029TIP3   OH2 9022   6.735   2.064   2.327
 3029TIP3    H1 9023   6.821   2.090   2.286
 3029TIP3    H2 9024   6.749   2.102   2.416
 3030TIP3   OH2 9025   6.808   2.212   2.558
 3030TIP3    H1 9026   6.730   2.245   2.607
 3030TIP3    H2 9027   6.840   2.293   2.513
 3031TIP3   OH2 9028   5.423   1.935   3.361
 3031TIP3    H1 9029   5.521   1.930   3.364
 3031TIP3    H2 9030   5.399   1.849   3.400
 3032TIP3   OH2 9031   7.253   1.801   3.112
 3032TIP3    H1 9032   7.316   1.739   3.070
 3032TIP3    H2 9033   7.226   1.858   3.037
 3033TIP3   OH2 9034   6.686   1.645   1.869
 3033TIP3    H1 9035   6.733   1.628   1.953
 3033TIP3    H2 9036   6.624   1.569   1.867
 3034TIP3   OH2 9037   5.388   1.628   2.691
 3034TIP3    H1 9038   5.451   1.553   2.697
 3034TIP3    H2 9039   5.449   1.703   2.682
 3035TIP3   OH2 9040   5.187   1.903   2.765
 3035TIP3    H1 9041   5.235   1.896   2.679
 3035TIP3    H2 9042   5.206   1.994   2.789
 3036TIP3   OH2 9043   7.126   1.941   2.917
 3036TIP3    H1 9044   7.040   1.983   2.935
 3036TIP3    H2 9045   7.096   1.867   2.861
 3037TIP3   OH2 9046   6.763   1.572   1.503
 3037TIP3    H1 9047   6.804   1.503   1.448
 3037TIP3    H2 9048   6.829   1.644   1.500
 3038TIP3   OH2 9049   5.172   1.433   2.279
 3038TIP3    H1 9050   5.079   1.406   2.293
 3038TIP3    H2 9051   5.168   1.471   2.189
 3039TIP3   OH2 9052   6.335   3.106   1.771
 3039TIP3    H1 9053   6.386   3.102   1.688
 3039TIP3    H2 9054   6.377   3.181   1.817
 3040TIP3   OH2 9055   5.392   1.483   3.077
 3040TIP3    H1 9056   5.340   1.481   3.159
 3040TIP3    H2 9057   5.328   1.524   3.016
 3041TIP3   OH2 9058   5.433   2.910   3.154
 3041TIP3    H1 9059   5.339   2.891   3.136
 3041TIP3    H2 9060   5.437   2.899   3.249
 3042TIP3   OH2 9061   5.613   2.950   2.704
 3042TIP3    H1 9062   5.561   3.023   2.666
 3042TIP3    H2 9063   5.697   2.966   2.656
 3043TIP3   OH2 9064   6.053   3.188   2.840
 3043TIP3    H1 9065   6.093   3.191   2.929
 3043TIP3    H2 9066   6.116   3.241   2.788
 3044TIP3   OH2 9067   6.230   3.344   2.702
 3044TIP3    H1 9068   6.301   3.294   2.659
 3044TIP3    H2 9069   6.282   3.402   2.761
 3045TIP3   OH2 9070   7.026   1.704   2.800
 3045TIP3    H1 9071   6.936   1.696   2.763
 3045TIP3    H2 9072   7.060   1.613   2.789
 3046TIP3   OH2 9073   5.288   3.207   2.728
 3046TIP3    H1 9074   5.196   3.234   2.704
 3046TIP3    H2 9075   5.298   3.255   2.811
 3047TIP3   OH2 9076   5.522   3.183   2.585
 3047TIP3    H1 9077   5.435   3.195   2.631
 3047TIP3    H2 9078   5.501   3.215   2.495
 3048TIP3   OH2 9079   5.948   3.209   2.381
 3048TIP3    H1 9080   5.875   3.226   2.319
 3048TIP3    H2 9081   5.958   3.297   2.424
 3049TIP3   OH2 9082   6.216   3.149   2.434
 3049TIP3    H1 9083   6.121   3.165   2.416
 3049TIP3    H2 9084   6.257   3.226   2.391
 3050TIP3   OH2 9085   6.425   3.340   2.348
 3050TIP3    H1 9086   6.408   3.425   2.301
 3050TIP3    H2 9087   6.447   3.281   2.273
 3051TIP3   OH2 9088   5.198   2.999   2.471
 3051TIP3    H1 9089   5.225   2.969   2.561
 3051TIP3    H2 9090   5.268   2.955   2.418
 3052TIP3   OH2 9091   5.392   2.871   2.330
 3052TIP3    H1 9092   5.405   2.787   2.380
 3052TIP3    H2 9093   5.484   2.905   2.326
 3053TIP3   OH2 9094   5.661   2.962   2.333
 3053TIP3    H1 9095   5.688   2.868   2.324
 3053TIP3    H2 9096   5.706   2.984   2.416
 3054TIP3   OH2 9097   6.237   1.621   2.426
 3054TIP3    H1 9098   6.191   1.549   2.474
 3054TIP3    H2 9099   6.306   1.572   2.377
 3055TIP3   OH2 9100   6.753   1.499   2.321
 3055TIP3    H1 9101   6.790   1.552   2.247
 3055TIP3    H2 9102   6.658   1.520   2.315
 3056TIP3   OH2 9103   6.850   1.601   2.087
 3056TIP3    H1 9104   6.925   1.549   2.049
 3056TIP3    H2 9105   6.883   1.692   2.071
 3057TIP3   OH2 9106   5.479   1.328   2.434
 3057TIP3    H1 9107   5.386   1.296   2.433
 3057TIP3    H2 9108   5.526   1.242   2.426
 3058TIP3   OH2 9109   5.278   1.213   2.050
 3058TIP3    H1 9110   5.298   1.295   2.001
 3058TIP3    H2 9111   5.256   1.244   2.139
 3059TIP3   OH2 9112   5.932   1.354   2.312
 3059TIP3    H1 9113   5.988   1.408   2.253
 3059TIP3    H2 9114   5.940   1.401   2.396
 3060TIP3   OH2 9115   6.470   1.508   2.297
 3060TIP3    H1 9116   6.467   1.469   2.209
 3060TIP3    H2 9117   6.459   1.429   2.354
 3061TIP3   OH2 9118   6.503   1.433   1.862
 3061TIP3    H1 9119   6.417   1.477   1.879
 3061TIP3    H2 9120   6.487   1.347   1.907
 3062TIP3   OH2 9121   4.985   2.769   1.855
 3062TIP3    H1 9122   4.899   2.736   1.823
 3062TIP3    H2 9123   4.974   2.864   1.838
 3063TIP3   OH2 9124   5.388   1.378   1.831
 3063TIP3    H1 9125   5.428   1.297   1.794
 3063TIP3    H2 9126   5.465   1.420   1.875
 3064TIP3   OH2 9127   5.899   1.534   1.942
 3064TIP3    H1 9128   5.955   1.486   2.005
 3064TIP3    H2 9129   5.919   1.627   1.969
 3065TIP3   OH2 9130   5.758   2.953   1.444
 3065TIP3    H1 9131   5.844   2.978   1.405
 3065TIP3    H2 9132   5.735   2.878   1.383
 3066TIP3   OH2 9133   6.483   3.079   1.538
 3066TIP3    H1 9134   6.475   2.981   1.526
 3066TIP3    H2 9135   6.432   3.110   1.460
 3067TIP3   OH2 9136   5.686   1.609   3.326
 3067TIP3    H1 9137   5.651   1.538   3.383
 3067TIP3    H2 9138   5.780   1.610   3.354
 3068TIP3   OH2 9139   5.937   1.608   3.443
 3068TIP3    H1 9140   6.021   1.584   3.402
 3068TIP3    H2 9141   5.923   1.537   3.509
 3069TIP3   OH2 9142   5.060   2.794   1.499
 3069TIP3    H1 9143   5.057   2.810   1.594
 3069TIP3    H2 9144   5.147   2.750   1.487
 3070TIP3   OH2 9145   6.765   1.670   3.231
 3070TIP3    H1 9146   6.785   1.640   3.322
 3070TIP3    H2 9147   6.854   1.666   3.189
 3071TIP3   OH2 9148   6.700   3.219   2.724
 3071TIP3    H1 9149   6.621   3.189   2.674
 3071TIP3    H2 9150   6.681   3.315   2.729
 3072TIP3   OH2 9151   7.265   2.485   2.236
 3072TIP3    H1 9152   7.285   2.413   2.299
 3072TIP3    H2 9153   7.338   2.545   2.255
 3073TIP3   OH2 9154   7.238   2.889   1.957
 3073TIP3    H1 9155   7.230   2.791   1.958
 3073TIP3    H2 9156   7.318   2.901   2.010
 3074TIP3   OH2 9157   6.944   2.104   1.740
 3074TIP3    H1 9158   6.891   2.183   1.759
 3074TIP3    H2 9159   6.876   2.045   1.704
 3075TIP3   OH2 9160   7.007   2.387   1.922
 3075TIP3    H1 9161   7.052   2.308   1.961
 3075TIP3    H2 9162   7.060   2.402   1.843
 3076TIP3   OH2 9163   7.867   3.299   1.547
 3076TIP3    H1 9164   7.964   3.287   1.553
 3076TIP3    H2 9165   7.848   3.333   1.635
 3077TIP3   OH2 9166   7.769   2.823   1.921
 3077TIP3    H1 9167   7.794   2.776   1.840
 3077TIP3    H2 9168   7.852   2.872   1.943
 3078TIP3   OH2 9169   7.490   1.983   1.929
 3078TIP3    H1 9170   7.507   2.047   1.858
 3078TIP3    H2 9171   7.457   1.906   1.877
 3079TIP3   OH2 9172   7.152   2.181   2.023
 3079TIP3    H1 9173   7.232   2.159   2.075
 3079TIP3    H2 9174   7.168   2.125   1.944
 3080TIP3   OH2 9175   7.576   2.384   1.813
 3080TIP3    H1 9176   7.668   2.350   1.827
 3080TIP3    H2 9177   7.532   2.300   1.784
 3081TIP3   OH2 9178   7.519   1.971   2.361
 3081TIP3    H1 9179   7.460   2.002   2.290
 3081TIP3    H2 9180   7.462   1.989   2.439
 3082TIP3   OH2 9181   7.624   2.737   2.151
 3082TIP3    H1 9182   7.558   2.799   2.189
 3082TIP3    H2 9183   7.670   2.795   2.086
 3083TIP3   OH2 9184   7.377   2.081   2.149
 3083TIP3    H1 9185   7.443   2.152   2.168
 3083TIP3    H2 9186   7.422   2.039   2.071
 3084TIP3   OH2 9187   7.444   2.932   2.231
 3084TIP3    H1 9188   7.424   3.026   2.209
 3084TIP3    H2 9189   7.369   2.914   2.292
 3085TIP3   OH2 9190   6.841   2.623   1.484
 3085TIP3    H1 9191   6.797   2.647   1.399
 3085TIP3    H2 9192   6.869   2.711   1.516
 3086TIP3   OH2 9193   7.377   2.534   1.702
 3086TIP3    H1 9194   7.332   2.473   1.639
 3086TIP3    H2 9195   7.449   2.477   1.736
 3087TIP3   OH2 9196   7.525   2.940   1.833
 3087TIP3    H1 9197   7.490   2.851   1.821
 3087TIP3    H2 9198   7.611   2.921   1.875
 3088TIP3   OH2 9199   7.514   2.498   2.059
 3088TIP3    H1 9200   7.545   2.471   1.971
 3088TIP3    H2 9201   7.560   2.583   2.076
 3089TIP3   OH2 9202   7.649   3.047   2.393
 3089TIP3    H1 9203   7.591   3.112   2.437
 3089TIP3    H2 9204   7.583   2.995   2.343
 3090TIP3   OH2 9205   7.401   2.622   2.480
 3090TIP3    H1 9206   7.406   2.705   2.532
 3090TIP3    H2 9207   7.312   2.591   2.504
 3091TIP3   OH2 9208   7.758   3.098   1.392
 3091TIP3    H1 9209   7.782   3.171   1.453
 3091TIP3    H2 9210   7.678   3.133   1.351
 3092TIP3   OH2 9211   7.446   3.216   2.475
 3092TIP3    H1 9212   7.408   3.221   2.386
 3092TIP3    H2 9213   7.366   3.197   2.530
 3093TIP3   OH2 9214   7.243   2.372   1.519
 3093TIP3    H1 9215   7.173   2.406   1.459
 3093TIP3    H2 9216   7.213   2.281   1.535
 3094TIP3   OH2 9217   7.028   2.753   2.420
 3094TIP3    H1 9218   6.957   2.730   2.356
 3094TIP3    H2 9219   7.063   2.665   2.447
 3095TIP3   OH2 9220   6.880   2.954   2.043
 3095TIP3    H1 9221   6.974   2.953   2.069
 3095TIP3    H2 9222   6.846   3.026   2.098
 3096TIP3   OH2 9223   7.834   3.168   2.230
 3096TIP3    H1 9224   7.843   3.259   2.266
 3096TIP3    H2 9225   7.768   3.131   2.293
 3097TIP3   OH2 9226   7.625   3.311   1.191
 3097TIP3    H1 9227   7.576   3.297   1.107
 3097TIP3    H2 9228   7.590   3.399   1.219
 3098TIP3   OH2 9229   7.047   3.145   1.574
 3098TIP3    H1 9230   7.103   3.201   1.630
 3098TIP3    H2 9231   6.956   3.181   1.594
 3099TIP3   OH2 9232   7.875   3.209   1.166
 3099TIP3    H1 9233   7.784   3.246   1.158
 3099TIP3    H2 9234   7.928   3.288   1.146
 3100TIP3   OH2 9235   7.233   2.934   2.402
 3100TIP3    H1 9236   7.280   2.922   2.487
 3100TIP3    H2 9237   7.159   2.870   2.412
 3101TIP3   OH2 9238   7.613   1.745   2.220
 3101TIP3    H1 9239   7.525   1.725   2.182
 3101TIP3    H2 9240   7.598   1.834   2.256
 3102TIP3   OH2 9241   7.554   2.280   2.215
 3102TIP3    H1 9242   7.504   2.298   2.297
 3102TIP3    H2 9243   7.533   2.361   2.162
 3103TIP3   OH2 9244   7.445   2.163   1.719
 3103TIP3    H1 9245   7.357   2.127   1.745
 3103TIP3    H2 9246   7.459   2.118   1.633
 3104TIP3   OH2 9247   7.368   2.300   2.425
 3104TIP3    H1 9248   7.428   2.348   2.484
 3104TIP3    H2 9249   7.357   2.216   2.474
 3105TIP3   OH2 9250   7.402   1.726   1.127
 3105TIP3    H1 9251   7.404   1.760   1.218
 3105TIP3    H2 9252   7.355   1.797   1.079
 3106TIP3   OH2 9253   6.975   1.824   1.998
 3106TIP3    H1 9254   7.048   1.856   2.056
 3106TIP3    H2 9255   7.022   1.784   1.923
 3107TIP3   OH2 9256   6.939   1.803   1.522
 3107TIP3    H1 9257   6.986   1.845   1.447
 3107TIP3    H2 9258   6.876   1.875   1.544
 3108TIP3   OH2 9259   7.208   2.042   1.790
 3108TIP3    H1 9260   7.113   2.045   1.765
 3108TIP3    H2 9261   7.232   1.948   1.776
 3109TIP3   OH2 9262   7.484   2.037   1.474
 3109TIP3    H1 9263   7.567   2.040   1.424
 3109TIP3    H2 9264   7.419   2.054   1.402
 3110TIP3   OH2 9265   7.323   2.069   1.261
 3110TIP3    H1 9266   7.248   2.029   1.212
 3110TIP3    H2 9267   7.377   2.103   1.186
 3111TIP3   OH2 9268   7.393   2.861   2.629
 3111TIP3    H1 9269   7.473   2.887   2.680
 3111TIP3    H2 9270   7.328   2.856   2.702
 3112TIP3   OH2 9271   7.368   1.797   1.763
 3112TIP3    H1 9272   7.331   1.726   1.821
 3112TIP3    H2 9273   7.420   1.743   1.702
 3113TIP3   OH2 9274   7.821   2.204   2.218
 3113TIP3    H1 9275   7.729   2.232   2.201
 3113TIP3    H2 9276   7.870   2.289   2.222
 3114TIP3   OH2 9277   7.533   2.632   1.254
 3114TIP3    H1 9278   7.489   2.545   1.246
 3114TIP3    H2 9279   7.542   2.641   1.351
 3115TIP3   OH2 9280   7.929   2.885   2.292
 3115TIP3    H1 9281   7.966   2.865   2.379
 3115TIP3    H2 9282   7.909   2.980   2.300
 3116TIP3   OH2 9283   7.266   2.622   1.947
 3116TIP3    H1 9284   7.302   2.582   1.866
 3116TIP3    H2 9285   7.296   2.560   2.016
 3117TIP3   OH2 9286   7.710   2.758   1.081
 3117TIP3    H1 9287   7.661   2.842   1.097
 3117TIP3    H2 9288   7.665   2.700   1.146
 3118TIP3   OH2 9289   7.144   2.543   2.560
 3118TIP3    H1 9290   7.169   2.525   2.653
 3118TIP3    H2 9291   7.078   2.473   2.545
 3119TIP3   OH2 9292   7.877   2.655   2.575
 3119TIP3    H1 9293   7.823   2.604   2.513
 3119TIP3    H2 9294   7.961   2.607   2.571
 3120TIP3   OH2 9295   6.917   2.235   1.270
 3120TIP3    H1 9296   6.969   2.313   1.300
 3120TIP3    H2 9297   6.846   2.233   1.338
 3121TIP3   OH2 9298   7.521   2.689   1.523
 3121TIP3    H1 9299   7.501   2.778   1.551
 3121TIP3    H2 9300   7.470   2.634   1.587
 3122TIP3   OH2 9301   7.632   3.261   2.037
 3122TIP3    H1 9302   7.668   3.340   1.992
 3122TIP3    H2 9303   7.709   3.234   2.090
 3123TIP3   OH2 9304   7.350   2.048   2.568
 3123TIP3    H1 9305   7.253   2.047   2.580
 3123TIP3    H2 9306   7.379   1.989   2.641
 3124TIP3   OH2 9307   7.078   3.122   2.197
 3124TIP3    H1 9308   7.127   3.060   2.253
 3124TIP3    H2 9309   7.087   3.204   2.247
 3125TIP3   OH2 9310   7.359   2.769   0.887
 3125TIP3    H1 9311   7.348   2.678   0.852
 3125TIP3    H2 9312   7.332   2.757   0.980
 3126TIP3   OH2 9313   7.307   2.780   1.159
 3126TIP3    H1 9314   7.389   2.741   1.196
 3126TIP3    H2 9315   7.320   2.876   1.174
 3127TIP3   OH2 9316   7.037   2.470   1.359
 3127TIP3    H1 9317   6.972   2.518   1.414
 3127TIP3    H2 9318   7.055   2.537   1.289
 3128TIP3   OH2 9319   7.581   2.995   1.118
 3128TIP3    H1 9320   7.489   3.015   1.146
 3128TIP3    H2 9321   7.588   3.056   1.043
 3129TIP3   OH2 9322   7.318   3.061   1.173
 3129TIP3    H1 9323   7.288   3.110   1.093
 3129TIP3    H2 9324   7.295   3.126   1.241
 3130TIP3   OH2 9325   7.417   1.773   1.406
 3130TIP3    H1 9326   7.410   1.857   1.455
 3130TIP3    H2 9327   7.507   1.782   1.369
 3131TIP3   OH2 9328   7.033   2.679   1.164
 3131TIP3    H1 9329   7.104   2.746   1.164
 3131TIP3    H2 9330   7.073   2.616   1.100
 3132TIP3   OH2 9331   6.978   1.968   1.308
 3132TIP3    H1 9332   6.966   2.064   1.292
 3132TIP3    H2 9333   6.908   1.929   1.254
 3133TIP3   OH2 9334   7.347   1.679   2.168
 3133TIP3    H1 9335   7.330   1.643   2.079
 3133TIP3    H2 9336   7.345   1.599   2.224
 3134TIP3   OH2 9337   6.911   2.893   1.564
 3134TIP3    H1 9338   6.830   2.907   1.617
 3134TIP3    H2 9339   6.880   2.935   1.478
 3135TIP3   OH2 9340   7.064   3.443   2.621
 3135TIP3    H1 9341   7.150   3.445   2.669
 3135TIP3    H2 9342   7.045   3.348   2.620
 3136TIP3   OH2 9343   7.537   3.400   2.666
 3136TIP3    H1 9344   7.632   3.383   2.677
 3136TIP3    H2 9345   7.516   3.338   2.593
 3137TIP3   OH2 9346   7.518   2.973   0.798
 3137TIP3    H1 9347   7.455   2.904   0.828
 3137TIP3    H2 9348   7.599   2.920   0.794
 3138TIP3   OH2 9349   7.192   2.846   2.821
 3138TIP3    H1 9350   7.207   2.751   2.833
 3138TIP3    H2 9351   7.105   2.847   2.776
 3139TIP3   OH2 9352   7.177   2.496   1.029
 3139TIP3    H1 9353   7.241   2.460   1.093
 3139TIP3    H2 9354   7.231   2.492   0.947
 3140TIP3   OH2 9355   7.815   2.934   2.591
 3140TIP3    H1 9356   7.761   2.948   2.511
 3140TIP3    H2 9357   7.833   2.837   2.588
 3141TIP3   OH2 9358   7.669   2.683   0.823
 3141TIP3    H1 9359   7.692   2.713   0.914
 3141TIP3    H2 9360   7.590   2.629   0.842
 3142TIP3   OH2 9361   7.325   2.575   2.798
 3142TIP3    H1 9362   7.405   2.522   2.779
 3142TIP3    H2 9363   7.346   2.608   2.888
 3143TIP3   OH2 9364   7.382   2.397   1.231
 3143TIP3    H1 9365   7.354   2.352   1.313
 3143TIP3    H2 9366   7.422   2.323   1.181
 3144TIP3   OH2 9367   7.606   2.440   2.480
 3144TIP3    H1 9368   7.542   2.515   2.487
 3144TIP3    H2 9369   7.668   2.478   2.413
 3145TIP3   OH2 9370   7.484   2.188   1.070
 3145TIP3    H1 9371   7.453   2.200   0.977
 3145TIP3    H2 9372   7.576   2.161   1.051
 3146TIP3   OH2 9373   7.771   2.257   2.602
 3146TIP3    H1 9374   7.775   2.171   2.555
 3146TIP3    H2 9375   7.710   2.308   2.545
 3147TIP3   OH2 9376   7.786   2.028   2.419
 3147TIP3    H1 9377   7.790   2.081   2.336
 3147TIP3    H2 9378   7.697   1.987   2.408
 3148TIP3   OH2 9379   7.771   2.566   2.310
 3148TIP3    H1 9380   7.847   2.558   2.250
 3148TIP3    H2 9381   7.716   2.632   2.263
 3149TIP3   OH2 9382   7.588   2.392   2.793
 3149TIP3    H1 9383   7.554   2.307   2.829
 3149TIP3    H2 9384   7.652   2.360   2.727
 3150TIP3   OH2 9385   7.488   2.144   2.880
 3150TIP3    H1 9386   7.496   2.053   2.845
 3150TIP3    H2 9387   7.526   2.133   2.970
 3151TIP3   OH2 9388   7.276   3.244   0.977
 3151TIP3    H1 9389   7.372   3.252   0.964
 3151TIP3    H2 9390   7.246   3.299   0.902
 3152TIP3   OH2 9391   6.765   2.646   1.223
 3152TIP3    H1 9392   6.853   2.676   1.187
 3152TIP3    H2 9393   6.769   2.552   1.205
 3153TIP3   OH2 9394   6.692   3.240   1.612
 3153TIP3    H1 9395   6.619   3.189   1.571
 3153TIP3    H2 9396   6.722   3.177   1.680
 3154TIP3   OH2 9397   6.844   3.082   1.791
 3154TIP3    H1 9398   6.810   3.024   1.863
 3154TIP3    H2 9399   6.880   3.154   1.847
 3155TIP3   OH2 9400   7.001   2.511   2.170
 3155TIP3    H1 9401   6.999   2.473   2.079
 3155TIP3    H2 9402   7.097   2.509   2.188
 3156TIP3   OH2 9403   7.219   2.192   2.843
 3156TIP3    H1 9404   7.317   2.189   2.848
 3156TIP3    H2 9405   7.197   2.106   2.884
 3157TIP3   OH2 9406   7.173   1.890   2.179
 3157TIP3    H1 9407   7.233   1.812   2.185
 3157TIP3    H2 9408   7.240   1.962   2.176
 3158TIP3   OH2 9409   6.979   2.160   2.247
 3158TIP3    H1 9410   7.031   2.152   2.164
 3158TIP3    H2 9411   7.018   2.238   2.287
 3159TIP3   OH2 9412   6.965   1.658   1.749
 3159TIP3    H1 9413   6.873   1.656   1.779
 3159TIP3    H2 9414   6.960   1.718   1.672
 3160TIP3   OH2 9415   7.185   1.743   2.566
 3160TIP3    H1 9416   7.133   1.742   2.648
 3160TIP3    H2 9417   7.119   1.781   2.504
 3161TIP3   OH2 9418   7.226   3.170   2.637
 3161TIP3    H1 9419   7.132   3.148   2.626
 3161TIP3    H2 9420   7.240   3.153   2.731
 3162TIP3   OH2 9421   7.408   3.201   2.186
 3162TIP3    H1 9422   7.358   3.277   2.150
 3162TIP3    H2 9423   7.494   3.219   2.141
 3163TIP3   OH2 9424   7.838   3.432   2.325
 3163TIP3    H1 9425   7.885   3.438   2.411
 3163TIP3    H2 9426   7.886   3.497   2.269
 3164TIP3   OH2 9427   7.970   3.607   2.152
 3164TIP3    H1 9428   8.026   3.599   2.070
 3164TIP3    H2 9429   8.036   3.647   2.213
 3165TIP3   OH2 9430   7.080   3.456   2.217
 3165TIP3    H1 9431   6.989   3.487   2.195
 3165TIP3    H2 9432   7.097   3.509   2.296
 3166TIP3   OH2 9433   7.312   3.432   2.069
 3166TIP3    H1 9434   7.226   3.447   2.116
 3166TIP3    H2 9435   7.294   3.472   1.982
 3167TIP3   OH2 9436   7.716   3.472   1.873
 3167TIP3    H1 9437   7.642   3.489   1.811
 3167TIP3    H2 9438   7.731   3.562   1.909
 3168TIP3   OH2 9439   7.969   3.375   1.846
 3168TIP3    H1 9440   7.877   3.409   1.860
 3168TIP3    H2 9441   8.020   3.456   1.870
 3169TIP3   OH2 9442   7.005   3.251   1.946
 3169TIP3    H1 9443   7.013   3.228   2.041
 3169TIP3    H2 9444   7.083   3.203   1.912
 3170TIP3   OH2 9445   7.192   3.093   1.795
 3170TIP3    H1 9446   7.211   3.025   1.864
 3170TIP3    H2 9447   7.276   3.144   1.799
 3171TIP3   OH2 9448   7.447   3.211   1.824
 3171TIP3    H1 9449   7.485   3.121   1.815
 3171TIP3    H2 9450   7.497   3.242   1.902
 3172TIP3   OH2 9451   7.272   1.593   1.913
 3172TIP3    H1 9452   7.182   1.553   1.921
 3172TIP3    H2 9453   7.325   1.509   1.912
 3173TIP3   OH2 9454   7.063   1.455   1.577
 3173TIP3    H1 9455   7.086   1.513   1.503
 3173TIP3    H2 9456   7.034   1.520   1.645
 3174TIP3   OH2 9457   6.781   3.027   1.360
 3174TIP3    H1 9458   6.697   2.993   1.324
 3174TIP3    H2 9459   6.775   3.118   1.324
 3175TIP3   OH2 9460   7.181   1.612   1.339
 3175TIP3    H1 9461   7.232   1.540   1.301
 3175TIP3    H2 9462   7.251   1.672   1.370
 3176TIP3   OH2 9463   7.546   3.210   0.937
 3176TIP3    H1 9464   7.638   3.220   0.903
 3176TIP3    H2 9465   7.515   3.141   0.873
 3177TIP3   OH2 9466   7.476   1.862   2.801
 3177TIP3    H1 9467   7.442   1.793   2.861
 3177TIP3    H2 9468   7.569   1.866   2.833
 3178TIP3   OH2 9469   7.713   1.866   2.935
 3178TIP3    H1 9470   7.802   1.850   2.897
 3178TIP3    H2 9471   7.707   1.792   2.998
 3179TIP3   OH2 9472   6.854   3.040   0.982
 3179TIP3    H1 9473   6.855   3.083   1.069
 3179TIP3    H2 9474   6.945   3.002   0.975
 3180TIP3   OH2 9475   0.424   3.380   3.174
 3180TIP3    H1 9476   0.392   3.471   3.156
 3180TIP3    H2 9477   0.347   3.329   3.144
 3181TIP3   OH2 9478   0.415   3.382   3.565
 3181TIP3    H1 9479   0.454   3.363   3.653
 3181TIP3    H2 9480   0.376   3.296   3.542
 3182TIP3   OH2 9481  -0.252   3.260   3.888
 3182TIP3    H1 9482  -0.275   3.202   3.963
 3182TIP3    H2 9483  -0.204   3.331   3.932
 3183TIP3   OH2 9484   0.666   3.687   3.246
 3183TIP3    H1 9485   0.652   3.616   3.311
 3183TIP3    H2 9486   0.696   3.760   3.302
 3184TIP3   OH2 9487  -0.302   3.666   3.582
 3184TIP3    H1 9488  -0.321   3.571   3.601
 3184TIP3    H2 9489  -0.223   3.679   3.635
 3185TIP3   OH2 9490  -0.522   3.175   3.560
 3185TIP3    H1 9491  -0.493   3.129   3.641
 3185TIP3    H2 9492  -0.466   3.254   3.562
 3186TIP3   OH2 9493   0.317   4.144   3.267
 3186TIP3    H1 9494   0.357   4.075   3.208
 3186TIP3    H2 9495   0.319   4.098   3.352
 3187TIP3   OH2 9496   0.222   3.608   3.610
 3187TIP3    H1 9497   0.261   3.528   3.569
 3187TIP3    H2 9498   0.305   3.652   3.636
 3188TIP3   OH2 9499   1.236   2.927   3.612
 3188TIP3    H1 9500   1.261   3.010   3.657
 3188TIP3    H2 9501   1.249   2.951   3.519
 3189TIP3   OH2 9502   0.631   3.106   3.639
 3189TIP3    H1 9503   0.675   3.021   3.659
 3189TIP3    H2 9504   0.599   3.088   3.548
 3190TIP3   OH2 9505  -0.024   2.764   3.602
 3190TIP3    H1 9506  -0.045   2.839   3.544
 3190TIP3    H2 9507  -0.074   2.692   3.557
 3191TIP3   OH2 9508   0.668   2.859   3.229
 3191TIP3    H1 9509   0.742   2.846   3.292
 3191TIP3    H2 9510   0.715   2.895   3.152
 3192TIP3   OH2 9511  -0.394   2.968   3.719
 3192TIP3    H1 9512  -0.311   2.960   3.770
 3192TIP3    H2 9513  -0.368   2.925   3.635
 3193TIP3   OH2 9514   0.050   3.168   3.491
 3193TIP3    H1 9515   0.142   3.141   3.513
 3193TIP3    H2 9516   0.008   3.082   3.469
 3194TIP3   OH2 9517   1.300   3.136   3.783
 3194TIP3    H1 9518   1.217   3.185   3.766
 3194TIP3    H2 9519   1.329   3.178   3.866
 3195TIP3   OH2 9520  -0.033   2.747   4.044
 3195TIP3    H1 9521  -0.086   2.793   3.976
 3195TIP3    H2 9522  -0.086   2.766   4.124
 3196TIP3   OH2 9523   0.309   3.601   3.047
 3196TIP3    H1 9524   0.271   3.584   2.960
 3196TIP3    H2 9525   0.262   3.683   3.073
 3197TIP3   OH2 9526   0.071   3.532   3.836
 3197TIP3    H1 9527   0.012   3.598   3.879
 3197TIP3    H2 9528   0.114   3.583   3.765
 3198TIP3   OH2 9529   0.873   2.861   3.409
 3198TIP3    H1 9530   0.844   2.831   3.496
 3198TIP3    H2 9531   0.923   2.942   3.433
 3199TIP3   OH2 9532  -0.152   2.865   3.824
 3199TIP3    H1 9533  -0.095   2.941   3.849
 3199TIP3    H2 9534  -0.100   2.828   3.749
 3200TIP3   OH2 9535  -0.117   3.712   3.958
 3200TIP3    H1 9536  -0.167   3.772   3.900
 3200TIP3    H2 9537  -0.191   3.668   4.005
 3201TIP3   OH2 9538   0.730   3.929   3.407
 3201TIP3    H1 9539   0.641   3.918   3.448
 3201TIP3    H2 9540   0.721   4.017   3.365
 3202TIP3   OH2 9541   1.028   2.813   3.768
 3202TIP3    H1 9542   0.942   2.851   3.743
 3202TIP3    H2 9543   1.088   2.852   3.702
 3203TIP3   OH2 9544   0.319   2.465   3.757
 3203TIP3    H1 9545   0.299   2.371   3.773
 3203TIP3    H2 9546   0.244   2.507   3.803
 3204TIP3   OH2 9547   0.429   3.975   3.078
 3204TIP3    H1 9548   0.479   3.891   3.062
 3204TIP3    H2 9549   0.492   4.039   3.037
 3205TIP3   OH2 9550   0.576   3.760   2.995
 3205TIP3    H1 9551   0.544   3.678   2.955
 3205TIP3    H2 9552   0.615   3.727   3.079
 3206TIP3   OH2 9553   0.966   3.842   3.752
 3206TIP3    H1 9554   0.949   3.759   3.703
 3206TIP3    H2 9555   0.942   3.910   3.687
 3207TIP3   OH2 9556   0.251   3.232   3.012
 3207TIP3    H1 9557   0.173   3.285   2.986
 3207TIP3    H2 9558   0.300   3.226   2.928
 3208TIP3   OH2 9559   0.209   3.020   2.724
 3208TIP3    H1 9560   0.278   3.071   2.770
 3208TIP3    H2 9561   0.268   2.951   2.685
 3209TIP3   OH2 9562   1.158   3.475   3.597
 3209TIP3    H1 9563   1.075   3.526   3.607
 3209TIP3    H2 9564   1.184   3.503   3.507
 3210TIP3   OH2 9565   0.600   3.318   2.976
 3210TIP3    H1 9566   0.545   3.340   3.055
 3210TIP3    H2 9567   0.683   3.290   3.021
 3211TIP3   OH2 9568   0.832   3.360   3.892
 3211TIP3    H1 9569   0.842   3.448   3.932
 3211TIP3    H2 9570   0.743   3.370   3.853
 3212TIP3   OH2 9571  -0.164   3.307   3.396
 3212TIP3    H1 9572  -0.205   3.247   3.331
 3212TIP3    H2 9573  -0.085   3.256   3.424
 3213TIP3   OH2 9574  -0.017   3.745   3.538
 3213TIP3    H1 9575  -0.053   3.687   3.469
 3213TIP3    H2 9576   0.069   3.702   3.557
 3214TIP3   OH2 9577   0.015   3.275   3.748
 3214TIP3    H1 9578   0.026   3.267   3.652
 3214TIP3    H2 9579   0.030   3.370   3.765
 3215TIP3   OH2 9580   0.490   3.922   3.532
 3215TIP3    H1 9581   0.486   3.998   3.593
 3215TIP3    H2 9582   0.478   3.845   3.592
 3216TIP3   OH2 9583   0.097   3.850   4.073
 3216TIP3    H1 9584   0.049   3.905   4.139
 3216TIP3    H2 9585   0.025   3.794   4.038
 3217TIP3   OH2 9586   0.429   3.180   2.806
 3217TIP3    H1 9587   0.496   3.234   2.855
 3217TIP3    H2 9588   0.458   3.198   2.712
 3218TIP3   OH2 9589  -0.151   3.390   4.181
 3218TIP3    H1 9590  -0.136   3.468   4.235
 3218TIP3    H2 9591  -0.247   3.393   4.169
 3219TIP3   OH2 9592   0.184   3.850   3.083
 3219TIP3    H1 9593   0.267   3.900   3.093
 3219TIP3    H2 9594   0.125   3.915   3.041
 3220TIP3   OH2 9595  -0.125   4.027   4.166
 3220TIP3    H1 9596  -0.143   4.017   4.070
 3220TIP3    H2 9597  -0.190   3.967   4.207
 3221TIP3   OH2 9598   0.954   2.408   2.860
 3221TIP3    H1 9599   0.873   2.434   2.908
 3221TIP3    H2 9600   0.972   2.491   2.809
 3222TIP3   OH2 9601  -0.290   3.146   3.200
 3222TIP3    H1 9602  -0.357   3.187   3.142
 3222TIP3    H2 9603  -0.334   3.064   3.225
 3223TIP3   OH2 9604   0.755   3.779   2.409
 3223TIP3    H1 9605   0.761   3.875   2.389
 3223TIP3    H2 9606   0.847   3.749   2.392
 3224TIP3   OH2 9607   1.196   4.186   3.800
 3224TIP3    H1 9608   1.196   4.089   3.814
 3224TIP3    H2 9609   1.112   4.209   3.846
 3225TIP3   OH2 9610   0.293   3.974   3.927
 3225TIP3    H1 9611   0.297   4.064   3.965
 3225TIP3    H2 9612   0.226   3.932   3.986
 3226TIP3   OH2 9613   0.064   4.100   2.886
 3226TIP3    H1 9614   0.016   4.080   2.803
 3226TIP3    H2 9615   0.028   4.188   2.910
 3227TIP3   OH2 9616   0.267   4.001   2.526
 3227TIP3    H1 9617   0.324   3.929   2.490
 3227TIP3    H2 9618   0.300   4.007   2.618
 3228TIP3   OH2 9619   0.316   4.048   2.797
 3228TIP3    H1 9620   0.227   4.058   2.838
 3228TIP3    H2 9621   0.365   4.005   2.869
 3229TIP3   OH2 9622   1.103   3.311   4.062
 3229TIP3    H1 9623   1.012   3.344   4.069
 3229TIP3    H2 9624   1.093   3.215   4.070
 3230TIP3   OH2 9625   0.083   2.543   3.889
 3230TIP3    H1 9626  -0.005   2.513   3.860
 3230TIP3    H2 9627   0.058   2.626   3.935
 3231TIP3   OH2 9628   0.613   2.658   4.079
 3231TIP3    H1 9629   0.666   2.649   4.158
 3231TIP3    H2 9630   0.522   2.642   4.114
 3232TIP3   OH2 9631   0.852   3.096   3.995
 3232TIP3    H1 9632   0.805   3.093   4.081
 3232TIP3    H2 9633   0.835   3.188   3.965
 3233TIP3   OH2 9634   0.512   3.226   2.553
 3233TIP3    H1 9635   0.472   3.176   2.479
 3233TIP3    H2 9636   0.596   3.257   2.512
 3234TIP3   OH2 9637   0.234   2.639   2.864
 3234TIP3    H1 9638   0.200   2.612   2.951
 3234TIP3    H2 9639   0.183   2.580   2.804
 3235TIP3   OH2 9640   0.016   3.059   3.907
 3235TIP3    H1 9641  -0.040   3.084   3.984
 3235TIP3    H2 9642   0.009   3.142   3.852
 3236TIP3   OH2 9643  -0.102   2.949   3.422
 3236TIP3    H1 9644  -0.196   2.927   3.436
 3236TIP3    H2 9645  -0.087   2.908   3.333
 3237TIP3   OH2 9646   0.387   3.031   3.148
 3237TIP3    H1 9647   0.337   3.103   3.103
 3237TIP3    H2 9648   0.445   3.000   3.075
 3238TIP3   OH2 9649   0.558   3.319   4.216
 3238TIP3    H1 9650   0.570   3.257   4.291
 3238TIP3    H2 9651   0.638   3.377   4.227
 3239TIP3   OH2 9652   0.543   3.058   3.383
 3239TIP3    H1 9653   0.481   3.088   3.313
 3239TIP3    H2 9654   0.578   2.979   3.337
 3240TIP3   OH2 9655  -0.159   3.081   4.120
 3240TIP3    H1 9656  -0.151   3.156   4.180
 3240TIP3    H2 9657  -0.169   3.006   4.180
 3241TIP3   OH2 9658  -0.565   2.612   3.721
 3241TIP3    H1 9659  -0.481   2.641   3.762
 3241TIP3    H2 9660  -0.541   2.597   3.629
 3242TIP3   OH2 9661   0.541   3.303   3.800
 3242TIP3    H1 9662   0.582   3.234   3.744
 3242TIP3    H2 9663   0.520   3.251   3.880
 3243TIP3   OH2 9664   0.232   2.763   3.477
 3243TIP3    H1 9665   0.150   2.764   3.530
 3243TIP3    H2 9666   0.301   2.769   3.545
 3244TIP3   OH2 9667  -0.340   2.818   3.485
 3244TIP3    H1 9668  -0.428   2.802   3.450
 3244TIP3    H2 9669  -0.293   2.734   3.466
 3245TIP3   OH2 9670  -0.066   2.823   3.185
 3245TIP3    H1 9671   0.029   2.836   3.166
 3245TIP3    H2 9672  -0.110   2.854   3.103
 3246TIP3   OH2 9673   0.720   2.842   3.671
 3246TIP3    H1 9674   0.693   2.857   3.765
 3246TIP3    H2 9675   0.646   2.785   3.642
 3247TIP3   OH2 9676  -0.222   2.878   2.971
 3247TIP3    H1 9677  -0.302   2.828   2.949
 3247TIP3    H2 9678  -0.182   2.897   2.884
 3248TIP3   OH2 9679   0.891   4.536   3.902
 3248TIP3    H1 9680   0.889   4.557   3.807
 3248TIP3    H2 9681   0.971   4.583   3.932
 3249TIP3   OH2 9682   0.308   3.098   3.572
 3249TIP3    H1 9683   0.385   3.062   3.525
 3249TIP3    H2 9684   0.317   3.059   3.661
 3250TIP3   OH2 9685  -0.181   2.590   3.447
 3250TIP3    H1 9686  -0.196   2.505   3.491
 3250TIP3    H2 9687  -0.148   2.562   3.359
 3251TIP3   OH2 9688   0.284   2.995   3.872
 3251TIP3    H1 9689   0.195   3.034   3.883
 3251TIP3    H2 9690   0.342   3.059   3.918
 3252TIP3   OH2 9691   0.018   3.386   2.955
 3252TIP3    H1 9692  -0.053   3.319   2.947
 3252TIP3    H2 9693   0.002   3.418   3.048
 3253TIP3   OH2 9694   0.926   3.620   3.587
 3253TIP3    H1 9695   0.945   3.673   3.507
 3253TIP3    H2 9696   0.837   3.583   3.568
 3254TIP3   OH2 9697   0.498   2.686   2.837
 3254TIP3    H1 9698   0.400   2.678   2.843
 3254TIP3    H2 9699   0.506   2.782   2.818
 3255TIP3   OH2 9700   0.423   3.716   3.960
 3255TIP3    H1 9701   0.420   3.681   4.050
 3255TIP3    H2 9702   0.372   3.798   3.968
 3256TIP3   OH2 9703   0.550   2.955   2.937
 3256TIP3    H1 9704   0.647   2.960   2.941
 3256TIP3    H2 9705   0.526   3.017   2.866
 3257TIP3   OH2 9706  -0.287   3.396   3.637
 3257TIP3    H1 9707  -0.234   3.353   3.568
 3257TIP3    H2 9708  -0.273   3.339   3.716
 3258TIP3   OH2 9709   0.167   3.536   2.784
 3258TIP3    H1 9710   0.119   3.621   2.790
 3258TIP3    H2 9711   0.113   3.479   2.844
 3259TIP3   OH2 9712   0.319   3.441   4.273
 3259TIP3    H1 9713   0.256   3.381   4.228
 3259TIP3    H2 9714   0.405   3.404   4.242
 3260TIP3   OH2 9715   0.571   4.001   3.839
 3260TIP3    H1 9716   0.481   3.971   3.859
 3260TIP3    H2 9717   0.601   4.031   3.927
 3261TIP3   OH2 9718   0.990   3.037   2.759
 3261TIP3    H1 9719   0.929   2.993   2.696
 3261TIP3    H2 9720   0.984   3.128   2.721
 3262TIP3   OH2 9721   1.212   3.902   3.842
 3262TIP3    H1 9722   1.115   3.889   3.836
 3262TIP3    H2 9723   1.238   3.866   3.754
 3263TIP3   OH2 9724   0.694   3.854   2.674
 3263TIP3    H1 9725   0.664   3.785   2.735
 3263TIP3    H2 9726   0.703   3.806   2.590
 3264TIP3   OH2 9727   0.686   3.489   3.494
 3264TIP3    H1 9728   0.594   3.466   3.516
 3264TIP3    H2 9729   0.718   3.405   3.455
 3265TIP3   OH2 9730  -0.183   3.709   3.254
 3265TIP3    H1 9731  -0.192   3.790   3.201
 3265TIP3    H2 9732  -0.264   3.708   3.307
 3266TIP3   OH2 9733   7.533   1.404   1.347
 3266TIP3    H1 9734   7.593   1.478   1.370
 3266TIP3    H2 9735   7.458   1.421   1.404
 3267TIP3   OH2 9736  -0.050   3.473   3.201
 3267TIP3    H1 9737  -0.086   3.562   3.220
 3267TIP3    H2 9738  -0.083   3.423   3.278
 3268TIP3   OH2 9739   0.094   4.058   3.730
 3268TIP3    H1 9740   0.141   4.125   3.678
 3268TIP3    H2 9741   0.168   4.017   3.780
 3269TIP3   OH2 9742  -0.270   3.958   3.116
 3269TIP3    H1 9743  -0.345   3.973   3.174
 3269TIP3    H2 9744  -0.230   4.048   3.115
 3270TIP3   OH2 9745   0.473   3.692   3.692
 3270TIP3    H1 9746   0.458   3.692   3.790
 3270TIP3    H2 9747   0.563   3.657   3.690
 3271TIP3   OH2 9748   0.449   3.591   2.573
 3271TIP3    H1 9749   0.504   3.564   2.650
 3271TIP3    H2 9750   0.365   3.550   2.598
 3272TIP3   OH2 9751   0.722   4.223   3.746
 3272TIP3    H1 9752   0.650   4.156   3.751
 3272TIP3    H2 9753   0.695   4.277   3.669
 3273TIP3   OH2 9754   0.780   4.056   2.390
 3273TIP3    H1 9755   0.824   4.131   2.350
 3273TIP3    H2 9756   0.697   4.098   2.423
 3274TIP3   OH2 9757  -0.186   2.816   4.267
 3274TIP3    H1 9758  -0.278   2.826   4.297
 3274TIP3    H2 9759  -0.147   2.767   4.341
 3275TIP3   OH2 9760   0.610   3.523   2.788
 3275TIP3    H1 9761   0.597   3.453   2.855
 3275TIP3    H2 9762   0.707   3.515   2.774
 3276TIP3   OH2 9763  -0.190   3.567   2.574
 3276TIP3    H1 9764  -0.177   3.473   2.547
 3276TIP3    H2 9765  -0.211   3.555   2.669
 3277TIP3   OH2 9766  -0.240   3.572   2.848
 3277TIP3    H1 9767  -0.162   3.541   2.896
 3277TIP3    H2 9768  -0.232   3.670   2.856
 3278TIP3   OH2 9769  -0.495   3.259   3.059
 3278TIP3    H1 9770  -0.516   3.322   3.130
 3278TIP3    H2 9771  -0.478   3.321   2.985
 3279TIP3   OH2 9772   0.655   2.892   3.929
 3279TIP3    H1 9773   0.722   2.943   3.978
 3279TIP3    H2 9774   0.636   2.817   3.990
 3280TIP3   OH2 9775   0.529   2.644   3.111
 3280TIP3    H1 9776   0.514   2.667   3.017
 3280TIP3    H2 9777   0.566   2.728   3.145
 3281TIP3   OH2 9778   0.023   3.764   2.792
 3281TIP3    H1 9779  -0.062   3.795   2.830
 3281TIP3    H2 9780   0.038   3.832   2.725
 3282TIP3   OH2 9781   0.211   2.827   3.207
 3282TIP3    H1 9782   0.275   2.899   3.187
 3282TIP3    H2 9783   0.220   2.821   3.305
 3283TIP3   OH2 9784   0.481   3.145   4.015
 3283TIP3    H1 9785   0.502   3.207   4.088
 3283TIP3    H2 9786   0.539   3.070   4.035
 3284TIP3   OH2 9787   0.357   2.550   3.311
 3284TIP3    H1 9788   0.343   2.630   3.365
 3284TIP3    H2 9789   0.419   2.585   3.242
 3285TIP3   OH2 9790  -0.230   3.846   2.863
 3285TIP3    H1 9791  -0.260   3.916   2.801
 3285TIP3    H2 9792  -0.248   3.888   2.950
 3286TIP3   OH2 9793  -0.120   2.549   3.155
 3286TIP3    H1 9794  -0.126   2.646   3.147
 3286TIP3    H2 9795  -0.027   2.536   3.128
 3287TIP3   OH2 9796   1.114   3.024   3.998
 3287TIP3    H1 9797   1.017   3.035   3.999
 3287TIP3    H2 9798   1.131   3.022   3.903
 3288TIP3   OH2 9799   0.772   3.238   3.381
 3288TIP3    H1 9800   0.695   3.181   3.396
 3288TIP3    H2 9801   0.842   3.192   3.432
 3289TIP3   OH2 9802  -0.503   3.477   2.892
 3289TIP3    H1 9803  -0.418   3.526   2.881
 3289TIP3    H2 9804  -0.493   3.419   2.813
 3290TIP3   OH2 9805   0.740   4.202   3.329
 3290TIP3    H1 9806   0.699   4.248   3.253
 3290TIP3    H2 9807   0.835   4.220   3.311
 3291TIP3   OH2 9808  -0.181   2.461   3.853
 3291TIP3    H1 9809  -0.216   2.425   3.769
 3291TIP3    H2 9810  -0.191   2.384   3.914
 3292TIP3   OH2 9811  -0.017   4.202   4.354
 3292TIP3    H1 9812   0.074   4.180   4.378
 3292TIP3    H2 9813  -0.035   4.135   4.286
 3293TIP3   OH2 9814  -0.023   3.765   2.483
 3293TIP3    H1 9815  -0.078   3.692   2.520
 3293TIP3    H2 9816   0.052   3.713   2.447
 3294TIP3   OH2 9817   0.632   4.097   4.090
 3294TIP3    H1 9818   0.628   4.026   4.157
 3294TIP3    H2 9819   0.710   4.148   4.119
 3295TIP3   OH2 9820   0.413   3.805   2.400
 3295TIP3    H1 9821   0.448   3.736   2.459
 3295TIP3    H2 9822   0.470   3.797   2.321
 3296TIP3   OH2 9823  -0.376   3.293   2.730
 3296TIP3    H1 9824  -0.311   3.257   2.794
 3296TIP3    H2 9825  -0.322   3.294   2.649
 3297TIP3   OH2 9826   0.304   3.723   4.248
 3297TIP3    H1 9827   0.216   3.731   4.208
 3297TIP3    H2 9828   0.306   3.628   4.273
 3298TIP3   OH2 9829   0.137   3.478   2.516
 3298TIP3    H1 9830   0.139   3.492   2.613
 3298TIP3    H2 9831   0.140   3.380   2.512
 3299TIP3   OH2 9832   0.731   3.695   3.839
 3299TIP3    H1 9833   0.817   3.738   3.848
 3299TIP3    H2 9834   0.673   3.756   3.888
 3300TIP3   OH2 9835  -0.230   3.343   4.519
 3300TIP3    H1 9836  -0.160   3.320   4.456
 3300TIP3    H2 9837  -0.189   3.420   4.563
 3301TIP3   OH2 9838  -0.173   3.185   2.921
 3301TIP3    H1 9839  -0.190   3.142   3.007
 3301TIP3    H2 9840  -0.134   3.112   2.870
 3302TIP3   OH2 9841   0.103   3.254   4.160
 3302TIP3    H1 9842   0.021   3.306   4.154
 3302TIP3    H2 9843   0.152   3.285   4.079
 3303TIP3   OH2 9844  -0.063   2.978   2.760
 3303TIP3    H1 9845  -0.070   2.946   2.669
 3303TIP3    H2 9846   0.034   2.991   2.766
 3304TIP3   OH2 9847   0.752   3.314   2.437
 3304TIP3    H1 9848   0.730   3.267   2.353
 3304TIP3    H2 9849   0.716   3.403   2.413
 3305TIP3   OH2 9850   0.230   3.043   4.279
 3305TIP3    H1 9851   0.225   2.965   4.221
 3305TIP3    H2 9852   0.184   3.111   4.224
 3306TIP3   OH2 9853   0.227   2.824   4.091
 3306TIP3    H1 9854   0.254   2.870   4.009
 3306TIP3    H2 9855   0.133   2.803   4.072
 3307TIP3   OH2 9856   0.249   3.362   3.963
 3307TIP3    H1 9857   0.334   3.372   3.917
 3307TIP3    H2 9858   0.192   3.424   3.913
 3308TIP3   OH2 9859   0.106   3.152   4.514
 3308TIP3    H1 9860   0.041   3.079   4.520
 3308TIP3    H2 9861   0.137   3.142   4.422
 3309TIP3   OH2 9862   0.362   2.591   4.159
 3309TIP3    H1 9863   0.311   2.673   4.142
 3309TIP3    H2 9864   0.292   2.523   4.158
 3310TIP3   OH2 9865   0.493   3.084   4.371
 3310TIP3    H1 9866   0.478   3.091   4.466
 3310TIP3    H2 9867   0.401   3.072   4.339
 3311TIP3   OH2 9868   0.717   3.023   4.219
 3311TIP3    H1 9869   0.644   3.044   4.282
 3311TIP3    H2 9870   0.794   3.014   4.279
 3312TIP3   OH2 9871   0.944   2.979   4.380
 3312TIP3    H1 9872   0.959   2.889   4.412
 3312TIP3    H2 9873   0.940   3.032   4.463
 3313TIP3   OH2 9874  -0.047   2.928   4.563
 3313TIP3    H1 9875  -0.046   2.837   4.528
 3313TIP3    H2 9876  -0.016   2.914   4.655
 3314TIP3   OH2 9877   0.490   2.796   4.561
 3314TIP3    H1 9878   0.474   2.784   4.467
 3314TIP3    H2 9879   0.429   2.871   4.580
 3315TIP3   OH2 9880  -0.258   4.044   2.672
 3315TIP3    H1 9881  -0.163   4.036   2.651
 3315TIP3    H2 9882  -0.290   4.088   2.591
 3316TIP3   OH2 9883   0.995   4.292   3.291
 3316TIP3    H1 9884   1.022   4.317   3.381
 3316TIP3    H2 9885   1.066   4.330   3.236
 3317TIP3   OH2 9886   1.026   4.307   3.572
 3317TIP3    H1 9887   0.977   4.221   3.569
 3317TIP3    H2 9888   1.098   4.281   3.632
 3318TIP3   OH2 9889   1.075   3.985   4.145
 3318TIP3    H1 9890   1.001   3.987   4.210
 3318TIP3    H2 9891   1.112   4.074   4.154
 3319TIP3   OH2 9892   0.889   3.497   2.765
 3319TIP3    H1 9893   0.957   3.560   2.736
 3319TIP3    H2 9894   0.932   3.457   2.844
 3320TIP3   OH2 9895   1.017   3.363   2.968
 3320TIP3    H1 9896   0.949   3.321   3.026
 3320TIP3    H2 9897   1.080   3.401   3.033
 3321TIP3   OH2 9898   1.073   3.763   3.398
 3321TIP3    H1 9899   1.127   3.693   3.354
 3321TIP3    H2 9900   1.064   3.830   3.329
 3322TIP3   OH2 9901   0.897   4.061   3.589
 3322TIP3    H1 9902   0.826   4.094   3.647
 3322TIP3    H2 9903   0.846   4.010   3.522
 3323TIP3   OH2 9904   0.953   3.273   2.615
 3323TIP3    H1 9905   0.881   3.275   2.547
 3323TIP3    H2 9906   0.923   3.349   2.670
 3324TIP3   OH2 9907   0.829   2.942   2.562
 3324TIP3    H1 9908   0.767   2.983   2.500
 3324TIP3    H2 9909   0.808   2.847   2.548
 3325TIP3   OH2 9910   0.828   3.223   3.111
 3325TIP3    H1 9911   0.833   3.126   3.104
 3325TIP3    H2 9912   0.812   3.236   3.207
 3326TIP3   OH2 9913   1.112   3.640   3.954
 3326TIP3    H1 9914   1.189   3.580   3.957
 3326TIP3    H2 9915   1.149   3.722   3.919
 3327TIP3   OH2 9916   1.313   3.456   3.979
 3327TIP3    H1 9917   1.235   3.408   4.015
 3327TIP3    H2 9918   1.382   3.389   3.996
 3328TIP3   OH2 9919   0.781   2.673   2.540
 3328TIP3    H1 9920   0.837   2.645   2.614
 3328TIP3    H2 9921   0.696   2.628   2.560
 3329TIP3   OH2 9922   0.830   2.941   3.007
 3329TIP3    H1 9923   0.870   2.852   3.022
 3329TIP3    H2 9924   0.885   2.973   2.934
 3330TIP3   OH2 9925   0.984   3.106   3.505
 3330TIP3    H1 9926   1.070   3.132   3.464
 3330TIP3    H2 9927   0.995   3.148   3.592
 3331TIP3   OH2 9928   1.052   3.255   3.733
 3331TIP3    H1 9929   0.981   3.290   3.792
 3331TIP3    H2 9930   1.085   3.339   3.693
 3332TIP3   OH2 9931  -0.309   2.898   4.657
 3332TIP3    H1 9932  -0.232   2.929   4.605
 3332TIP3    H2 9933  -0.381   2.945   4.610
 3333TIP3   OH2 9934   1.502   2.845   4.291
 3333TIP3    H1 9935   1.564   2.783   4.247
 3333TIP3    H2 9936   1.473   2.901   4.215
 3334TIP3   OH2 9937   0.937   2.688   3.044
 3334TIP3    H1 9938   0.982   2.672   3.130
 3334TIP3    H2 9939   0.873   2.614   3.043
 3335TIP3   OH2 9940  -0.349   2.679   3.873
 3335TIP3    H1 9941  -0.286   2.603   3.877
 3335TIP3    H2 9942  -0.287   2.753   3.856
 3336TIP3   OH2 9943   1.377   2.988   4.099
 3336TIP3    H1 9944   1.297   3.032   4.136
 3336TIP3    H2 9945   1.333   2.924   4.040
 3337TIP3   OH2 9946   1.017   2.618   2.692
 3337TIP3    H1 9947   1.051   2.552   2.627
 3337TIP3    H2 9948   1.078   2.693   2.680
 3338TIP3   OH2 9949   0.578   4.157   2.944
 3338TIP3    H1 9950   0.635   4.145   2.865
 3338TIP3    H2 9951   0.630   4.219   2.997
 3339TIP3   OH2 9952  -0.369   2.532   4.265
 3339TIP3    H1 9953  -0.405   2.550   4.353
 3339TIP3    H2 9954  -0.422   2.591   4.211
 3340TIP3   OH2 9955  -0.144   4.020   3.879
 3340TIP3    H1 9956  -0.156   4.098   3.821
 3340TIP3    H2 9957  -0.051   3.998   3.854
 3341TIP3   OH2 9958   0.300   4.237   4.017
 3341TIP3    H1 9959   0.342   4.232   4.106
 3341TIP3    H2 9960   0.369   4.287   3.967
 3342TIP3   OH2 9961   0.481   4.390   3.875
 3342TIP3    H1 9962   0.550   4.334   3.837
 3342TIP3    H2 9963   0.534   4.446   3.936
 3343TIP3   OH2 9964   1.277   2.749   3.977
 3343TIP3    H1 9965   1.189   2.753   3.937
 3343TIP3    H2 9966   1.304   2.656   3.961
 3344TIP3   OH2 9967  -0.226   4.252   3.738
 3344TIP3    H1 9968  -0.258   4.341   3.763
 3344TIP3    H2 9969  -0.279   4.232   3.659
 3345TIP3   OH2 9970   0.198   4.255   3.563
 3345TIP3    H1 9971   0.149   4.279   3.482
 3345TIP3    H2 9972   0.213   4.343   3.605
 3346TIP3   OH2 9973   0.467   4.197   3.608
 3346TIP3    H1 9974   0.372   4.213   3.589
 3346TIP3    H2 9975   0.510   4.273   3.567
 3347TIP3   OH2 9976   0.667   4.385   3.523
 3347TIP3    H1 9977   0.657   4.469   3.474
 3347TIP3    H2 9978   0.696   4.323   3.453
 3348TIP3   OH2 9979  -0.355   3.920   3.494
 3348TIP3    H1 9980  -0.351   3.828   3.530
 3348TIP3    H2 9981  -0.261   3.946   3.500
 3349TIP3   OH2 9982  -0.079   4.014   3.513
 3349TIP3    H1 9983  -0.055   3.920   3.498
 3349TIP3    H2 9984  -0.025   4.028   3.594
 3350TIP3   OH2 9985   0.486   2.666   3.600
 3350TIP3    H1 9986   0.441   2.593   3.647
 3350TIP3    H2 9987   0.558   2.619   3.553
 3351TIP3   OH2 9988   1.000   2.538   3.495
 3351TIP3    H1 9989   1.038   2.594   3.424
 3351TIP3    H2 9990   0.907   2.568   3.495
 3352TIP3   OH2 9991   1.099   2.641   3.263
 3352TIP3    H1 9992   1.175   2.592   3.223
 3352TIP3    H2 9993   1.131   2.733   3.249
 3353TIP3   OH2 9994  -0.284   2.365   3.600
 3353TIP3    H1 9995  -0.364   2.313   3.618
 3353TIP3    H2 9996  -0.217   2.293   3.599
 3354TIP3   OH2 9997   0.177   2.408   3.490
 3354TIP3    H1 9998   0.231   2.459   3.427
 3354TIP3    H2 9999   0.202   2.448   3.575
 3355TIP3   OH210000   0.715   2.553   3.477
 3355TIP3    H110001   0.714   2.518   3.387
 3355TIP3    H210002   0.704   2.471   3.531
 3356TIP3   OH210003   0.751   2.477   3.039
 3356TIP3    H110004   0.667   2.525   3.052
 3356TIP3    H210005   0.732   2.393   3.085
 3357TIP3   OH210006   0.154   2.575   3.121
 3357TIP3    H110007   0.213   2.533   3.187
 3357TIP3    H210008   0.170   2.669   3.144
 3358TIP3   OH210009   0.006   4.000   2.617
 3358TIP3    H110010   0.096   4.022   2.582
 3358TIP3    H210011  -0.015   3.924   2.558
 3359TIP3   OH210012   0.730   4.120   2.712
 3359TIP3    H110013   0.719   4.022   2.704
 3359TIP3    H210014   0.677   4.151   2.635
 3360TIP3   OH210015  -0.066   2.653   4.492
 3360TIP3    H110016  -0.105   2.584   4.551
 3360TIP3    H210017   0.026   2.652   4.525
 3361TIP3   OH210018   0.177   2.649   4.627
 3361TIP3    H110019   0.270   2.628   4.610
 3361TIP3    H210020   0.155   2.580   4.693
 3362TIP3   OH210021   1.014   2.691   4.413
 3362TIP3    H110022   1.046   2.686   4.505
 3362TIP3    H210023   1.098   2.709   4.365
 3363TIP3   OH210024   0.950   4.265   3.901
 3363TIP3    H110025   0.871   4.233   3.852
 3363TIP3    H210026   0.928   4.360   3.909
 3364TIP3   OH210027   2.215   3.634   2.667
 3364TIP3    H110028   2.188   3.726   2.647
 3364TIP3    H210029   2.140   3.586   2.628
 3365TIP3   OH210030   2.219   3.646   3.050
 3365TIP3    H110031   2.250   3.618   3.138
 3365TIP3    H210032   2.179   3.566   3.014
 3366TIP3   OH210033   1.516   3.529   3.409
 3366TIP3    H110034   1.543   3.459   3.471
 3366TIP3    H210035   1.586   3.594   3.423
 3367TIP3   OH210036   2.461   3.941   2.733
 3367TIP3    H110037   2.450   3.876   2.803
 3367TIP3    H210038   2.493   4.019   2.783
 3368TIP3   OH210039   1.488   3.944   3.133
 3368TIP3    H110040   1.479   3.846   3.135
 3368TIP3    H210041   1.585   3.952   3.130
 3369TIP3   OH210042   1.195   3.145   2.918
 3369TIP3    H110043   1.145   3.227   2.937
 3369TIP3    H210044   1.124   3.092   2.876
 3370TIP3   OH210045   1.252   3.433   3.098
 3370TIP3    H110046   1.302   3.355   3.133
 3370TIP3    H210047   1.312   3.467   3.031
 3371TIP3   OH210048   2.111   4.400   2.748
 3371TIP3    H110049   2.154   4.329   2.696
 3371TIP3    H210050   2.107   4.360   2.836
 3372TIP3   OH210051   2.014   3.865   3.097
 3372TIP3    H110052   2.057   3.792   3.050
 3372TIP3    H210053   2.095   3.913   3.125
 3373TIP3   OH210054   3.028   3.182   3.095
 3373TIP3    H110055   3.057   3.264   3.142
 3373TIP3    H210056   3.057   3.201   3.004
 3374TIP3   OH210057   2.409   3.358   3.129
 3374TIP3    H110058   2.473   3.286   3.145
 3374TIP3    H210059   2.393   3.347   3.033
 3375TIP3   OH210060   1.772   3.022   3.089
 3375TIP3    H110061   1.748   3.095   3.028
 3375TIP3    H210062   1.720   2.949   3.048
 3376TIP3   OH210063   2.462   3.119   2.715
 3376TIP3    H110064   2.536   3.106   2.780
 3376TIP3    H210065   2.513   3.151   2.639
 3377TIP3   OH210066   1.399   3.227   3.201
 3377TIP3    H110067   1.482   3.207   3.249
 3377TIP3    H210068   1.412   3.170   3.122
 3378TIP3   OH210069   1.842   3.420   2.990
 3378TIP3    H110070   1.933   3.385   3.002
 3378TIP3    H210071   1.795   3.339   2.959
 3379TIP3   OH210072   3.097   3.386   3.269
 3379TIP3    H110073   3.016   3.439   3.256
 3379TIP3    H210074   3.128   3.419   3.355
 3380TIP3   OH210075   1.759   3.011   3.531
 3380TIP3    H110076   1.700   3.048   3.463
 3380TIP3    H210077   1.705   3.026   3.612
 3381TIP3   OH210078   2.101   3.853   2.537
 3381TIP3    H110079   2.068   3.844   2.447
 3381TIP3    H210080   2.060   3.938   2.564
 3382TIP3   OH210081   1.868   3.783   3.320
 3382TIP3    H110082   1.807   3.851   3.357
 3382TIP3    H210083   1.912   3.832   3.248
 3383TIP3   OH210084   2.672   3.125   2.887
 3383TIP3    H110085   2.684   3.073   2.967
 3383TIP3    H210086   2.721   3.206   2.910
 3384TIP3   OH210087   1.636   3.123   3.309
 3384TIP3    H110088   1.697   3.196   3.333
 3384TIP3    H210089   1.686   3.082   3.235
 3385TIP3   OH210090   1.698   3.980   3.420
 3385TIP3    H110091   1.672   4.067   3.384
 3385TIP3    H210092   1.619   3.962   3.475
 3386TIP3   OH210093   1.091   3.667   2.655
 3386TIP3    H110094   1.047   3.693   2.572
 3386TIP3    H210095   1.121   3.754   2.690
 3387TIP3   OH210096   2.527   4.183   2.893
 3387TIP3    H110097   2.437   4.176   2.932
 3387TIP3    H210098   2.521   4.271   2.849
 3388TIP3   OH210099   2.824   3.073   3.253
 3388TIP3    H110100   2.744   3.120   3.224
 3388TIP3    H210101   2.892   3.108   3.191
 3389TIP3   OH210102   2.226   4.228   2.566
 3389TIP3    H110103   2.278   4.146   2.546
 3389TIP3    H210104   2.288   4.294   2.526
 3390TIP3   OH210105   2.370   4.012   2.482
 3390TIP3    H110106   2.346   3.930   2.437
 3390TIP3    H210107   2.409   3.979   2.566
 3391TIP3   OH210108   2.754   4.094   3.241
 3391TIP3    H110109   2.745   4.018   3.180
 3391TIP3    H210110   2.737   4.170   3.180
 3392TIP3   OH210111   2.047   3.489   2.499
 3392TIP3    H110112   1.967   3.542   2.478
 3392TIP3    H210113   2.093   3.489   2.413
 3393TIP3   OH210114   2.007   3.276   2.210
 3393TIP3    H110115   2.074   3.328   2.259
 3393TIP3    H210116   2.065   3.213   2.163
 3394TIP3   OH210117   2.949   3.730   3.084
 3394TIP3    H110118   2.867   3.784   3.088
 3394TIP3    H210119   2.982   3.756   2.995
 3395TIP3   OH210120   2.394   3.571   2.468
 3395TIP3    H110121   2.341   3.596   2.547
 3395TIP3    H210122   2.479   3.547   2.510
 3396TIP3   OH210123   2.631   3.608   3.391
 3396TIP3    H110124   2.634   3.689   3.446
 3396TIP3    H210125   2.549   3.623   3.342
 3397TIP3   OH210126   1.627   3.566   2.887
 3397TIP3    H110127   1.586   3.509   2.819
 3397TIP3    H210128   1.705   3.514   2.914
 3398TIP3   OH210129   1.758   3.983   3.033
 3398TIP3    H110130   1.740   3.945   2.945
 3398TIP3    H210131   1.847   3.947   3.052
 3399TIP3   OH210132   1.773   3.536   3.240
 3399TIP3    H110133   1.801   3.521   3.147
 3399TIP3    H210134   1.809   3.626   3.260
 3400TIP3   OH210135   2.287   4.179   3.017
 3400TIP3    H110136   2.275   4.260   3.070
 3400TIP3    H210137   2.272   4.107   3.082
 3401TIP3   OH210138   1.902   4.099   3.565
 3401TIP3    H110139   1.841   4.160   3.611
 3401TIP3    H210140   1.837   4.045   3.515
 3402TIP3   OH210141   2.233   3.430   2.295
 3402TIP3    H110142   2.293   3.490   2.345
 3402TIP3    H210143   2.259   3.452   2.202
 3403TIP3   OH210144   1.655   3.649   3.663
 3403TIP3    H110145   1.663   3.736   3.707
 3403TIP3    H210146   1.562   3.628   3.685
 3404TIP3   OH210147   1.980   4.107   2.570
 3404TIP3    H110148   2.064   4.157   2.579
 3404TIP3    H210149   1.922   4.172   2.530
 3405TIP3   OH210150   1.694   4.266   3.653
 3405TIP3    H110151   1.661   4.265   3.561
 3405TIP3    H210152   1.613   4.243   3.704
 3406TIP3   OH210153   2.750   2.669   2.345
 3406TIP3    H110154   2.669   2.693   2.394
 3406TIP3    H210155   2.766   2.750   2.292
 3407TIP3   OH210156   1.495   3.410   2.688
 3407TIP3    H110157   1.427   3.456   2.635
 3407TIP3    H210158   1.453   3.325   2.703
 3408TIP3   OH210159   2.552   4.036   1.895
 3408TIP3    H110160   2.560   4.132   1.878
 3408TIP3    H210161   2.645   4.007   1.881
 3409TIP3   OH210162   1.277   3.796   3.599
 3409TIP3    H110163   1.206   3.775   3.536
 3409TIP3    H210164   1.312   3.707   3.624
 3410TIP3   OH210165   1.130   3.994   3.220
 3410TIP3    H110166   1.226   3.982   3.219
 3410TIP3    H210167   1.120   4.065   3.285
 3411TIP3   OH210168   2.992   4.442   3.289
 3411TIP3    H110169   2.992   4.345   3.304
 3411TIP3    H210170   2.909   4.467   3.334
 3412TIP3   OH210171   2.098   4.226   3.421
 3412TIP3    H110172   2.095   4.319   3.454
 3412TIP3    H210173   2.027   4.185   3.475
 3413TIP3   OH210174   1.860   4.351   2.376
 3413TIP3    H110175   1.818   4.336   2.289
 3413TIP3    H210176   1.829   4.441   2.399
 3414TIP3   OH210177   1.297   4.201   2.762
 3414TIP3    H110178   1.349   4.197   2.845
 3414TIP3    H210179   1.247   4.118   2.769
 3415TIP3   OH210180   2.060   4.255   2.012
 3415TIP3    H110181   2.118   4.185   1.976
 3415TIP3    H210182   2.097   4.266   2.103
 3416TIP3   OH210183   2.112   4.306   2.281
 3416TIP3    H110184   2.025   4.313   2.326
 3416TIP3    H210185   2.168   4.272   2.353
 3417TIP3   OH210186   2.884   3.572   3.567
 3417TIP3    H110187   2.803   3.582   3.515
 3417TIP3    H210188   2.899   3.475   3.559
 3418TIP3   OH210189   1.479   3.981   3.584
 3418TIP3    H110190   1.529   3.962   3.666
 3418TIP3    H210191   1.405   3.917   3.591
 3419TIP3   OH210192   1.878   2.813   3.379
 3419TIP3    H110193   1.794   2.777   3.345
 3419TIP3    H210194   1.844   2.889   3.430
 3420TIP3   OH210195   2.419   2.898   3.577
 3420TIP3    H110196   2.497   2.881   3.635
 3420TIP3    H210197   2.345   2.894   3.641
 3421TIP3   OH210198   2.616   3.332   3.462
 3421TIP3    H110199   2.589   3.331   3.557
 3421TIP3    H210200   2.620   3.427   3.443
 3422TIP3   OH210201   2.310   3.470   2.039
 3422TIP3    H110202   2.277   3.450   1.950
 3422TIP3    H210203   2.394   3.515   2.017
 3423TIP3   OH210204   2.023   2.850   2.343
 3423TIP3    H110205   1.989   2.848   2.434
 3423TIP3    H210206   1.984   2.768   2.308
 3424TIP3   OH210207   1.818   3.315   3.389
 3424TIP3    H110208   1.766   3.334   3.470
 3424TIP3    H210209   1.801   3.397   3.337
 3425TIP3   OH210210   1.695   3.204   2.903
 3425TIP3    H110211   1.602   3.179   2.922
 3425TIP3    H210212   1.705   3.164   2.813
 3426TIP3   OH210213   2.183   3.288   2.630
 3426TIP3    H110214   2.133   3.360   2.587
 3426TIP3    H210215   2.240   3.257   2.557
 3427TIP3   OH210216   2.357   3.566   3.714
 3427TIP3    H110217   2.337   3.495   3.778
 3427TIP3    H210218   2.451   3.584   3.737
 3428TIP3   OH210219   2.337   3.318   2.868
 3428TIP3    H110220   2.279   3.349   2.795
 3428TIP3    H210221   2.374   3.239   2.823
 3429TIP3   OH210222   1.634   3.344   3.596
 3429TIP3    H110223   1.649   3.412   3.663
 3429TIP3    H210224   1.618   3.264   3.650
 3430TIP3   OH210225   1.681   2.824   2.309
 3430TIP3    H110226   1.668   2.824   2.406
 3430TIP3    H210227   1.604   2.877   2.281
 3431TIP3   OH210228   1.222   2.865   3.180
 3431TIP3    H110229   1.297   2.899   3.234
 3431TIP3    H210230   1.264   2.838   3.098
 3432TIP3   OH210231   1.190   2.850   2.698
 3432TIP3    H110232   1.232   2.889   2.618
 3432TIP3    H210233   1.127   2.922   2.720
 3433TIP3   OH210234   2.336   3.561   3.292
 3433TIP3    H110235   2.375   3.491   3.234
 3433TIP3    H210236   2.317   3.508   3.372
 3434TIP3   OH210237   2.033   3.031   2.985
 3434TIP3    H110238   1.946   3.010   3.027
 3434TIP3    H210239   2.046   3.122   3.019
 3435TIP3   OH210240   1.456   3.085   2.970
 3435TIP3    H110241   1.361   3.095   2.944
 3435TIP3    H210242   1.475   2.992   2.949
 3436TIP3   OH210243   1.723   3.078   2.662
 3436TIP3    H110244   1.815   3.094   2.634
 3436TIP3    H210245   1.671   3.100   2.580
 3437TIP3   OH210246   2.544   3.113   3.155
 3437TIP3    H110247   2.507   3.107   3.246
 3437TIP3    H210248   2.521   3.027   3.116
 3438TIP3   OH210249   1.573   3.111   2.440
 3438TIP3    H110250   1.501   3.066   2.391
 3438TIP3    H210251   1.623   3.149   2.365
 3439TIP3   OH210252   2.687   4.793   3.386
 3439TIP3    H110253   2.685   4.818   3.292
 3439TIP3    H210254   2.766   4.840   3.416
 3440TIP3   OH210255   1.642   3.902   3.804
 3440TIP3    H110256   1.721   3.928   3.855
 3440TIP3    H210257   1.577   3.892   3.876
 3441TIP3   OH210258   2.101   3.309   3.050
 3441TIP3    H110259   2.187   3.316   3.004
 3441TIP3    H210260   2.128   3.312   3.144
 3442TIP3   OH210261   1.628   2.838   2.946
 3442TIP3    H110262   1.589   2.762   2.996
 3442TIP3    H210263   1.661   2.794   2.867
 3443TIP3   OH210264   2.090   3.241   3.359
 3443TIP3    H110265   2.000   3.281   3.363
 3443TIP3    H210266   2.144   3.308   3.405
 3444TIP3   OH210267   1.817   3.640   2.445
 3444TIP3    H110268   1.744   3.575   2.434
 3444TIP3    H210269   1.798   3.675   2.536
 3445TIP3   OH210270   2.717   3.879   3.073
 3445TIP3    H110271   2.744   3.929   2.993
 3445TIP3    H210272   2.632   3.838   3.045
 3446TIP3   OH210273   2.277   2.949   2.319
 3446TIP3    H110274   2.180   2.934   2.323
 3446TIP3    H210275   2.286   3.045   2.338
 3447TIP3   OH210276   2.210   3.955   3.447
 3447TIP3    H110277   2.251   3.943   3.534
 3447TIP3    H210278   2.178   4.047   3.451
 3448TIP3   OH210279   2.343   3.203   2.416
 3448TIP3    H110280   2.440   3.208   2.429
 3448TIP3    H210281   2.325   3.282   2.362
 3449TIP3   OH210282   1.512   3.667   3.123
 3449TIP3    H110283   1.551   3.634   3.040
 3449TIP3    H210284   1.547   3.605   3.189
 3450TIP3   OH210285   1.964   3.790   2.270
 3450TIP3    H110286   1.915   3.876   2.274
 3450TIP3    H210287   1.910   3.735   2.331
 3451TIP3   OH210288   1.394   3.579   3.734
 3451TIP3    H110289   1.406   3.568   3.831
 3451TIP3    H210290   1.318   3.520   3.719
 3452TIP3   OH210291   2.118   3.703   3.754
 3452TIP3    H110292   2.057   3.638   3.715
 3452TIP3    H210293   2.205   3.668   3.727
 3453TIP3   OH210294   2.374   4.215   3.346
 3453TIP3    H110295   2.277   4.219   3.356
 3453TIP3    H210296   2.403   4.271   3.421
 3454TIP3   OH210297   2.782   3.296   2.250
 3454TIP3    H110298   2.721   3.251   2.187
 3454TIP3    H210299   2.780   3.385   2.208
 3455TIP3   OH210300   3.004   4.152   3.329
 3455TIP3    H110301   2.907   4.145   3.320
 3455TIP3    H210302   3.032   4.122   3.239
 3456TIP3   OH210303   2.484   4.113   2.157
 3456TIP3    H110304   2.463   4.040   2.217
 3456TIP3    H210305   2.501   4.067   2.072
 3457TIP3   OH210306   2.483   3.744   2.988
 3457TIP3    H110307   2.389   3.720   3.003
 3457TIP3    H210308   2.516   3.663   2.945
 3458TIP3   OH210309   1.614   3.969   2.747
 3458TIP3    H110310   1.613   4.050   2.693
 3458TIP3    H210311   1.520   3.954   2.761
 3459TIP3   OH210312   1.180   3.270   2.460
 3459TIP3    H110313   1.221   3.356   2.479
 3459TIP3    H210314   1.099   3.275   2.516
 3460TIP3   OH210315   1.743   3.730   2.690
 3460TIP3    H110316   1.712   3.821   2.708
 3460TIP3    H210317   1.707   3.682   2.766
 3461TIP3   OH210318   1.883   4.311   3.215
 3461TIP3    H110319   1.924   4.384   3.164
 3461TIP3    H210320   1.959   4.275   3.263
 3462TIP3   OH210321   1.528   4.209   2.598
 3462TIP3    H110322   1.443   4.218   2.646
 3462TIP3    H210323   1.562   4.301   2.604
 3463TIP3   OH210324   2.265   3.947   3.179
 3463TIP3    H110325   2.254   3.944   3.276
 3463TIP3    H210326   2.349   3.901   3.167
 3464TIP3   OH210327   2.246   3.840   2.061
 3464TIP3    H110328   2.300   3.816   2.140
 3464TIP3    H210329   2.158   3.813   2.091
 3465TIP3   OH210330   2.516   4.477   3.226
 3465TIP3    H110331   2.435   4.423   3.217
 3465TIP3    H210332   2.502   4.542   3.153
 3466TIP3   OH210333   2.582   4.312   1.877
 3466TIP3    H110334   2.621   4.384   1.826
 3466TIP3    H210335   2.502   4.358   1.911
 3467TIP3   OH210336   1.600   3.087   3.744
 3467TIP3    H110337   1.505   3.094   3.762
 3467TIP3    H210338   1.631   3.036   3.821
 3468TIP3   OH210339   2.406   3.774   2.277
 3468TIP3    H110340   2.397   3.705   2.346
 3468TIP3    H210341   2.503   3.771   2.262
 3469TIP3   OH210342   1.318   4.172   3.374
 3469TIP3    H110343   1.372   4.100   3.412
 3469TIP3    H210344   1.342   4.246   3.431
 3470TIP3   OH210345   1.607   3.819   2.060
 3470TIP3    H110346   1.621   3.727   2.032
 3470TIP3    H210347   1.587   3.808   2.154
 3471TIP3   OH210348   1.549   3.825   2.334
 3471TIP3    H110349   1.626   3.797   2.385
 3471TIP3    H210350   1.555   3.923   2.341
 3472TIP3   OH210351   1.289   3.517   2.535
 3472TIP3    H110352   1.221   3.561   2.591
 3472TIP3    H210353   1.302   3.586   2.467
 3473TIP3   OH210354   2.436   3.112   3.404
 3473TIP3    H110355   2.493   3.190   3.426
 3473TIP3    H210356   2.446   3.061   3.487
 3474TIP3   OH210357   2.321   2.902   2.597
 3474TIP3    H110358   2.307   2.922   2.502
 3474TIP3    H210359   2.362   2.986   2.629
 3475TIP3   OH210360   1.818   4.018   2.279
 3475TIP3    H110361   1.732   4.047   2.315
 3475TIP3    H210362   1.839   4.093   2.221
 3476TIP3   OH210363   2.012   3.083   2.697
 3476TIP3    H110364   2.073   3.155   2.669
 3476TIP3    H210365   2.017   3.089   2.794
 3477TIP3   OH210366   2.285   3.396   3.508
 3477TIP3    H110367   2.291   3.467   3.575
 3477TIP3    H210368   2.344   3.331   3.548
 3478TIP3   OH210369   2.147   2.810   2.798
 3478TIP3    H110370   2.131   2.892   2.849
 3478TIP3    H210371   2.210   2.843   2.730
 3479TIP3   OH210372   1.563   4.098   2.348
 3479TIP3    H110373   1.536   4.170   2.287
 3479TIP3    H210374   1.549   4.141   2.436
 3480TIP3   OH210375   1.663   2.811   2.586
 3480TIP3    H110376   1.659   2.902   2.622
 3480TIP3    H210377   1.760   2.796   2.592
 3481TIP3   OH210378   2.895   3.311   3.485
 3481TIP3    H110379   2.800   3.293   3.473
 3481TIP3    H210380   2.934   3.273   3.405
 3482TIP3   OH210381   2.567   3.498   2.871
 3482TIP3    H110382   2.494   3.435   2.880
 3482TIP3    H210383   2.641   3.453   2.918
 3483TIP3   OH210384   1.285   3.724   2.338
 3483TIP3    H110385   1.363   3.784   2.349
 3483TIP3    H210386   1.324   3.663   2.271
 3484TIP3   OH210387   1.223   2.998   2.470
 3484TIP3    H110388   1.223   3.096   2.471
 3484TIP3    H210389   1.137   2.980   2.429
 3485TIP3   OH210390   2.538   4.453   2.816
 3485TIP3    H110391   2.496   4.499   2.740
 3485TIP3    H210392   2.633   4.473   2.796
 3486TIP3   OH210393   1.619   2.721   3.342
 3486TIP3    H110394   1.585   2.687   3.257
 3486TIP3    H210395   1.606   2.644   3.401
 3487TIP3   OH210396   1.148   3.939   2.718
 3487TIP3    H110397   1.082   3.970   2.782
 3487TIP3    H210398   1.121   3.985   2.635
 3488TIP3   OH210399   1.310   4.486   3.797
 3488TIP3    H110400   1.398   4.484   3.842
 3488TIP3    H210401   1.289   4.391   3.795
 3489TIP3   OH210402   1.791   4.439   3.847
 3489TIP3    H110403   1.885   4.419   3.847
 3489TIP3    H210404   1.760   4.382   3.774
 3490TIP3   OH210405   1.770   4.022   1.968
 3490TIP3    H110406   1.717   3.949   2.007
 3490TIP3    H210407   1.846   3.973   1.932
 3491TIP3   OH210408   2.426   4.355   3.578
 3491TIP3    H110409   2.421   4.284   3.646
 3491TIP3    H210410   2.506   4.405   3.606
 3492TIP3   OH210411   2.205   4.061   1.882
 3492TIP3    H110412   2.251   3.999   1.942
 3492TIP3    H210413   2.262   4.059   1.802
 3493TIP3   OH210414   1.441   3.898   3.998
 3493TIP3    H110415   1.453   3.804   4.017
 3493TIP3    H210416   1.353   3.898   3.955
 3494TIP3   OH210417   1.418   3.537   2.195
 3494TIP3    H110418   1.475   3.505   2.267
 3494TIP3    H210419   1.484   3.541   2.122
 3495TIP3   OH210420   2.043   3.978   3.774
 3495TIP3    H110421   2.005   3.996   3.686
 3495TIP3    H210422   2.078   3.886   3.764
 3496TIP3   OH210423   1.930   3.737   2.001
 3496TIP3    H110424   1.933   3.750   2.098
 3496TIP3    H210425   1.931   3.639   1.996
 3497TIP3   OH210426   2.537   3.988   3.376
 3497TIP3    H110427   2.616   4.028   3.334
 3497TIP3    H210428   2.471   4.059   3.363
 3498TIP3   OH210429   1.571   3.631   3.975
 3498TIP3    H110430   1.641   3.565   3.962
 3498TIP3    H210431   1.591   3.660   4.067
 3499TIP3   OH210432   1.622   3.445   2.411
 3499TIP3    H110433   1.595   3.404   2.495
 3499TIP3    H210434   1.660   3.369   2.363
 3500TIP3   OH210435   1.900   3.510   3.639
 3500TIP3    H110436   1.819   3.566   3.641
 3500TIP3    H210437   1.946   3.544   3.559
 3501TIP3   OH210438   1.729   3.239   2.254
 3501TIP3    H110439   1.702   3.246   2.160
 3501TIP3    H210440   1.826   3.244   2.245
 3502TIP3   OH210441   2.410   3.908   3.772
 3502TIP3    H110442   2.493   3.883   3.731
 3502TIP3    H210443   2.406   3.848   3.849
 3503TIP3   OH210444   2.543   3.565   1.922
 3503TIP3    H110445   2.526   3.522   1.836
 3503TIP3    H210446   2.513   3.657   1.900
 3504TIP3   OH210447   2.018   3.299   3.767
 3504TIP3    H110448   2.014   3.220   3.712
 3504TIP3    H210449   1.974   3.367   3.711
 3505TIP3   OH210450   2.022   3.073   3.572
 3505TIP3    H110451   2.040   3.133   3.496
 3505TIP3    H210452   1.926   3.056   3.561
 3506TIP3   OH210453   2.048   3.613   3.437
 3506TIP3    H110454   2.134   3.641   3.402
 3506TIP3    H210455   1.988   3.680   3.399
 3507TIP3   OH210456   2.625   3.583   3.826
 3507TIP3    H110457   2.673   3.505   3.861
 3507TIP3    H210458   2.699   3.636   3.792
 3508TIP3   OH210459   2.668   3.837   3.559
 3508TIP3    H110460   2.611   3.894   3.503
 3508TIP3    H210461   2.757   3.860   3.523
 3509TIP3   OH210462   1.889   3.406   3.994
 3509TIP3    H110463   1.824   3.336   4.014
 3509TIP3    H210464   1.928   3.374   3.910
 3510TIP3   OH210465   2.148   2.835   3.630
 3510TIP3    H110466   2.099   2.920   3.620
 3510TIP3    H210467   2.073   2.770   3.628
 3511TIP3   OH210468   2.280   3.350   3.860
 3511TIP3    H110469   2.276   3.338   3.957
 3511TIP3    H210470   2.188   3.326   3.836
 3512TIP3   OH210471   2.505   3.286   3.705
 3512TIP3    H110472   2.437   3.299   3.775
 3512TIP3    H210473   2.584   3.263   3.760
 3513TIP3   OH210474   2.728   3.233   3.855
 3513TIP3    H110475   2.752   3.141   3.879
 3513TIP3    H210476   2.732   3.278   3.942
 3514TIP3   OH210477   1.735   3.183   4.054
 3514TIP3    H110478   1.742   3.090   4.025
 3514TIP3    H210479   1.771   3.176   4.145
 3515TIP3   OH210480   2.247   2.860   3.891
 3515TIP3    H110481   2.315   2.789   3.893
 3515TIP3    H210482   2.202   2.841   3.807
 3516TIP3   OH210483   2.309   3.070   4.060
 3516TIP3    H110484   2.287   3.002   3.993
 3516TIP3    H210485   2.231   3.130   4.056
 3517TIP3   OH210486   1.533   4.295   2.157
 3517TIP3    H110487   1.630   4.288   2.142
 3517TIP3    H210488   1.511   4.352   2.080
 3518TIP3   OH210489   1.015   3.685   2.372
 3518TIP3    H110490   1.110   3.703   2.359
 3518TIP3    H210491   1.007   3.595   2.334
 3519TIP3   OH210492   0.936   4.284   2.784
 3519TIP3    H110493   0.860   4.226   2.759
 3519TIP3    H210494   0.977   4.231   2.856
 3520TIP3   OH210495   1.064   4.138   2.978
 3520TIP3    H110496   1.056   4.068   3.046
 3520TIP3    H210497   1.117   4.203   3.029
 3521TIP3   OH210498   2.792   4.542   2.777
 3521TIP3    H110499   2.817   4.574   2.866
 3521TIP3    H210500   2.855   4.588   2.720
 3522TIP3   OH210501   2.819   4.561   3.059
 3522TIP3    H110502   2.777   4.472   3.055
 3522TIP3    H210503   2.895   4.541   3.116
 3523TIP3   OH210504   2.865   4.242   3.631
 3523TIP3    H110505   2.794   4.252   3.698
 3523TIP3    H210506   2.909   4.329   3.636
 3524TIP3   OH210507   2.683   3.754   2.250
 3524TIP3    H110508   2.750   3.819   2.219
 3524TIP3    H210509   2.730   3.716   2.328
 3525TIP3   OH210510   2.812   3.621   2.454
 3525TIP3    H110511   2.747   3.582   2.515
 3525TIP3    H210512   2.880   3.657   2.515
 3526TIP3   OH210513   2.866   4.014   2.885
 3526TIP3    H110514   2.921   3.948   2.839
 3526TIP3    H210515   2.865   4.089   2.821
 3527TIP3   OH210516   2.694   4.312   3.081
 3527TIP3    H110517   2.622   4.356   3.132
 3527TIP3    H210518   2.644   4.266   3.010
 3528TIP3   OH210519   2.748   3.529   2.101
 3528TIP3    H110520   2.676   3.532   2.034
 3528TIP3    H210521   2.722   3.607   2.156
 3529TIP3   OH210522   2.616   3.203   2.057
 3529TIP3    H110523   2.577   3.241   1.977
 3529TIP3    H210524   2.594   3.108   2.045
 3530TIP3   OH210525   2.621   3.481   2.600
 3530TIP3    H110526   2.635   3.385   2.594
 3530TIP3    H210527   2.609   3.496   2.696
 3531TIP3   OH210528   1.250   3.555   3.347
 3531TIP3    H110529   1.246   3.520   3.256
 3531TIP3    H210530   1.347   3.554   3.363
 3532TIP3   OH210531   2.913   3.904   3.457
 3532TIP3    H110532   2.985   3.837   3.449
 3532TIP3    H210533   2.943   3.974   3.397
 3533TIP3   OH210534   3.096   3.708   3.467
 3533TIP3    H110535   3.025   3.655   3.510
 3533TIP3    H210536   3.172   3.648   3.481
 3534TIP3   OH210537   2.564   2.936   2.039
 3534TIP3    H110538   2.640   2.905   2.093
 3534TIP3    H210539   2.493   2.873   2.061
 3535TIP3   OH210540   2.620   3.196   2.493
 3535TIP3    H110541   2.663   3.108   2.507
 3535TIP3    H210542   2.678   3.231   2.422
 3536TIP3   OH210543   2.779   3.367   2.989
 3536TIP3    H110544   2.865   3.391   2.947
 3536TIP3    H210545   2.796   3.405   3.078
 3537TIP3   OH210546   2.848   3.513   3.220
 3537TIP3    H110547   2.775   3.551   3.272
 3537TIP3    H210548   2.884   3.592   3.175
 3538TIP3   OH210549   1.469   3.233   4.008
 3538TIP3    H110550   1.566   3.231   4.022
 3538TIP3    H210551   1.443   3.151   4.055
 3539TIP3   OH210552   3.269   3.069   3.756
 3539TIP3    H110553   3.357   3.027   3.741
 3539TIP3    H210554   3.293   3.163   3.748
 3540TIP3   OH210555   2.729   2.946   2.534
 3540TIP3    H110556   2.779   2.929   2.617
 3540TIP3    H210557   2.670   2.869   2.532
 3541TIP3   OH210558   1.433   2.929   3.346
 3541TIP3    H110559   1.496   2.855   3.360
 3541TIP3    H210560   1.493   3.005   3.343
 3542TIP3   OH210561   1.230   3.200   3.427
 3542TIP3    H110562   1.281   3.204   3.344
 3542TIP3    H210563   1.250   3.286   3.467
 3543TIP3   OH210564   3.170   3.264   3.565
 3543TIP3    H110565   3.088   3.287   3.612
 3543TIP3    H210566   3.154   3.170   3.543
 3544TIP3   OH210567   2.807   2.877   2.168
 3544TIP3    H110568   2.850   2.809   2.112
 3544TIP3    H210569   2.872   2.950   2.166
 3545TIP3   OH210570   1.217   2.704   2.925
 3545TIP3    H110571   1.124   2.701   2.954
 3545TIP3    H210572   1.211   2.764   2.848
 3546TIP3   OH210573   2.370   4.412   2.431
 3546TIP3    H110574   2.426   4.402   2.351
 3546TIP3    H210575   2.421   4.476   2.484
 3547TIP3   OH210576   1.435   2.778   3.738
 3547TIP3    H110577   1.390   2.784   3.823
 3547TIP3    H210578   1.370   2.823   3.680
 3548TIP3   OH210579   1.473   4.220   3.816
 3548TIP3    H110580   1.381   4.192   3.797
 3548TIP3    H210581   1.485   4.187   3.906
 3549TIP3   OH210582   1.657   4.251   3.366
 3549TIP3    H110583   1.609   4.327   3.327
 3549TIP3    H210584   1.743   4.264   3.320
 3550TIP3   OH210585   2.095   4.493   3.502
 3550TIP3    H110586   2.138   4.491   3.591
 3550TIP3    H210587   2.162   4.544   3.451
 3551TIP3   OH210588   2.276   4.646   3.365
 3551TIP3    H110589   2.347   4.597   3.320
 3551TIP3    H210590   2.328   4.704   3.425
 3552TIP3   OH210591   3.071   3.006   3.464
 3552TIP3    H110592   2.983   2.996   3.423
 3552TIP3    H210593   3.109   2.915   3.452
 3553TIP3   OH210594   1.329   4.505   3.389
 3553TIP3    H110595   1.239   4.538   3.368
 3553TIP3    H210596   1.343   4.549   3.474
 3554TIP3   OH210597   1.566   4.484   3.249
 3554TIP3    H110598   1.478   4.496   3.292
 3554TIP3    H210599   1.547   4.516   3.159
 3555TIP3   OH210600   1.991   4.511   3.047
 3555TIP3    H110601   1.923   4.531   2.980
 3555TIP3    H210602   2.005   4.599   3.088
 3556TIP3   OH210603   2.262   4.448   3.099
 3556TIP3    H110604   2.168   4.469   3.079
 3556TIP3    H210605   2.309   4.520   3.055
 3557TIP3   OH210606   2.460   4.634   3.009
 3557TIP3    H110607   2.452   4.721   2.963
 3557TIP3    H210608   2.492   4.577   2.936
 3558TIP3   OH210609   1.241   4.297   3.133
 3558TIP3    H110610   1.267   4.268   3.223
 3558TIP3    H210611   1.314   4.255   3.082
 3559TIP3   OH210612   1.438   4.172   2.992
 3559TIP3    H110613   1.451   4.088   3.042
 3559TIP3    H210614   1.530   4.207   2.992
 3560TIP3   OH210615   1.704   4.263   2.999
 3560TIP3    H110616   1.734   4.170   2.990
 3560TIP3    H210617   1.752   4.287   3.080
 3561TIP3   OH210618   2.800   2.797   2.985
 3561TIP3    H110619   2.838   2.849   2.910
 3561TIP3    H210620   2.705   2.819   2.980
 3562TIP3   OH210621   2.894   2.899   2.750
 3562TIP3    H110622   2.968   2.846   2.713
 3562TIP3    H210623   2.930   2.989   2.735
 3563TIP3   OH210624   1.525   2.628   3.095
 3563TIP3    H110625   1.433   2.596   3.098
 3563TIP3    H210626   1.574   2.543   3.092
 3564TIP3   OH210627   1.321   2.499   2.750
 3564TIP3    H110628   1.343   2.556   2.674
 3564TIP3    H210629   1.286   2.564   2.814
 3565TIP3   OH210630   1.967   2.653   2.971
 3565TIP3    H110631   2.030   2.707   2.920
 3565TIP3    H210632   1.962   2.700   3.055
 3566TIP3   OH210633   2.522   2.823   2.982
 3566TIP3    H110634   2.506   2.796   2.891
 3566TIP3    H210635   2.501   2.741   3.031
 3567TIP3   OH210636   2.547   2.733   2.525
 3567TIP3    H110637   2.461   2.776   2.541
 3567TIP3    H210638   2.532   2.647   2.570
 3568TIP3   OH210639   1.031   4.082   2.515
 3568TIP3    H110640   0.947   4.039   2.490
 3568TIP3    H210641   1.000   4.158   2.566
 3569TIP3   OH210642   1.431   2.656   2.510
 3569TIP3    H110643   1.480   2.596   2.451
 3569TIP3    H210644   1.504   2.711   2.546
 3570TIP3   OH210645   1.940   2.835   2.606
 3570TIP3    H110646   1.999   2.786   2.666
 3570TIP3    H210647   1.963   2.927   2.633
 3571TIP3   OH210648   1.801   4.255   2.109
 3571TIP3    H110649   1.889   4.279   2.072
 3571TIP3    H210650   1.780   4.180   2.049
 3572TIP3   OH210651   2.521   4.379   2.202
 3572TIP3    H110652   2.512   4.281   2.189
 3572TIP3    H210653   2.477   4.411   2.120
 3573TIP3   OH210654   1.734   2.906   3.984
 3573TIP3    H110655   1.697   2.840   4.044
 3573TIP3    H210656   1.828   2.907   4.014
 3574TIP3   OH210657   1.981   2.904   4.106
 3574TIP3    H110658   2.071   2.883   4.076
 3574TIP3    H210659   1.967   2.835   4.174
 3575TIP3   OH210660   1.106   4.125   2.203
 3575TIP3    H110661   1.112   4.104   2.299
 3575TIP3    H210662   1.182   4.070   2.169
 3576TIP3   OH210663   2.802   2.969   3.898
 3576TIP3    H110664   2.826   2.940   3.989
 3576TIP3    H210665   2.890   2.966   3.853
 3577TIP3   OH210666   2.744   4.522   3.388
 3577TIP3    H110667   2.666   4.491   3.337
 3577TIP3    H210668   2.726   4.618   3.392
 3578TIP3   OH210669   4.014   3.895   2.150
 3578TIP3    H110670   3.983   3.985   2.128
 3578TIP3    H210671   3.938   3.843   2.117
 3579TIP3   OH210672   4.012   3.896   2.540
 3579TIP3    H110673   4.048   3.871   2.627
 3579TIP3    H210674   3.972   3.813   2.510
 3580TIP3   OH210675   3.308   3.785   2.905
 3580TIP3    H110676   3.339   3.717   2.968
 3580TIP3    H210677   3.388   3.839   2.896
 3581TIP3   OH210678   4.259   4.197   2.219
 3581TIP3    H110679   4.243   4.129   2.285
 3581TIP3    H210680   4.289   4.272   2.274
 3582TIP3   OH210681   3.285   4.198   2.622
 3582TIP3    H110682   3.275   4.100   2.623
 3582TIP3    H210683   3.382   4.206   2.615
 3583TIP3   OH210684   2.988   3.396   2.406
 3583TIP3    H110685   2.945   3.481   2.424
 3583TIP3    H210686   2.916   3.349   2.360
 3584TIP3   OH210687   3.047   3.688   2.584
 3584TIP3    H110688   3.098   3.611   2.619
 3584TIP3    H210689   3.112   3.730   2.526
 3585TIP3   OH210690   3.911   4.659   2.236
 3585TIP3    H110691   3.951   4.588   2.181
 3585TIP3    H210692   3.901   4.614   2.321
 3586TIP3   OH210693   3.810   4.121   2.583
 3586TIP3    H110694   3.851   4.044   2.541
 3586TIP3    H210695   3.893   4.168   2.608
 3587TIP3   OH210696   4.827   3.440   2.582
 3587TIP3    H110697   4.856   3.523   2.626
 3587TIP3    H210698   4.848   3.459   2.489
 3588TIP3   OH210699   4.223   3.621   2.612
 3588TIP3    H110700   4.266   3.536   2.634
 3588TIP3    H210701   4.191   3.602   2.522
 3589TIP3   OH210702   3.563   3.281   2.580
 3589TIP3    H110703   3.545   3.354   2.517
 3589TIP3    H210704   3.514   3.208   2.536
 3590TIP3   OH210705   4.258   3.372   2.200
 3590TIP3    H110706   4.330   3.358   2.266
 3590TIP3    H210707   4.311   3.407   2.125
 3591TIP3   OH210708   3.195   3.482   2.688
 3591TIP3    H110709   3.279   3.464   2.736
 3591TIP3    H210710   3.210   3.428   2.607
 3592TIP3   OH210711   3.635   3.680   2.485
 3592TIP3    H110712   3.730   3.656   2.496
 3592TIP3    H210713   3.598   3.596   2.451
 3593TIP3   OH210714   4.900   3.649   2.751
 3593TIP3    H110715   4.814   3.694   2.738
 3593TIP3    H210716   4.928   3.686   2.837
 3594TIP3   OH210717   3.558   3.262   3.014
 3594TIP3    H110718   3.499   3.301   2.947
 3594TIP3    H210719   3.507   3.279   3.096
 3595TIP3   OH210720   3.898   4.113   2.022
 3595TIP3    H110721   3.863   4.100   1.933
 3595TIP3    H210722   3.853   4.196   2.049
 3596TIP3   OH210723   3.664   4.040   2.805
 3596TIP3    H110724   3.604   4.109   2.841
 3596TIP3    H210725   3.709   4.088   2.732
 3597TIP3   OH210726   4.462   3.378   2.379
 3597TIP3    H110727   4.449   3.335   2.464
 3597TIP3    H210728   4.515   3.456   2.404
 3598TIP3   OH210729   3.429   3.379   2.798
 3598TIP3    H110730   3.490   3.452   2.822
 3598TIP3    H210731   3.480   3.339   2.724
 3599TIP3   OH210732   3.494   4.237   2.906
 3599TIP3    H110733   3.468   4.324   2.870
 3599TIP3    H210734   3.416   4.219   2.962
 3600TIP3   OH210735   2.883   3.925   2.143
 3600TIP3    H110736   2.846   3.952   2.056
 3600TIP3    H210737   2.916   4.011   2.177
 3601TIP3   OH210738   4.325   4.442   2.383
 3601TIP3    H110739   4.235   4.433   2.422
 3601TIP3    H210740   4.316   4.528   2.337
 3602TIP3   OH210741   4.620   3.336   2.745
 3602TIP3    H110742   4.533   3.368   2.715
 3602TIP3    H210743   4.680   3.370   2.676
 3603TIP3   OH210744   3.909   2.979   2.726
 3603TIP3    H110745   3.897   2.885   2.749
 3603TIP3    H210746   3.833   3.019   2.776
 3604TIP3   OH210747   4.022   4.487   2.052
 3604TIP3    H110748   4.073   4.404   2.034
 3604TIP3    H210749   4.085   4.552   2.013
 3605TIP3   OH210750   4.167   4.271   1.969
 3605TIP3    H110751   4.139   4.189   1.925
 3605TIP3    H210752   4.205   4.236   2.052
 3606TIP3   OH210753   4.550   4.352   2.726
 3606TIP3    H110754   4.539   4.274   2.667
 3606TIP3    H210755   4.534   4.426   2.663
 3607TIP3   OH210756   3.843   3.746   1.986
 3607TIP3    H110757   3.764   3.799   1.964
 3607TIP3    H210758   3.890   3.744   1.900
 3608TIP3   OH210759   3.802   3.531   1.699
 3608TIP3    H110760   3.869   3.583   1.747
 3608TIP3    H210761   3.860   3.469   1.651
 3609TIP3   OH210762   4.746   3.990   2.572
 3609TIP3    H110763   4.662   4.041   2.577
 3609TIP3    H210764   4.777   4.014   2.482
 3610TIP3   OH210765   4.192   3.829   1.954
 3610TIP3    H110766   4.137   3.853   2.032
 3610TIP3    H210767   4.276   3.804   1.998
 3611TIP3   OH210768   4.426   3.865   2.873
 3611TIP3    H110769   4.424   3.948   2.926
 3611TIP3    H210770   4.340   3.872   2.827
 3612TIP3   OH210771   3.423   3.825   2.375
 3612TIP3    H110772   3.384   3.766   2.306
 3612TIP3    H210773   3.501   3.772   2.404
 3613TIP3   OH210774   3.553   4.238   2.520
 3613TIP3    H110775   3.534   4.203   2.431
 3613TIP3    H210776   3.642   4.202   2.538
 3614TIP3   OH210777   3.553   3.799   2.726
 3614TIP3    H110778   3.591   3.773   2.639
 3614TIP3    H210779   3.601   3.883   2.745
 3615TIP3   OH210780   4.084   4.436   2.505
 3615TIP3    H110781   4.072   4.514   2.562
 3615TIP3    H210782   4.070   4.361   2.567
 3616TIP3   OH210783   3.699   4.355   3.050
 3616TIP3    H110784   3.638   4.416   3.097
 3616TIP3    H210785   3.634   4.301   3.000
 3617TIP3   OH210786   4.029   3.687   1.783
 3617TIP3    H110787   4.090   3.747   1.833
 3617TIP3    H210788   4.055   3.708   1.690
 3618TIP3   OH210789   3.454   3.911   3.153
 3618TIP3    H110790   3.459   3.998   3.198
 3618TIP3    H210791   3.360   3.889   3.167
 3619TIP3   OH210792   3.776   4.364   2.060
 3619TIP3    H110793   3.859   4.415   2.066
 3619TIP3    H210794   3.718   4.424   2.013
 3620TIP3   OH210795   3.491   4.521   3.139
 3620TIP3    H110796   3.457   4.521   3.047
 3620TIP3    H210797   3.410   4.500   3.191
 3621TIP3   OH210798   4.546   2.925   1.830
 3621TIP3    H110799   4.465   2.947   1.881
 3621TIP3    H210800   4.560   3.008   1.780
 3622TIP3   OH210801   3.291   3.669   2.177
 3622TIP3    H110802   3.223   3.714   2.122
 3622TIP3    H210803   3.253   3.581   2.187
 3623TIP3   OH210804   4.348   4.293   1.383
 3623TIP3    H110805   4.355   4.389   1.365
 3623TIP3    H210806   4.441   4.264   1.368
 3624TIP3   OH210807   3.070   4.054   3.086
 3624TIP3    H110808   3.006   4.029   3.016
 3624TIP3    H210809   3.110   3.967   3.110
 3625TIP3   OH210810   2.926   4.244   2.719
 3625TIP3    H110811   3.022   4.239   2.708
 3625TIP3    H210812   2.917   4.324   2.773
 3626TIP3   OH210813   4.787   4.699   2.773
 3626TIP3    H110814   4.788   4.602   2.789
 3626TIP3    H210815   4.704   4.722   2.820
 3627TIP3   OH210816   3.894   4.484   2.908
 3627TIP3    H110817   3.891   4.576   2.941
 3627TIP3    H210818   3.823   4.442   2.961
 3628TIP3   OH210819   3.659   4.608   1.861
 3628TIP3    H110820   3.613   4.588   1.777
 3628TIP3    H210821   3.624   4.697   1.884
 3629TIP3   OH210822   3.094   4.460   2.247
 3629TIP3    H110823   3.142   4.450   2.332
 3629TIP3    H210824   3.043   4.377   2.245
 3630TIP3   OH210825   3.858   4.514   1.499
 3630TIP3    H110826   3.915   4.443   1.462
 3630TIP3    H210827   3.894   4.522   1.590
 3631TIP3   OH210828   3.911   4.563   1.769
 3631TIP3    H110829   3.822   4.571   1.810
 3631TIP3    H210830   3.961   4.522   1.841
 3632TIP3   OH210831   4.681   3.827   3.048
 3632TIP3    H110832   4.597   3.835   3.001
 3632TIP3    H210833   4.698   3.731   3.042
 3633TIP3   OH210834   3.276   4.237   3.071
 3633TIP3    H110835   3.326   4.219   3.153
 3633TIP3    H210836   3.202   4.173   3.079
 3634TIP3   OH210837   3.673   3.058   2.861
 3634TIP3    H110838   3.584   3.030   2.833
 3634TIP3    H210839   3.649   3.139   2.909
 3635TIP3   OH210840   4.211   3.172   3.053
 3635TIP3    H110841   4.280   3.146   3.118
 3635TIP3    H210842   4.128   3.154   3.103
 3636TIP3   OH210843   4.443   3.601   2.970
 3636TIP3    H110844   4.396   3.599   3.056
 3636TIP3    H210845   4.422   3.690   2.936
 3637TIP3   OH210846   4.110   3.729   1.529
 3637TIP3    H110847   4.073   3.707   1.442
 3637TIP3    H210848   4.193   3.774   1.503
 3638TIP3   OH210849   3.818   3.106   1.830
 3638TIP3    H110850   3.785   3.103   1.922
 3638TIP3    H210851   3.780   3.023   1.796
 3639TIP3   OH210852   3.604   3.576   2.875
 3639TIP3    H110853   3.559   3.597   2.959
 3639TIP3    H210854   3.588   3.658   2.823
 3640TIP3   OH210855   3.491   3.461   2.390
 3640TIP3    H110856   3.398   3.435   2.409
 3640TIP3    H210857   3.503   3.420   2.302
 3641TIP3   OH210858   3.979   3.545   2.119
 3641TIP3    H110859   3.929   3.617   2.075
 3641TIP3    H210860   4.036   3.512   2.046
 3642TIP3   OH210861   4.155   3.822   3.203
 3642TIP3    H110862   4.132   3.750   3.266
 3642TIP3    H210863   4.249   3.836   3.227
 3643TIP3   OH210864   4.136   3.572   2.356
 3643TIP3    H110865   4.074   3.600   2.285
 3643TIP3    H210866   4.172   3.492   2.311
 3644TIP3   OH210867   3.424   3.602   3.088
 3644TIP3    H110868   3.465   3.662   3.152
 3644TIP3    H210869   3.416   3.520   3.139
 3645TIP3   OH210870   3.474   3.080   1.795
 3645TIP3    H110871   3.465   3.081   1.893
 3645TIP3    H210872   3.399   3.135   1.769
 3646TIP3   OH210873   3.020   3.120   2.669
 3646TIP3    H110874   3.091   3.157   2.725
 3646TIP3    H210875   3.067   3.099   2.587
 3647TIP3   OH210876   2.981   3.104   2.185
 3647TIP3    H110877   3.026   3.142   2.106
 3647TIP3    H210878   2.923   3.179   2.207
 3648TIP3   OH210879   4.145   3.819   2.777
 3648TIP3    H110880   4.180   3.748   2.718
 3648TIP3    H210881   4.118   3.765   2.854
 3649TIP3   OH210882   3.821   3.282   2.451
 3649TIP3    H110883   3.742   3.281   2.509
 3649TIP3    H210884   3.894   3.274   2.515
 3650TIP3   OH210885   3.252   3.340   2.459
 3650TIP3    H110886   3.158   3.345   2.430
 3650TIP3    H210887   3.279   3.249   2.434
 3651TIP3   OH210888   3.517   3.332   2.150
 3651TIP3    H110889   3.611   3.349   2.131
 3651TIP3    H210890   3.472   3.356   2.065
 3652TIP3   OH210891   4.312   3.359   2.653
 3652TIP3    H110892   4.280   3.372   2.746
 3652TIP3    H210893   4.243   3.299   2.619
 3653TIP3   OH210894   3.367   3.368   1.923
 3653TIP3    H110895   3.299   3.323   1.870
 3653TIP3    H210896   3.421   3.409   1.852
 3654TIP3   OH210897   4.483   5.049   2.875
 3654TIP3    H110898   4.481   5.071   2.780
 3654TIP3    H210899   4.564   5.094   2.904
 3655TIP3   OH210900   3.437   4.160   3.293
 3655TIP3    H110901   3.518   4.186   3.341
 3655TIP3    H210902   3.373   4.156   3.367
 3656TIP3   OH210903   3.900   3.613   2.549
 3656TIP3    H110904   3.974   3.574   2.500
 3656TIP3    H210905   3.907   3.569   2.636
 3657TIP3   OH210906   3.416   3.099   2.431
 3657TIP3    H110907   3.384   3.020   2.479
 3657TIP3    H210908   3.470   3.060   2.360
 3658TIP3   OH210909   3.876   3.512   2.837
 3658TIP3    H110910   3.787   3.548   2.854
 3658TIP3    H210911   3.934   3.572   2.889
 3659TIP3   OH210912   3.612   3.897   1.932
 3659TIP3    H110913   3.539   3.833   1.920
 3659TIP3    H210914   3.593   3.931   2.023
 3660TIP3   OH210915   4.512   4.135   2.560
 3660TIP3    H110916   4.537   4.185   2.479
 3660TIP3    H210917   4.427   4.093   2.533
 3661TIP3   OH210918   4.071   3.208   1.802
 3661TIP3    H110919   3.974   3.191   1.809
 3661TIP3    H210920   4.079   3.303   1.824
 3662TIP3   OH210921   4.011   4.216   2.931
 3662TIP3    H110922   4.045   4.196   3.020
 3662TIP3    H210923   3.974   4.305   2.941
 3663TIP3   OH210924   4.139   3.458   1.902
 3663TIP3    H110925   4.236   3.465   1.916
 3663TIP3    H210926   4.120   3.538   1.849
 3664TIP3   OH210927   3.304   3.917   2.608
 3664TIP3    H110928   3.344   3.892   2.522
 3664TIP3    H210929   3.356   3.864   2.670
 3665TIP3   OH210930   3.762   4.048   1.761
 3665TIP3    H110931   3.712   4.134   1.764
 3665TIP3    H210932   3.706   3.992   1.819
 3666TIP3   OH210933   3.189   3.844   3.224
 3666TIP3    H110934   3.215   3.833   3.318
 3666TIP3    H210935   3.125   3.772   3.213
 3667TIP3   OH210936   3.916   3.960   3.240
 3667TIP3    H110937   3.857   3.897   3.195
 3667TIP3    H210938   4.004   3.924   3.215
 3668TIP3   OH210939   4.171   4.481   2.827
 3668TIP3    H110940   4.075   4.477   2.840
 3668TIP3    H210941   4.199   4.531   2.907
 3669TIP3   OH210942   4.581   3.551   1.735
 3669TIP3    H110943   4.519   3.507   1.672
 3669TIP3    H210944   4.577   3.641   1.695
 3670TIP3   OH210945   4.800   4.409   2.814
 3670TIP3    H110946   4.702   4.401   2.806
 3670TIP3    H210947   4.827   4.378   2.725
 3671TIP3   OH210948   4.287   4.368   1.646
 3671TIP3    H110949   4.257   4.296   1.703
 3671TIP3    H210950   4.298   4.324   1.560
 3672TIP3   OH210951   4.278   3.999   2.475
 3672TIP3    H110952   4.185   3.973   2.490
 3672TIP3    H210953   4.312   3.917   2.433
 3673TIP3   OH210954   3.410   4.227   2.238
 3673TIP3    H110955   3.410   4.307   2.181
 3673TIP3    H210956   3.316   4.208   2.244
 3674TIP3   OH210957   2.974   3.528   1.941
 3674TIP3    H110958   3.019   3.613   1.961
 3674TIP3    H210959   2.896   3.534   2.001
 3675TIP3   OH210960   3.539   3.988   2.177
 3675TIP3    H110961   3.508   4.079   2.196
 3675TIP3    H210962   3.504   3.939   2.253
 3676TIP3   OH210963   3.678   4.567   2.703
 3676TIP3    H110964   3.721   4.639   2.652
 3676TIP3    H210965   3.755   4.530   2.750
 3677TIP3   OH210966   3.325   4.465   2.086
 3677TIP3    H110967   3.240   4.474   2.133
 3677TIP3    H210968   3.358   4.558   2.090
 3678TIP3   OH210969   4.063   4.205   2.663
 3678TIP3    H110970   4.051   4.202   2.761
 3678TIP3    H210971   4.141   4.150   2.651
 3679TIP3   OH210972   4.043   4.099   1.546
 3679TIP3    H110973   4.094   4.073   1.626
 3679TIP3    H210974   3.954   4.068   1.570
 3680TIP3   OH210975   4.312   4.735   2.714
 3680TIP3    H110976   4.234   4.677   2.709
 3680TIP3    H210977   4.295   4.797   2.640
 3681TIP3   OH210978   4.378   4.568   1.364
 3681TIP3    H110979   4.412   4.637   1.305
 3681TIP3    H210980   4.299   4.614   1.399
 3682TIP3   OH210981   3.402   3.343   3.231
 3682TIP3    H110982   3.307   3.345   3.251
 3682TIP3    H210983   3.437   3.293   3.307
 3683TIP3   OH210984   4.202   4.033   1.764
 3683TIP3    H110985   4.192   3.964   1.833
 3683TIP3    H210986   4.299   4.028   1.749
 3684TIP3   OH210987   3.115   4.430   2.861
 3684TIP3    H110988   3.170   4.358   2.897
 3684TIP3    H210989   3.142   4.504   2.916
 3685TIP3   OH210990   3.404   4.079   1.548
 3685TIP3    H110991   3.414   3.988   1.514
 3685TIP3    H210992   3.382   4.062   1.642
 3686TIP3   OH210993   3.346   4.081   1.822
 3686TIP3    H110994   3.425   4.055   1.872
 3686TIP3    H210995   3.351   4.179   1.826
 3687TIP3   OH210996   3.082   3.772   2.022
 3687TIP3    H110997   3.016   3.819   2.078
 3687TIP3    H210998   3.098   3.840   1.954
 3688TIP3   OH210999   4.238   3.408   2.912
 3688TIP3    H111000   4.317   3.450   2.952
 3688TIP3    H211001   4.226   3.328   2.968
 3689TIP3   OH211002   4.117   3.158   2.082
 3689TIP3    H111003   4.104   3.181   1.988
 3689TIP3    H211004   4.158   3.240   2.117
 3690TIP3   OH211005   3.617   4.276   1.769
 3690TIP3    H111006   3.529   4.305   1.802
 3690TIP3    H211007   3.630   4.341   1.698
 3691TIP3   OH211008   3.798   3.344   2.181
 3691TIP3    H111009   3.864   3.414   2.163
 3691TIP3    H211010   3.808   3.334   2.278
 3692TIP3   OH211011   4.075   3.657   2.987
 3692TIP3    H111012   4.099   3.711   3.066
 3692TIP3    H211013   4.129   3.577   3.000
 3693TIP3   OH211014   3.947   3.061   2.279
 3693TIP3    H111015   3.945   3.136   2.342
 3693TIP3    H211016   4.009   3.096   2.211
 3694TIP3   OH211017   3.361   4.354   1.835
 3694TIP3    H111018   3.333   4.424   1.772
 3694TIP3    H211019   3.346   4.397   1.921
 3695TIP3   OH211020   3.460   3.067   2.072
 3695TIP3    H111021   3.457   3.158   2.109
 3695TIP3    H211022   3.556   3.051   2.079
 3696TIP3   OH211023   4.711   3.559   2.970
 3696TIP3    H111024   4.613   3.557   2.976
 3696TIP3    H211025   4.724   3.518   2.884
 3697TIP3   OH211026   4.364   3.754   2.357
 3697TIP3    H111027   4.288   3.694   2.369
 3697TIP3    H211028   4.435   3.707   2.405
 3698TIP3   OH211029   3.079   3.979   1.826
 3698TIP3    H111030   3.151   4.044   1.835
 3698TIP3    H211031   3.120   3.920   1.759
 3699TIP3   OH211032   3.018   3.257   1.962
 3699TIP3    H111033   3.025   3.354   1.960
 3699TIP3    H211034   2.941   3.242   1.906
 3700TIP3   OH211035   4.333   4.714   2.304
 3700TIP3    H111036   4.291   4.762   2.230
 3700TIP3    H211037   4.428   4.732   2.284
 3701TIP3   OH211038   3.407   2.979   2.832
 3701TIP3    H111039   3.379   2.944   2.744
 3701TIP3    H211040   3.398   2.900   2.889
 3702TIP3   OH211041   2.945   4.195   2.210
 3702TIP3    H111042   2.881   4.227   2.275
 3702TIP3    H211043   2.913   4.240   2.128
 3703TIP3   OH211044   3.108   4.745   3.286
 3703TIP3    H111045   3.195   4.745   3.332
 3703TIP3    H211046   3.089   4.650   3.283
 3704TIP3   OH211047   3.585   4.701   3.328
 3704TIP3    H111048   3.679   4.679   3.337
 3704TIP3    H211049   3.559   4.640   3.256
 3705TIP3   OH211050   3.570   4.281   1.459
 3705TIP3    H111051   3.516   4.205   1.493
 3705TIP3    H211052   3.641   4.233   1.412
 3706TIP3   OH211053   4.223   4.612   3.064
 3706TIP3    H111054   4.217   4.540   3.131
 3706TIP3    H211055   4.302   4.661   3.094
 3707TIP3   OH211056   4.003   4.319   1.370
 3707TIP3    H111057   4.045   4.252   1.428
 3707TIP3    H211058   4.058   4.315   1.289
 3708TIP3   OH211059   3.236   4.149   3.486
 3708TIP3    H111060   3.254   4.053   3.493
 3708TIP3    H211061   3.149   4.148   3.440
 3709TIP3   OH211062   3.213   3.792   1.681
 3709TIP3    H111063   3.273   3.764   1.752
 3709TIP3    H211064   3.277   3.797   1.606
 3710TIP3   OH211065   3.842   4.234   3.259
 3710TIP3    H111066   3.803   4.251   3.172
 3710TIP3    H211067   3.876   4.142   3.250
 3711TIP3   OH211068   3.733   3.994   1.491
 3711TIP3    H111069   3.732   4.007   1.588
 3711TIP3    H211070   3.731   3.896   1.485
 3712TIP3   OH211071   4.335   4.245   2.866
 3712TIP3    H111072   4.412   4.287   2.822
 3712TIP3    H211073   4.266   4.312   2.849
 3713TIP3   OH211074   3.357   3.882   3.464
 3713TIP3    H111075   3.431   3.824   3.444
 3713TIP3    H211076   3.382   3.913   3.554
 3714TIP3   OH211077   3.417   3.702   1.897
 3714TIP3    H111078   3.395   3.659   1.981
 3714TIP3    H211079   3.457   3.628   1.846
 3715TIP3   OH211080   3.685   3.759   3.123
 3715TIP3    H111081   3.612   3.824   3.128
 3715TIP3    H211082   3.739   3.796   3.049
 3716TIP3   OH211083   3.525   3.497   1.742
 3716TIP3    H111084   3.498   3.502   1.647
 3716TIP3    H211085   3.623   3.501   1.733
 3717TIP3   OH211086   4.208   4.167   3.260
 3717TIP3    H111087   4.288   4.136   3.216
 3717TIP3    H211088   4.203   4.105   3.335
 3718TIP3   OH211089   4.343   3.823   1.408
 3718TIP3    H111090   4.322   3.779   1.323
 3718TIP3    H211091   4.311   3.913   1.386
 3719TIP3   OH211092   3.814   3.555   3.253
 3719TIP3    H111093   3.816   3.474   3.197
 3719TIP3    H211094   3.769   3.620   3.195
 3720TIP3   OH211095   3.817   3.340   3.061
 3720TIP3    H111096   3.845   3.381   2.977
 3720TIP3    H211097   3.724   3.317   3.042
 3721TIP3   OH211098   3.839   3.873   2.935
 3721TIP3    H111099   3.926   3.885   2.894
 3721TIP3    H211100   3.785   3.940   2.888
 3722TIP3   OH211101   4.422   3.839   3.313
 3722TIP3    H111102   4.469   3.756   3.328
 3722TIP3    H211103   4.494   3.897   3.284
 3723TIP3   OH211104   4.465   4.096   3.051
 3723TIP3    H111105   4.408   4.151   2.993
 3723TIP3    H211106   4.553   4.115   3.012
 3724TIP3   OH211107   3.689   3.664   3.481
 3724TIP3    H111108   3.623   3.594   3.499
 3724TIP3    H211109   3.729   3.632   3.398
 3725TIP3   OH211110   3.948   3.102   3.131
 3725TIP3    H111111   3.900   3.184   3.110
 3725TIP3    H211112   3.878   3.034   3.122
 3726TIP3   OH211113   4.074   3.606   3.347
 3726TIP3    H111114   4.063   3.592   3.443
 3726TIP3    H211115   3.984   3.581   3.317
 3727TIP3   OH211116   4.311   3.554   3.200
 3727TIP3    H111117   4.237   3.556   3.263
 3727TIP3    H211118   4.386   3.525   3.256
 3728TIP3   OH211119   4.540   3.497   3.349
 3728TIP3    H111120   4.554   3.401   3.364
 3728TIP3    H211121   4.536   3.532   3.440
 3729TIP3   OH211122   3.532   3.439   3.537
 3729TIP3    H111123   3.542   3.345   3.510
 3729TIP3    H211124   3.562   3.435   3.629
 3730TIP3   OH211125   4.046   3.114   3.388
 3730TIP3    H111126   4.111   3.041   3.381
 3730TIP3    H211127   4.004   3.108   3.300
 3731TIP3   OH211128   4.110   3.328   3.546
 3731TIP3    H111129   4.088   3.256   3.484
 3731TIP3    H211130   4.030   3.384   3.543
 3732TIP3   OH211131   3.333   4.559   1.649
 3732TIP3    H111132   3.428   4.549   1.628
 3732TIP3    H211133   3.304   4.607   1.569
 3733TIP3   OH211134   2.810   3.938   1.862
 3733TIP3    H111135   2.905   3.960   1.847
 3733TIP3    H211136   2.804   3.849   1.820
 3734TIP3   OH211137   2.725   4.550   2.280
 3734TIP3    H111138   2.660   4.488   2.241
 3734TIP3    H211139   2.771   4.490   2.343
 3735TIP3   OH211140   2.860   4.396   2.464
 3735TIP3    H111141   2.849   4.326   2.531
 3735TIP3    H211142   2.913   4.460   2.516
 3736TIP3   OH211143   4.589   4.801   2.265
 3736TIP3    H111144   4.617   4.831   2.354
 3736TIP3    H211145   4.656   4.840   2.207
 3737TIP3   OH211146   4.619   4.821   2.548
 3737TIP3    H111147   4.571   4.735   2.542
 3737TIP3    H211148   4.691   4.794   2.607
 3738TIP3   OH211149   4.660   4.501   3.117
 3738TIP3    H111150   4.590   4.509   3.185
 3738TIP3    H211151   4.705   4.588   3.124
 3739TIP3   OH211152   4.480   4.009   1.738
 3739TIP3    H111153   4.546   4.075   1.708
 3739TIP3    H211154   4.525   3.972   1.817
 3740TIP3   OH211155   4.609   3.877   1.942
 3740TIP3    H111156   4.542   3.836   2.001
 3740TIP3    H211157   4.673   3.914   2.006
 3741TIP3   OH211158   4.663   4.272   2.373
 3741TIP3    H111159   4.718   4.204   2.328
 3741TIP3    H211160   4.659   4.343   2.306
 3742TIP3   OH211161   4.491   4.573   2.566
 3742TIP3    H111162   4.419   4.611   2.619
 3742TIP3    H211163   4.441   4.525   2.496
 3743TIP3   OH211164   4.545   3.786   1.588
 3743TIP3    H111165   4.473   3.788   1.521
 3743TIP3    H211166   4.517   3.862   1.643
 3744TIP3   OH211167   4.416   3.458   1.540
 3744TIP3    H111168   4.369   3.496   1.465
 3744TIP3    H211169   4.393   3.363   1.531
 3745TIP3   OH211170   4.420   3.736   2.087
 3745TIP3    H111171   4.428   3.640   2.080
 3745TIP3    H211172   4.405   3.750   2.183
 3746TIP3   OH211173   3.045   3.809   2.836
 3746TIP3    H111174   3.044   3.775   2.744
 3746TIP3    H211175   3.143   3.810   2.853
 3747TIP3   OH211176   4.710   4.160   2.944
 3747TIP3    H111177   4.781   4.092   2.935
 3747TIP3    H211178   4.740   4.229   2.882
 3748TIP3   OH211179   4.893   3.962   2.950
 3748TIP3    H111180   4.821   3.911   2.991
 3748TIP3    H211181   4.969   3.902   2.970
 3749TIP3   OH211182   4.360   3.191   1.523
 3749TIP3    H111183   4.433   3.161   1.581
 3749TIP3    H211184   4.286   3.133   1.548
 3750TIP3   OH211185   4.417   3.452   1.980
 3750TIP3    H111186   4.459   3.364   1.995
 3750TIP3    H211187   4.475   3.486   1.909
 3751TIP3   OH211188   4.577   3.622   2.477
 3751TIP3    H111189   4.662   3.647   2.436
 3751TIP3    H211190   4.591   3.660   2.566
 3752TIP3   OH211191   4.648   3.769   2.707
 3752TIP3    H111192   4.572   3.803   2.758
 3752TIP3    H211193   4.681   3.850   2.663
 3753TIP3   OH211194   3.270   3.503   3.496
 3753TIP3    H111195   3.367   3.495   3.506
 3753TIP3    H211196   3.242   3.417   3.535
 3754TIP3   OH211197   5.103   3.360   3.263
 3754TIP3    H111198   5.161   3.295   3.218
 3754TIP3    H211199   5.070   3.414   3.188
 3755TIP3   OH211200   4.526   3.203   2.019
 3755TIP3    H111201   4.574   3.185   2.103
 3755TIP3    H211202   4.466   3.126   2.017
 3756TIP3   OH211203   3.224   3.189   2.844
 3756TIP3    H111204   3.286   3.114   2.852
 3756TIP3    H211205   3.286   3.263   2.834
 3757TIP3   OH211206   3.022   3.460   2.908
 3757TIP3    H111207   3.076   3.458   2.826
 3757TIP3    H211208   3.055   3.541   2.949
 3758TIP3   OH211209   4.968   3.496   3.073
 3758TIP3    H111210   4.885   3.541   3.099
 3758TIP3    H211211   4.931   3.428   3.013
 3759TIP3   OH211212   4.603   3.134   1.654
 3759TIP3    H111213   4.644   3.064   1.600
 3759TIP3    H211214   4.670   3.205   1.650
 3760TIP3   OH211215   3.011   2.955   2.409
 3760TIP3    H111216   2.920   2.958   2.441
 3760TIP3    H211217   3.009   3.018   2.334
 3761TIP3   OH211218   4.171   4.671   1.921
 3761TIP3    H111219   4.221   4.656   1.838
 3761TIP3    H211220   4.229   4.735   1.966
 3762TIP3   OH211221   3.229   3.035   3.225
 3762TIP3    H111222   3.187   3.045   3.312
 3762TIP3    H211223   3.164   3.079   3.167
 3763TIP3   OH211224   3.270   4.477   3.302
 3763TIP3    H111225   3.178   4.450   3.288
 3763TIP3    H211226   3.285   4.452   3.394
 3764TIP3   OH211227   3.452   4.508   2.853
 3764TIP3    H111228   3.405   4.585   2.814
 3764TIP3    H211229   3.538   4.520   2.807
 3765TIP3   OH211230   3.891   4.750   2.990
 3765TIP3    H111231   3.934   4.747   3.079
 3765TIP3    H211232   3.958   4.801   2.939
 3766TIP3   OH211233   4.071   4.903   2.851
 3766TIP3    H111234   4.141   4.851   2.808
 3766TIP3    H211235   4.125   4.959   2.911
 3767TIP3   OH211236   4.868   3.261   2.948
 3767TIP3    H111237   4.777   3.251   2.914
 3767TIP3    H211238   4.902   3.170   2.937
 3768TIP3   OH211239   3.124   4.761   2.876
 3768TIP3    H111240   3.034   4.792   2.854
 3768TIP3    H211241   3.138   4.807   2.961
 3769TIP3   OH211242   3.362   4.742   2.737
 3769TIP3    H111243   3.274   4.753   2.780
 3769TIP3    H211244   3.343   4.773   2.646
 3770TIP3   OH211245   3.787   4.767   2.534
 3770TIP3    H111246   3.719   4.785   2.467
 3770TIP3    H211247   3.799   4.855   2.575
 3771TIP3   OH211248   4.057   4.708   2.587
 3771TIP3    H111249   3.963   4.723   2.566
 3771TIP3    H211250   4.101   4.780   2.539
 3772TIP3   OH211251   4.264   4.899   2.497
 3772TIP3    H111252   4.249   4.983   2.449
 3772TIP3    H211253   4.290   4.838   2.425
 3773TIP3   OH211254   3.037   4.554   2.619
 3773TIP3    H111255   3.063   4.526   2.710
 3773TIP3    H211256   3.111   4.512   2.569
 3774TIP3   OH211257   3.234   4.427   2.480
 3774TIP3    H111258   3.248   4.343   2.528
 3774TIP3    H211259   3.325   4.463   2.477
 3775TIP3   OH211260   3.501   4.520   2.485
 3775TIP3    H111261   3.530   4.428   2.473
 3775TIP3    H211262   3.549   4.541   2.567
 3776TIP3   OH211263   4.068   3.174   2.562
 3776TIP3    H111264   4.031   3.103   2.617
 3776TIP3    H211265   4.147   3.132   2.522
 3777TIP3   OH211266   4.591   3.059   2.469
 3777TIP3    H111267   4.628   3.110   2.393
 3777TIP3    H211268   4.497   3.082   2.464
 3778TIP3   OH211269   4.691   3.157   2.235
 3778TIP3    H111270   4.764   3.104   2.198
 3778TIP3    H211271   4.726   3.248   2.220
 3779TIP3   OH211272   3.321   2.884   2.583
 3779TIP3    H111273   3.229   2.851   2.586
 3779TIP3    H211274   3.371   2.799   2.580
 3780TIP3   OH211275   3.107   2.755   2.231
 3780TIP3    H111276   3.139   2.812   2.159
 3780TIP3    H211277   3.080   2.821   2.298
 3781TIP3   OH211278   3.767   2.918   2.468
 3781TIP3    H111279   3.822   2.965   2.403
 3781TIP3    H211280   3.801   2.954   2.552
 3782TIP3   OH211281   4.305   3.064   2.450
 3782TIP3    H111282   4.315   3.024   2.362
 3782TIP3    H211283   4.297   2.984   2.507
 3783TIP3   OH211284   4.343   2.991   2.011
 3783TIP3    H111285   4.257   3.034   2.028
 3783TIP3    H211286   4.329   2.904   2.056
 3784TIP3   OH211287   2.824   4.332   2.011
 3784TIP3    H111288   2.739   4.299   1.977
 3784TIP3    H211289   2.816   4.425   1.985
 3785TIP3   OH211290   3.229   2.912   1.997
 3785TIP3    H111291   3.278   2.852   1.938
 3785TIP3    H211292   3.301   2.968   2.031
 3786TIP3   OH211293   3.737   3.092   2.095
 3786TIP3    H111294   3.799   3.048   2.155
 3786TIP3    H211295   3.756   3.185   2.119
 3787TIP3   OH211296   3.599   4.514   1.595
 3787TIP3    H111297   3.686   4.536   1.557
 3787TIP3    H211298   3.576   4.439   1.535
 3788TIP3   OH211299   4.318   4.635   1.689
 3788TIP3    H111300   4.311   4.537   1.677
 3788TIP3    H211301   4.273   4.667   1.608
 3789TIP3   OH211302   3.524   3.162   3.463
 3789TIP3    H111303   3.489   3.097   3.527
 3789TIP3    H211304   3.620   3.158   3.488
 3790TIP3   OH211305   3.775   3.142   3.563
 3790TIP3    H111306   3.868   3.126   3.545
 3790TIP3    H211307   3.764   3.101   3.651
 3791TIP3   OH211308   2.902   4.348   1.648
 3791TIP3    H111309   2.910   4.370   1.742
 3791TIP3    H211310   2.989   4.305   1.630
 3792TIP3   OH211311   4.606   3.227   3.380
 3792TIP3    H111312   4.624   3.198   3.472
 3792TIP3    H211313   4.695   3.222   3.340
 3793TIP3   OH211314   4.540   4.778   2.875
 3793TIP3    H111315   4.462   4.747   2.825
 3793TIP3    H211316   4.520   4.873   2.881
 3794TIP3   OH211317   5.811   4.152   1.637
 3794TIP3    H111318   5.779   4.242   1.615
 3794TIP3    H211319   5.735   4.100   1.605
 3795TIP3   OH211320   5.813   4.151   2.025
 3795TIP3    H111321   5.845   4.126   2.113
 3795TIP3    H211322   5.767   4.070   1.996
 3796TIP3   OH211323   5.106   4.042   2.386
 3796TIP3    H111324   5.135   3.973   2.449
 3796TIP3    H211325   5.182   4.102   2.390
 3797TIP3   OH211326   6.057   4.453   1.706
 3797TIP3    H111327   6.036   4.386   1.773
 3797TIP3    H211328   6.084   4.529   1.760
 3798TIP3   OH211329   5.081   4.457   2.109
 3798TIP3    H111330   5.072   4.359   2.110
 3798TIP3    H211331   5.178   4.465   2.104
 3799TIP3   OH211332   4.787   3.658   1.891
 3799TIP3    H111333   4.737   3.740   1.910
 3799TIP3    H211334   4.717   3.605   1.850
 3800TIP3   OH211335   4.844   3.946   2.073
 3800TIP3    H111336   4.894   3.868   2.107
 3800TIP3    H211337   4.903   3.979   2.004
 3801TIP3   OH211338   5.707   4.917   1.723
 3801TIP3    H111339   5.748   4.846   1.668
 3801TIP3    H211340   5.695   4.871   1.807
 3802TIP3   OH211341   5.606   4.379   2.069
 3802TIP3    H111342   5.645   4.302   2.024
 3802TIP3    H211343   5.689   4.424   2.095
 3803TIP3   OH211344   6.627   3.696   2.069
 3803TIP3    H111345   6.652   3.780   2.112
 3803TIP3    H211346   6.641   3.719   1.975
 3804TIP3   OH211347   6.023   3.876   2.099
 3804TIP3    H111348   6.062   3.789   2.119
 3804TIP3    H211349   5.988   3.860   2.009
 3805TIP3   OH211350   5.364   3.537   2.064
 3805TIP3    H111351   5.340   3.610   2.002
 3805TIP3    H211352   5.313   3.463   2.023
 3806TIP3   OH211353   6.056   3.629   1.688
 3806TIP3    H111354   6.129   3.614   1.752
 3806TIP3    H211355   6.107   3.665   1.613
 3807TIP3   OH211356   4.992   3.739   2.175
 3807TIP3    H111357   5.075   3.719   2.222
 3807TIP3    H211358   5.005   3.683   2.095
 3808TIP3   OH211359   5.431   3.937   1.968
 3808TIP3    H111360   5.525   3.912   1.982
 3808TIP3    H211361   5.392   3.853   1.936
 3809TIP3   OH211362   6.696   3.906   2.238
 3809TIP3    H111363   6.611   3.952   2.219
 3809TIP3    H211364   6.714   3.939   2.328
 3810TIP3   OH211365   5.355   3.519   2.501
 3810TIP3    H111366   5.295   3.557   2.433
 3810TIP3    H211367   5.302   3.536   2.582
 3811TIP3   OH211368   5.697   4.370   1.508
 3811TIP3    H111369   5.658   4.356   1.421
 3811TIP3    H211370   5.652   4.453   1.535
 3812TIP3   OH211371   5.461   4.297   2.293
 3812TIP3    H111372   5.400   4.365   2.330
 3812TIP3    H211373   5.503   4.346   2.219
 3813TIP3   OH211374   6.262   3.630   1.868
 3813TIP3    H111375   6.232   3.596   1.953
 3813TIP3    H211376   6.311   3.711   1.894
 3814TIP3   OH211377   5.228   3.635   2.283
 3814TIP3    H111378   5.288   3.709   2.308
 3814TIP3    H211379   5.278   3.595   2.209
 3815TIP3   OH211380   5.290   4.493   2.393
 3815TIP3    H111381   5.263   4.580   2.358
 3815TIP3    H211382   5.212   4.474   2.450
 3816TIP3   OH211383   4.680   4.182   1.629
 3816TIP3    H111384   4.640   4.206   1.544
 3816TIP3    H211385   4.711   4.268   1.662
 3817TIP3   OH211386   6.122   4.699   1.869
 3817TIP3    H111387   6.033   4.689   1.909
 3817TIP3    H211388   6.113   4.784   1.824
 3818TIP3   OH211389   6.416   3.593   2.232
 3818TIP3    H111390   6.328   3.621   2.203
 3818TIP3    H211391   6.474   3.628   2.161
 3819TIP3   OH211392   5.709   3.237   2.221
 3819TIP3    H111393   5.692   3.142   2.236
 3819TIP3    H211394   5.631   3.277   2.265
 3820TIP3   OH211395   5.820   4.744   1.540
 3820TIP3    H111396   5.870   4.661   1.522
 3820TIP3    H211397   5.882   4.809   1.500
 3821TIP3   OH211398   5.964   4.528   1.456
 3821TIP3    H111399   5.931   4.447   1.414
 3821TIP3    H211400   6.003   4.492   1.539
 3822TIP3   OH211401   6.348   4.608   2.213
 3822TIP3    H111402   6.335   4.531   2.154
 3822TIP3    H211403   6.330   4.683   2.152
 3823TIP3   OH211404   5.640   4.002   1.473
 3823TIP3    H111405   5.560   4.054   1.454
 3823TIP3    H211406   5.684   4.001   1.387
 3824TIP3   OH211407   5.598   3.790   1.184
 3824TIP3    H111408   5.666   3.841   1.233
 3824TIP3    H211409   5.656   3.727   1.136
 3825TIP3   OH211410   6.543   4.247   2.060
 3825TIP3    H111411   6.459   4.298   2.064
 3825TIP3    H211412   6.573   4.271   1.970
 3826TIP3   OH211413   5.988   4.086   1.441
 3826TIP3    H111414   5.933   4.110   1.518
 3826TIP3    H211415   6.072   4.061   1.485
 3827TIP3   OH211416   6.222   4.122   2.358
 3827TIP3    H111417   6.219   4.206   2.408
 3827TIP3    H211418   6.135   4.126   2.313
 3828TIP3   OH211419   5.219   4.081   1.860
 3828TIP3    H111420   5.178   4.023   1.792
 3828TIP3    H211421   5.296   4.028   1.889
 3829TIP3   OH211422   5.350   4.498   2.005
 3829TIP3    H111423   5.329   4.460   1.918
 3829TIP3    H211424   5.438   4.460   2.023
 3830TIP3   OH211425   5.358   4.052   2.214
 3830TIP3    H111426   5.390   4.031   2.124
 3830TIP3    H211427   5.400   4.139   2.232
 3831TIP3   OH211428   5.883   4.692   1.992
 3831TIP3    H111429   5.869   4.771   2.048
 3831TIP3    H211430   5.866   4.618   2.054
 3832TIP3   OH211431   5.495   4.611   2.537
 3832TIP3    H111432   5.434   4.672   2.585
 3832TIP3    H211433   5.429   4.557   2.488
 3833TIP3   OH211434   5.827   3.942   1.269
 3833TIP3    H111435   5.886   4.003   1.319
 3833TIP3    H211436   5.853   3.964   1.176
 3834TIP3   OH211437   5.250   4.167   2.636
 3834TIP3    H111438   5.256   4.251   2.685
 3834TIP3    H211439   5.156   4.144   2.656
 3835TIP3   OH211440   5.574   4.619   1.546
 3835TIP3    H111441   5.655   4.673   1.553
 3835TIP3    H211442   5.513   4.678   1.499
 3836TIP3   OH211443   5.287   4.777   2.626
 3836TIP3    H111444   5.253   4.776   2.535
 3836TIP3    H211445   5.207   4.756   2.679
 3837TIP3   OH211446   6.345   3.180   1.322
 3837TIP3    H111447   6.262   3.203   1.369
 3837TIP3    H211448   6.359   3.262   1.269
 3838TIP3   OH211449   5.087   3.925   1.662
 3838TIP3    H111450   5.018   3.970   1.609
 3838TIP3    H211451   5.047   3.839   1.676
 3839TIP3   OH211452   6.143   4.548   0.870
 3839TIP3    H111453   6.151   4.645   0.852
 3839TIP3    H211454   6.236   4.519   0.857
 3840TIP3   OH211455   4.868   4.310   2.571
 3840TIP3    H111456   4.801   4.286   2.504
 3840TIP3    H211457   4.906   4.223   2.595
 3841TIP3   OH211458   4.722   4.502   2.202
 3841TIP3    H111459   4.818   4.495   2.194
 3841TIP3    H211460   4.713   4.579   2.260
 3842TIP3   OH211461   6.585   4.956   2.262
 3842TIP3    H111462   6.584   4.860   2.276
 3842TIP3    H211463   6.501   4.981   2.307
 3843TIP3   OH211464   5.690   4.740   2.394
 3843TIP3    H111465   5.687   4.832   2.428
 3843TIP3    H211466   5.619   4.698   2.448
 3844TIP3   OH211467   5.455   4.866   1.347
 3844TIP3    H111468   5.409   4.844   1.264
 3844TIP3    H211469   5.419   4.954   1.369
 3845TIP3   OH211470   4.891   4.716   1.732
 3845TIP3    H111471   4.936   4.705   1.819
 3845TIP3    H211472   4.840   4.633   1.727
 3846TIP3   OH211473   5.655   4.772   0.987
 3846TIP3    H111474   5.711   4.700   0.951
 3846TIP3    H211475   5.690   4.780   1.078
 3847TIP3   OH211476   5.707   4.820   1.256
 3847TIP3    H111477   5.618   4.828   1.296
 3847TIP3    H211478   5.756   4.777   1.328
 3848TIP3   OH211479   6.476   4.083   2.536
 3848TIP3    H111480   6.391   4.096   2.491
 3848TIP3    H211481   6.489   3.987   2.527
 3849TIP3   OH211482   5.072   4.494   2.558
 3849TIP3    H111483   5.123   4.475   2.640
 3849TIP3    H211484   4.998   4.429   2.566
 3850TIP3   OH211485   5.471   3.316   2.346
 3850TIP3    H111486   5.382   3.284   2.318
 3850TIP3    H211487   5.443   3.396   2.396
 3851TIP3   OH211488   6.004   3.429   2.540
 3851TIP3    H111489   6.071   3.403   2.607
 3851TIP3    H211490   5.920   3.411   2.587
 3852TIP3   OH211491   6.245   3.862   2.461
 3852TIP3    H111492   6.192   3.858   2.544
 3852TIP3    H211493   6.218   3.948   2.424
 3853TIP3   OH211494   5.904   3.983   1.013
 3853TIP3    H111495   5.869   3.963   0.924
 3853TIP3    H211496   5.987   4.029   0.989
 3854TIP3   OH211497   5.618   3.360   1.317
 3854TIP3    H111498   5.582   3.359   1.408
 3854TIP3    H211499   5.575   3.280   1.282
 3855TIP3   OH211500   5.404   3.831   2.364
 3855TIP3    H111501   5.353   3.850   2.446
 3855TIP3    H211502   5.387   3.913   2.312
 3856TIP3   OH211503   5.287   3.718   1.877
 3856TIP3    H111504   5.194   3.692   1.896
 3856TIP3    H211505   5.298   3.677   1.788
 3857TIP3   OH211506   5.777   3.803   1.607
 3857TIP3    H111507   5.725   3.874   1.564
 3857TIP3    H211508   5.831   3.770   1.533
 3858TIP3   OH211509   5.950   4.076   2.687
 3858TIP3    H111510   5.926   4.006   2.752
 3858TIP3    H211511   6.041   4.097   2.717
 3859TIP3   OH211512   5.934   3.829   1.843
 3859TIP3    H111513   5.871   3.859   1.774
 3859TIP3    H211514   5.968   3.749   1.797
 3860TIP3   OH211515   5.223   3.858   2.572
 3860TIP3    H111516   5.247   3.921   2.642
 3860TIP3    H211517   5.210   3.776   2.623
 3861TIP3   OH211518   5.275   3.339   1.282
 3861TIP3    H111519   5.262   3.337   1.379
 3861TIP3    H211520   5.196   3.391   1.255
 3862TIP3   OH211521   4.815   3.381   2.152
 3862TIP3    H111522   4.890   3.413   2.207
 3862TIP3    H211523   4.858   3.348   2.072
 3863TIP3   OH211524   4.780   3.361   1.671
 3863TIP3    H111525   4.825   3.400   1.592
 3863TIP3    H211526   4.719   3.435   1.692
 3864TIP3   OH211527   5.947   4.075   2.264
 3864TIP3    H111528   5.980   4.004   2.205
 3864TIP3    H211529   5.915   4.022   2.340
 3865TIP3   OH211530   5.619   3.534   1.938
 3865TIP3    H111531   5.535   3.535   1.988
 3865TIP3    H211532   5.685   3.536   2.009
 3866TIP3   OH211533   5.049   3.597   1.945
 3866TIP3    H111534   4.954   3.605   1.917
 3866TIP3    H211535   5.070   3.505   1.923
 3867TIP3   OH211536   5.315   3.590   1.636
 3867TIP3    H111537   5.407   3.607   1.612
 3867TIP3    H211538   5.265   3.612   1.554
 3868TIP3   OH211539   6.107   3.612   2.136
 3868TIP3    H111540   6.079   3.626   2.230
 3868TIP3    H211541   6.035   3.554   2.106
 3869TIP3   OH211542   5.164   3.625   1.413
 3869TIP3    H111543   5.093   3.579   1.365
 3869TIP3    H211544   5.215   3.662   1.338
 3870TIP3   OH211545   6.280   5.304   2.362
 3870TIP3    H111546   6.277   5.327   2.267
 3870TIP3    H211547   6.360   5.351   2.392
 3871TIP3   OH211548   5.233   4.417   2.778
 3871TIP3    H111549   5.313   4.445   2.828
 3871TIP3    H211550   5.169   4.408   2.852
 3872TIP3   OH211551   5.696   3.869   2.038
 3872TIP3    H111552   5.769   3.827   1.991
 3872TIP3    H211553   5.699   3.827   2.125
 3873TIP3   OH211554   5.216   3.352   1.921
 3873TIP3    H111555   5.179   3.276   1.970
 3873TIP3    H211556   5.257   3.309   1.845
 3874TIP3   OH211557   5.673   3.771   2.321
 3874TIP3    H111558   5.582   3.803   2.339
 3874TIP3    H211559   5.728   3.831   2.374
 3875TIP3   OH211560   5.411   4.153   1.421
 3875TIP3    H111561   5.337   4.089   1.409
 3875TIP3    H211562   5.390   4.188   1.511
 3876TIP3   OH211563   6.309   4.390   2.047
 3876TIP3    H111564   6.332   4.441   1.967
 3876TIP3    H211565   6.223   4.349   2.021
 3877TIP3   OH211566   5.868   3.463   1.290
 3877TIP3    H111567   5.771   3.445   1.296
 3877TIP3    H211568   5.874   3.559   1.310
 3878TIP3   OH211569   5.812   4.475   2.418
 3878TIP3    H111570   5.837   4.453   2.509
 3878TIP3    H211571   5.770   4.562   2.428
 3879TIP3   OH211572   5.935   3.715   1.390
 3879TIP3    H111573   6.031   3.724   1.402
 3879TIP3    H211574   5.913   3.795   1.336
 3880TIP3   OH211575   5.104   4.181   2.095
 3880TIP3    H111576   5.143   4.149   2.011
 3880TIP3    H211577   5.144   4.119   2.159
 3881TIP3   OH211578   5.556   4.305   1.246
 3881TIP3    H111579   5.508   4.390   1.249
 3881TIP3    H211580   5.501   4.249   1.305
 3882TIP3   OH211581   4.987   4.098   2.709
 3882TIP3    H111582   5.011   4.089   2.803
 3882TIP3    H211583   4.919   4.030   2.700
 3883TIP3   OH211584   5.710   4.216   2.726
 3883TIP3    H111585   5.647   4.152   2.687
 3883TIP3    H211586   5.796   4.178   2.697
 3884TIP3   OH211587   5.968   4.737   2.312
 3884TIP3    H111588   5.872   4.732   2.327
 3884TIP3    H211589   5.996   4.787   2.392
 3885TIP3   OH211590   6.378   3.809   1.222
 3885TIP3    H111591   6.316   3.764   1.159
 3885TIP3    H211592   6.373   3.898   1.180
 3886TIP3   OH211593   6.598   4.667   2.302
 3886TIP3    H111594   6.500   4.659   2.293
 3886TIP3    H211595   6.625   4.636   2.212
 3887TIP3   OH211596   6.084   4.624   1.133
 3887TIP3    H111597   6.053   4.552   1.189
 3887TIP3    H211598   6.095   4.582   1.046
 3888TIP3   OH211599   6.075   4.255   1.963
 3888TIP3    H111600   5.982   4.229   1.978
 3888TIP3    H211601   6.108   4.174   1.919
 3889TIP3   OH211602   5.205   4.484   1.724
 3889TIP3    H111603   5.202   4.564   1.667
 3889TIP3    H211604   5.111   4.463   1.732
 3890TIP3   OH211605   4.770   3.785   1.429
 3890TIP3    H111606   4.814   3.870   1.449
 3890TIP3    H211607   4.692   3.790   1.488
 3891TIP3   OH211608   5.337   4.246   1.664
 3891TIP3    H111609   5.304   4.336   1.683
 3891TIP3    H211610   5.300   4.196   1.739
 3892TIP3   OH211611   5.475   4.824   2.190
 3892TIP3    H111612   5.518   4.896   2.139
 3892TIP3    H211613   5.551   4.787   2.238
 3893TIP3   OH211614   5.122   4.721   1.574
 3893TIP3    H111615   5.036   4.729   1.620
 3893TIP3    H211616   5.153   4.814   1.576
 3894TIP3   OH211617   5.859   4.460   2.150
 3894TIP3    H111618   5.848   4.460   2.248
 3894TIP3    H211619   5.937   4.405   2.139
 3895TIP3   OH211620   5.838   4.355   1.034
 3895TIP3    H111621   5.889   4.329   1.114
 3895TIP3    H211622   5.749   4.325   1.060
 3896TIP3   OH211623   6.110   4.991   2.200
 3896TIP3    H111624   6.031   4.933   2.196
 3896TIP3    H211625   6.091   5.054   2.127
 3897TIP3   OH211626   6.172   4.821   0.852
 3897TIP3    H111627   6.205   4.880   0.782
 3897TIP3    H211628   6.098   4.875   0.886
 3898TIP3   OH211629   5.193   3.602   2.713
 3898TIP3    H111630   5.097   3.607   2.729
 3898TIP3    H211631   5.223   3.552   2.790
 3899TIP3   OH211632   5.998   4.288   1.250
 3899TIP3    H111633   5.988   4.220   1.319
 3899TIP3    H211634   6.095   4.284   1.235
 3900TIP3   OH211635   4.912   4.686   2.348
 3900TIP3    H111636   4.964   4.611   2.381
 3900TIP3    H211637   4.938   4.755   2.410
 3901TIP3   OH211638   5.204   4.332   1.033
 3901TIP3    H111639   5.212   4.239   1.005
 3901TIP3    H211640   5.180   4.322   1.127
 3902TIP3   OH211641   5.145   4.338   1.304
 3902TIP3    H111642   5.218   4.312   1.362
 3902TIP3    H211643   5.148   4.436   1.311
 3903TIP3   OH211644   4.880   4.030   1.509
 3903TIP3    H111645   4.812   4.075   1.565
 3903TIP3    H211646   4.892   4.098   1.440
 3904TIP3   OH211647   6.041   3.661   2.396
 3904TIP3    H111648   6.113   3.704   2.445
 3904TIP3    H211649   6.021   3.583   2.451
 3905TIP3   OH211650   5.918   3.413   1.568
 3905TIP3    H111651   5.899   3.436   1.475
 3905TIP3    H211652   5.955   3.497   1.602
 3906TIP3   OH211653   5.414   4.535   1.254
 3906TIP3    H111654   5.326   4.560   1.289
 3906TIP3    H211655   5.427   4.604   1.188
 3907TIP3   OH211656   5.601   3.598   1.668
 3907TIP3    H111657   5.663   3.672   1.651
 3907TIP3    H211658   5.605   3.591   1.766
 3908TIP3   OH211659   5.871   3.915   2.472
 3908TIP3    H111660   5.892   3.971   2.550
 3908TIP3    H211661   5.922   3.835   2.491
 3909TIP3   OH211662   5.743   3.321   1.770
 3909TIP3    H111663   5.727   3.402   1.823
 3909TIP3    H211664   5.806   3.356   1.702
 3910TIP3   OH211665   5.159   4.611   1.322
 3910TIP3    H111666   5.129   4.680   1.258
 3910TIP3    H211667   5.141   4.654   1.408
 3911TIP3   OH211668   5.256   3.324   1.559
 3911TIP3    H111669   5.252   3.414   1.596
 3911TIP3    H211670   5.353   3.308   1.566
 3912TIP3   OH211671   6.509   3.813   2.457
 3912TIP3    H111672   6.411   3.815   2.466
 3912TIP3    H211673   6.517   3.776   2.368
 3913TIP3   OH211674   6.161   4.009   1.844
 3913TIP3    H111675   6.083   3.952   1.856
 3913TIP3    H211676   6.230   3.961   1.894
 3914TIP3   OH211677   4.875   4.235   1.313
 3914TIP3    H111678   4.943   4.304   1.319
 3914TIP3    H211679   4.917   4.177   1.246
 3915TIP3   OH211680   4.817   3.514   1.446
 3915TIP3    H111681   4.818   3.612   1.445
 3915TIP3    H211682   4.734   3.495   1.399
 3916TIP3   OH211683   6.130   4.971   1.791
 3916TIP3    H111684   6.087   5.018   1.716
 3916TIP3    H211685   6.224   4.988   1.770
 3917TIP3   OH211686   5.208   3.234   2.316
 3917TIP3    H111687   5.175   3.199   2.231
 3917TIP3    H211688   5.195   3.157   2.375
 3918TIP3   OH211689   4.743   4.457   1.697
 3918TIP3    H111690   4.678   4.484   1.762
 3918TIP3    H211691   4.708   4.500   1.615
 3919TIP3   OH211692   4.904   5.001   2.771
 3919TIP3    H111693   4.991   5.000   2.818
 3919TIP3    H211694   4.884   4.906   2.769
 3920TIP3   OH211695   5.382   4.960   2.812
 3920TIP3    H111696   5.475   4.934   2.823
 3920TIP3    H211697   5.355   4.898   2.742
 3921TIP3   OH211698   5.365   4.536   0.944
 3921TIP3    H111699   5.309   4.463   0.981
 3921TIP3    H211700   5.439   4.484   0.906
 3922TIP3   OH211701   6.022   4.869   2.546
 3922TIP3    H111702   6.012   4.797   2.613
 3922TIP3    H211703   6.099   4.918   2.581
 3923TIP3   OH211704   5.798   4.574   0.863
 3923TIP3    H111705   5.840   4.507   0.920
 3923TIP3    H211706   5.853   4.570   0.782
 3924TIP3   OH211707   5.032   4.410   2.970
 3924TIP3    H111708   5.050   4.316   2.990
 3924TIP3    H211709   4.945   4.405   2.926
 3925TIP3   OH211710   5.011   4.050   1.167
 3925TIP3    H111711   5.068   4.021   1.240
 3925TIP3    H211712   5.077   4.056   1.095
 3926TIP3   OH211713   5.640   4.491   2.746
 3926TIP3    H111714   5.596   4.508   2.660
 3926TIP3    H211715   5.671   4.398   2.737
 3927TIP3   OH211716   5.529   4.252   0.975
 3927TIP3    H111717   5.526   4.264   1.073
 3927TIP3    H211718   5.526   4.154   0.969
 3928TIP3   OH211719   6.133   4.499   2.353
 3928TIP3    H111720   6.206   4.545   2.309
 3928TIP3    H211721   6.060   4.563   2.340
 3929TIP3   OH211722   5.153   4.138   2.950
 3929TIP3    H111723   5.208   4.058   2.954
 3929TIP3    H211724   5.172   4.173   3.040
 3930TIP3   OH211725   5.216   3.958   1.386
 3930TIP3    H111726   5.188   3.918   1.470
 3930TIP3    H211727   5.253   3.882   1.337
 3931TIP3   OH211728   5.489   4.022   2.616
 3931TIP3    H111729   5.409   4.080   2.618
 3931TIP3    H211730   5.537   4.057   2.537
 3932TIP3   OH211731   5.320   3.753   1.227
 3932TIP3    H111732   5.293   3.760   1.133
 3932TIP3    H211733   5.418   3.757   1.218
 3933TIP3   OH211734   6.002   4.422   2.745
 3933TIP3    H111735   6.084   4.392   2.704
 3933TIP3    H211736   5.995   4.362   2.822
 3934TIP3   OH211737   6.137   4.078   0.897
 3934TIP3    H111738   6.120   4.035   0.810
 3934TIP3    H211739   6.107   4.169   0.874
 3935TIP3   OH211740   5.616   3.809   2.733
 3935TIP3    H111741   5.611   3.731   2.676
 3935TIP3    H211742   5.569   3.878   2.681
 3936TIP3   OH211743   5.614   3.595   2.545
 3936TIP3    H111744   5.639   3.637   2.461
 3936TIP3    H211745   5.520   3.573   2.529
 3937TIP3   OH211746   5.637   4.130   2.419
 3937TIP3    H111747   5.722   4.146   2.377
 3937TIP3    H211748   5.579   4.196   2.375
 3938TIP3   OH211749   6.222   4.098   2.802
 3938TIP3    H111750   6.271   4.015   2.812
 3938TIP3    H211751   6.289   4.158   2.766
 3939TIP3   OH211752   6.263   4.350   2.537
 3939TIP3    H111753   6.204   4.405   2.480
 3939TIP3    H211754   6.350   4.373   2.497
 3940TIP3   OH211755   5.500   3.915   2.970
 3940TIP3    H111756   5.419   3.864   2.992
 3940TIP3    H211757   5.523   3.881   2.882
 3941TIP3   OH211758   5.744   3.359   2.619
 3941TIP3    H111759   5.695   3.440   2.595
 3941TIP3    H211760   5.674   3.291   2.608
 3942TIP3   OH211761   5.871   3.860   2.833
 3942TIP3    H111762   5.852   3.849   2.928
 3942TIP3    H211763   5.782   3.837   2.797
 3943TIP3   OH211764   6.107   3.806   2.686
 3943TIP3    H111765   6.031   3.814   2.748
 3943TIP3    H211766   6.180   3.780   2.746
 3944TIP3   OH211767   6.346   3.757   2.837
 3944TIP3    H111768   6.353   3.661   2.854
 3944TIP3    H211769   6.336   3.794   2.928
 3945TIP3   OH211770   5.325   3.696   3.021
 3945TIP3    H111771   5.330   3.602   2.997
 3945TIP3    H211772   5.358   3.694   3.113
 3946TIP3   OH211773   5.839   3.368   2.876
 3946TIP3    H111774   5.904   3.295   2.868
 3946TIP3    H211775   5.797   3.365   2.788
 3947TIP3   OH211776   5.905   3.583   3.035
 3947TIP3    H111777   5.881   3.513   2.970
 3947TIP3    H211778   5.827   3.643   3.030
 3948TIP3   OH211779   5.128   4.815   1.135
 3948TIP3    H111780   5.223   4.808   1.112
 3948TIP3    H211781   5.095   4.862   1.057
 3949TIP3   OH211782   4.606   4.194   1.350
 3949TIP3    H111783   4.701   4.215   1.334
 3949TIP3    H211784   4.599   4.106   1.307
 3950TIP3   OH211785   4.521   4.807   1.767
 3950TIP3    H111786   4.456   4.745   1.727
 3950TIP3    H211787   4.566   4.747   1.830
 3951TIP3   OH211788   4.656   4.653   1.952
 3951TIP3    H111789   4.644   4.582   2.017
 3951TIP3    H211790   4.708   4.716   2.005
 3952TIP3   OH211791   6.386   5.056   1.752
 3952TIP3    H111792   6.412   5.088   1.840
 3952TIP3    H211793   6.452   5.098   1.694
 3953TIP3   OH211794   6.414   5.078   2.035
 3953TIP3    H111795   6.367   4.992   2.030
 3953TIP3    H211796   6.488   5.052   2.092
 3954TIP3   OH211797   6.460   4.754   2.607
 3954TIP3    H111798   6.386   4.763   2.672
 3954TIP3    H211799   6.501   4.843   2.612
 3955TIP3   OH211800   6.276   4.265   1.224
 3955TIP3    H111801   6.342   4.331   1.193
 3955TIP3    H211802   6.323   4.228   1.302
 3956TIP3   OH211803   6.406   4.132   1.428
 3956TIP3    H111804   6.338   4.092   1.486
 3956TIP3    H211805   6.469   4.171   1.493
 3957TIP3   OH211806   6.462   4.530   1.862
 3957TIP3    H111807   6.513   4.462   1.813
 3957TIP3    H211808   6.455   4.602   1.796
 3958TIP3   OH211809   6.287   4.829   2.054
 3958TIP3    H111810   6.216   4.869   2.106
 3958TIP3    H211811   6.237   4.782   1.984
 3959TIP3   OH211812   6.341   4.042   1.074
 3959TIP3    H111813   6.270   4.044   1.006
 3959TIP3    H211814   6.313   4.119   1.128
 3960TIP3   OH211815   6.213   3.713   1.029
 3960TIP3    H111816   6.170   3.755   0.954
 3960TIP3    H211817   6.188   3.619   1.014
 3961TIP3   OH211818   6.217   3.994   1.573
 3961TIP3    H111819   6.222   3.897   1.566
 3961TIP3    H211820   6.201   4.007   1.670
 3962TIP3   OH211821   4.841   4.067   2.323
 3962TIP3    H111822   4.838   4.031   2.231
 3962TIP3    H211823   4.939   4.066   2.338
 3963TIP3   OH211824   6.507   4.417   2.432
 3963TIP3    H111825   6.579   4.351   2.420
 3963TIP3    H211826   6.532   4.486   2.368
 3964TIP3   OH211827   6.690   4.218   2.438
 3964TIP3    H111828   6.615   4.170   2.480
 3964TIP3    H211829   6.762   4.154   2.457
 3965TIP3   OH211830   6.156   3.445   1.010
 3965TIP3    H111831   6.223   3.414   1.073
 3965TIP3    H211832   6.077   3.392   1.031
 3966TIP3   OH211833   6.215   3.710   1.467
 3966TIP3    H111834   6.256   3.622   1.480
 3966TIP3    H211835   6.270   3.744   1.395
 3967TIP3   OH211836   6.374   3.875   1.965
 3967TIP3    H111837   6.459   3.902   1.923
 3967TIP3    H211838   6.386   3.916   2.053
 3968TIP3   OH211839   6.445   4.025   2.194
 3968TIP3    H111840   6.368   4.058   2.244
 3968TIP3    H211841   6.476   4.108   2.150
 3969TIP3   OH211842   5.056   3.743   2.980
 3969TIP3    H111843   5.153   3.752   2.995
 3969TIP3    H211844   5.038   3.661   3.029
 3970TIP3   OH211845   6.898   3.620   2.751
 3970TIP3    H111846   6.956   3.555   2.707
 3970TIP3    H211847   6.865   3.672   2.675
 3971TIP3   OH211848   6.324   3.459   1.505
 3971TIP3    H111849   6.369   3.441   1.591
 3971TIP3    H211850   6.260   3.384   1.502
 3972TIP3   OH211851   5.023   3.443   2.324
 3972TIP3    H111852   5.085   3.368   2.335
 3972TIP3    H211853   5.085   3.518   2.318
 3973TIP3   OH211854   4.821   3.716   2.398
 3973TIP3    H111855   4.872   3.714   2.314
 3973TIP3    H211856   4.851   3.799   2.437
 3974TIP3   OH211857   6.764   3.753   2.558
 3974TIP3    H111858   6.680   3.798   2.580
 3974TIP3    H211859   6.729   3.684   2.498
 3975TIP3   OH211860   6.403   3.387   1.146
 3975TIP3    H111861   6.441   3.322   1.083
 3975TIP3    H211862   6.464   3.463   1.136
 3976TIP3   OH211863   4.810   3.220   1.900
 3976TIP3    H111864   4.717   3.215   1.929
 3976TIP3    H211865   4.803   3.279   1.821
 3977TIP3   OH211866   5.969   4.927   1.408
 3977TIP3    H111867   6.017   4.912   1.324
 3977TIP3    H211868   6.026   4.992   1.452
 3978TIP3   OH211869   5.028   3.297   2.713
 3978TIP3    H111870   4.979   3.295   2.796
 3978TIP3    H211871   4.962   3.337   2.653
 3979TIP3   OH211872   5.067   4.735   2.790
 3979TIP3    H111873   4.975   4.705   2.776
 3979TIP3    H211874   5.084   4.704   2.880
 3980TIP3   OH211875   5.248   4.764   2.340
 3980TIP3    H111876   5.200   4.840   2.301
 3980TIP3    H211877   5.334   4.777   2.294
 3981TIP3   OH211878   5.688   5.006   2.477
 3981TIP3    H111879   5.731   5.003   2.565
 3981TIP3    H211880   5.754   5.058   2.426
 3982TIP3   OH211881   5.867   5.161   2.337
 3982TIP3    H111882   5.936   5.107   2.296
 3982TIP3    H211883   5.920   5.217   2.397
 3983TIP3   OH211884   6.666   3.518   2.434
 3983TIP3    H111885   6.574   3.513   2.401
 3983TIP3    H211886   6.695   3.425   2.423
 3984TIP3   OH211887   4.923   5.022   2.361
 3984TIP3    H111888   4.832   5.054   2.340
 3984TIP3    H211889   4.933   5.057   2.450
 3985TIP3   OH211890   5.160   5.000   2.223
 3985TIP3    H111891   5.072   5.011   2.267
 3985TIP3    H211892   5.139   5.028   2.132
 3986TIP3   OH211893   5.585   5.024   2.021
 3986TIP3    H111894   5.514   5.040   1.956
 3986TIP3    H211895   5.596   5.112   2.062
 3987TIP3   OH211896   5.854   4.965   2.073
 3987TIP3    H111897   5.760   4.980   2.052
 3987TIP3    H211898   5.896   5.037   2.025
 3988TIP3   OH211899   6.061   5.156   1.984
 3988TIP3    H111900   6.045   5.240   1.936
 3988TIP3    H211901   6.086   5.096   1.911
 3989TIP3   OH211902   4.833   4.812   2.109
 3989TIP3    H111903   4.861   4.783   2.198
 3989TIP3    H211904   4.905   4.769   2.056
 3990TIP3   OH211905   5.029   4.685   1.968
 3990TIP3    H111906   5.043   4.600   2.016
 3990TIP3    H211907   5.121   4.719   1.963
 3991TIP3   OH211908   5.298   4.778   1.971
 3991TIP3    H111909   5.325   4.685   1.959
 3991TIP3    H211910   5.346   4.797   2.054
 3992TIP3   OH211911   5.874   3.435   2.064
 3992TIP3    H111912   5.827   3.365   2.113
 3992TIP3    H211913   5.942   3.384   2.015
 3993TIP3   OH211914   6.392   3.312   1.957
 3993TIP3    H111915   6.426   3.367   1.883
 3993TIP3    H211916   6.297   3.333   1.955
 3994TIP3   OH211917   6.490   3.407   1.721
 3994TIP3    H111918   6.565   3.361   1.679
 3994TIP3    H211919   6.520   3.501   1.709
 3995TIP3   OH211920   5.117   3.140   2.070
 3995TIP3    H111921   5.024   3.106   2.073
 3995TIP3    H211922   5.165   3.054   2.067
 3996TIP3   OH211923   4.904   3.014   1.719
 3996TIP3    H111924   4.934   3.072   1.646
 3996TIP3    H211925   4.878   3.079   1.787
 3997TIP3   OH211926   5.566   3.171   1.950
 3997TIP3    H111927   5.623   3.223   1.892
 3997TIP3    H211928   5.582   3.213   2.036
 3998TIP3   OH211929   6.112   3.322   1.934
 3998TIP3    H111930   6.099   3.285   1.846
 3998TIP3    H211931   6.098   3.242   1.991
 3999TIP3   OH211932   6.140   3.247   1.500
 3999TIP3    H111933   6.055   3.293   1.516
 3999TIP3    H211934   6.122   3.161   1.543
 4000TIP3   OH211935   4.620   4.589   1.496
 4000TIP3    H111936   4.535   4.555   1.464
 4000TIP3    H211937   4.613   4.682   1.466
 4001TIP3   OH211938   5.024   3.172   1.481
 4001TIP3    H111939   5.072   3.108   1.425
 4001TIP3    H211940   5.098   3.225   1.517
 4002TIP3   OH211941   5.534   3.348   1.580
 4002TIP3    H111942   5.591   3.301   1.642
 4002TIP3    H211943   5.554   3.441   1.606
 4003TIP3   OH211944   5.396   4.769   1.083
 4003TIP3    H111945   5.483   4.792   1.044
 4003TIP3    H211946   5.372   4.695   1.021
 4004TIP3   OH211947   6.114   4.892   1.176
 4004TIP3    H111948   6.108   4.794   1.163
 4004TIP3    H211949   6.069   4.923   1.095
 4005TIP3   OH211950   5.326   3.419   2.961
 4005TIP3    H111951   5.290   3.350   3.020
 4005TIP3    H211952   5.419   3.422   2.990
 4006TIP3   OH211953   5.575   3.420   3.081
 4006TIP3    H111954   5.660   3.393   3.043
 4006TIP3    H211955   5.560   3.350   3.148
 4007TIP3   OH211956   4.697   4.601   1.136
 4007TIP3    H111957   4.704   4.630   1.228
 4007TIP3    H211958   4.785   4.559   1.120
 4008TIP3   OH211959   6.402   3.484   2.868
 4008TIP3    H111960   6.421   3.455   2.960
 4008TIP3    H211961   6.491   3.479   2.827
 4009TIP3   OH211962   6.338   5.033   2.361
 4009TIP3    H111963   6.259   5.003   2.312
 4009TIP3    H211964   6.317   5.129   2.368
 4010TIP3   OH211965   7.604   4.409   1.125
 4010TIP3    H111966   7.573   4.499   1.103
 4010TIP3    H211967   7.527   4.357   1.095
 4011TIP3   OH211968   7.603   4.408   1.510
 4011TIP3    H111969   7.632   4.391   1.602
 4011TIP3    H211970   7.561   4.323   1.487
 4012TIP3   OH211971   6.903   4.300   1.873
 4012TIP3    H111972   6.933   4.232   1.937
 4012TIP3    H211973   6.981   4.356   1.867
 4013TIP3   OH211974   7.854   4.704   1.192
 4013TIP3    H111975   7.829   4.644   1.263
 4013TIP3    H211976   7.880   4.784   1.240
 4014TIP3   OH211977   6.878   4.713   1.596
 4014TIP3    H111978   6.868   4.615   1.597
 4014TIP3    H211979   6.975   4.721   1.589
 4015TIP3   OH211980   6.581   3.912   1.380
 4015TIP3    H111981   6.534   3.995   1.398
 4015TIP3    H211982   6.511   3.863   1.333
 4016TIP3   OH211983   6.641   4.203   1.560
 4016TIP3    H111984   6.692   4.125   1.593
 4016TIP3    H211985   6.699   4.238   1.492
 4017TIP3   OH211986   7.501   5.175   1.212
 4017TIP3    H111987   7.542   5.103   1.159
 4017TIP3    H211988   7.491   5.132   1.298
 4018TIP3   OH211989   7.402   4.634   1.557
 4018TIP3    H111990   7.443   4.558   1.512
 4018TIP3    H211991   7.485   4.680   1.584
 4019TIP3   OH211992   7.810   4.153   1.584
 4019TIP3    H111993   7.822   4.060   1.612
 4019TIP3    H211994   7.764   4.138   1.499
 4020TIP3   OH211995   7.154   3.793   1.556
 4020TIP3    H111996   7.139   3.867   1.493
 4020TIP3    H211997   7.105   3.722   1.509
 4021TIP3   OH211998   7.841   3.887   1.189
 4021TIP3    H111999   7.917   3.840   1.227
 4021TIP3    H212000   7.883   3.940   1.121
 4022TIP3   OH212001   6.787   3.995   1.662
 4022TIP3    H112002   6.871   3.977   1.709
 4022TIP3    H212003   6.801   3.941   1.582
 4023TIP3   OH212004   7.228   4.193   1.456
 4023TIP3    H112005   7.322   4.168   1.469
 4023TIP3    H212006   7.190   4.108   1.423
 4024TIP3   OH212007   7.149   3.776   1.989
 4024TIP3    H112008   7.092   3.816   1.920
 4024TIP3    H212009   7.096   3.796   2.069
 4025TIP3   OH212010   7.492   4.624   0.998
 4025TIP3    H112011   7.457   4.612   0.908
 4025TIP3    H212012   7.446   4.707   1.024
 4026TIP3   OH212013   7.257   4.553   1.779
 4026TIP3    H112014   7.197   4.622   1.816
 4026TIP3    H212015   7.301   4.601   1.707
 4027TIP3   OH212016   7.023   3.893   1.773
 4027TIP3    H112017   7.084   3.967   1.795
 4027TIP3    H212018   7.072   3.854   1.697
 4028TIP3   OH212019   7.087   4.750   1.880
 4028TIP3    H112020   7.062   4.837   1.843
 4028TIP3    H212021   7.008   4.733   1.935
 4029TIP3   OH212022   6.476   4.437   1.116
 4029TIP3    H112023   6.436   4.458   1.030
 4029TIP3    H212024   6.505   4.525   1.147
 4030TIP3   OH212025   7.918   4.952   1.354
 4030TIP3    H112026   7.830   4.941   1.397
 4030TIP3    H212027   7.907   5.040   1.313
 4031TIP3   OH212028   7.495   3.489   1.706
 4031TIP3    H112029   7.473   3.395   1.722
 4031TIP3    H212030   7.419   3.533   1.749
 4032TIP3   OH212031   7.616   5.003   1.031
 4032TIP3    H112032   7.661   4.917   1.010
 4032TIP3    H212033   7.679   5.065   0.987
 4033TIP3   OH212034   7.749   4.784   0.944
 4033TIP3    H112035   7.715   4.703   0.903
 4033TIP3    H212036   7.796   4.748   1.022
 4034TIP3   OH212037   8.139   4.855   1.702
 4034TIP3    H112038   8.142   4.781   1.638
 4034TIP3    H212039   8.137   4.934   1.646
 4035TIP3   OH212040   7.434   4.258   0.959
 4035TIP3    H112041   7.352   4.310   0.943
 4035TIP3    H212042   7.474   4.260   0.870
 4036TIP3   OH212043   7.389   4.030   0.695
 4036TIP3    H112044   7.461   4.081   0.735
 4036TIP3    H212045   7.443   3.959   0.651
 4037TIP3   OH212046   7.778   4.337   0.929
 4037TIP3    H112047   7.722   4.369   1.004
 4037TIP3    H212048   7.850   4.294   0.980
 4038TIP3   OH212049   8.004   4.358   1.841
 4038TIP3    H112050   8.035   4.439   1.884
 4038TIP3    H212051   7.917   4.385   1.808
 4039TIP3   OH212052   7.015   4.336   1.347
 4039TIP3    H112053   6.975   4.279   1.279
 4039TIP3    H212054   7.092   4.283   1.377
 4040TIP3   OH212055   7.146   4.752   1.493
 4040TIP3    H112056   7.126   4.716   1.405
 4040TIP3    H212057   7.235   4.716   1.511
 4041TIP3   OH212058   7.152   4.310   1.701
 4041TIP3    H112059   7.186   4.287   1.612
 4041TIP3    H212060   7.195   4.396   1.719
 4042TIP3   OH212061   7.680   4.947   1.479
 4042TIP3    H112062   7.665   5.028   1.531
 4042TIP3    H212063   7.662   4.875   1.544
 4043TIP3   OH212064   7.291   4.867   2.026
 4043TIP3    H112065   7.230   4.929   2.072
 4043TIP3    H212066   7.227   4.813   1.975
 4044TIP3   OH212067   7.622   4.195   0.754
 4044TIP3    H112068   7.677   4.256   0.808
 4044TIP3    H212069   7.650   4.218   0.664
 4045TIP3   OH212070   7.046   4.418   2.131
 4045TIP3    H112071   7.051   4.508   2.171
 4045TIP3    H212072   6.950   4.400   2.143
 4046TIP3   OH212073   7.371   4.873   1.038
 4046TIP3    H112074   7.454   4.926   1.042
 4046TIP3    H212075   7.313   4.930   0.986
 4047TIP3   OH212076   7.084   5.032   2.113
 4047TIP3    H112077   7.050   5.034   2.021
 4047TIP3    H212078   7.003   5.011   2.165
 4048TIP3   OH212079   6.883   4.182   1.147
 4048TIP3    H112080   6.815   4.229   1.095
 4048TIP3    H212081   6.841   4.096   1.160
 4049TIP3   OH212082   6.663   4.567   2.059
 4049TIP3    H112083   6.595   4.547   1.991
 4049TIP3    H212084   6.700   4.478   2.079
 4050TIP3   OH212085   6.518   4.758   1.691
 4050TIP3    H112086   6.614   4.754   1.681
 4050TIP3    H212087   6.507   4.837   1.746
 4051TIP3   OH212088   7.486   4.996   1.882
 4051TIP3    H112089   7.483   5.089   1.915
 4051TIP3    H212090   7.416   4.955   1.937
 4052TIP3   OH212091   7.255   5.134   0.828
 4052TIP3    H112092   7.185   5.109   0.764
 4052TIP3    H212093   7.223   5.220   0.862
 4053TIP3   OH212094   6.688   4.973   1.218
 4053TIP3    H112095   6.731   4.962   1.305
 4053TIP3    H212096   6.635   4.891   1.213
 4054TIP3   OH212097   7.486   5.011   0.744
 4054TIP3    H112098   7.406   5.057   0.778
 4054TIP3    H212099   7.550   5.029   0.815
 4055TIP3   OH212100   6.868   4.749   2.043
 4055TIP3    H112101   6.917   4.733   2.127
 4055TIP3    H212102   6.793   4.686   2.051
 4056TIP3   OH212103   7.267   3.572   1.836
 4056TIP3    H112104   7.176   3.546   1.808
 4056TIP3    H212105   7.245   3.657   1.880
 4057TIP3   OH212106   7.764   3.707   2.006
 4057TIP3    H112107   7.832   3.677   2.071
 4057TIP3    H212108   7.681   3.686   2.055
 4058TIP3   OH212109   8.076   4.112   1.952
 4058TIP3    H112110   8.016   4.117   2.030
 4058TIP3    H212111   8.052   4.195   1.905
 4059TIP3   OH212112   7.427   3.608   0.807
 4059TIP3    H112113   7.385   3.611   0.896
 4059TIP3    H212114   7.377   3.534   0.768
 4060TIP3   OH212115   7.199   4.088   1.850
 4060TIP3    H112116   7.149   4.109   1.932
 4060TIP3    H212117   7.183   4.170   1.797
 4061TIP3   OH212118   7.083   3.974   1.365
 4061TIP3    H112119   6.990   3.949   1.383
 4061TIP3    H212120   7.096   3.932   1.277
 4062TIP3   OH212121   7.575   4.060   1.090
 4062TIP3    H112122   7.521   4.130   1.047
 4062TIP3    H212123   7.633   4.033   1.016
 4063TIP3   OH212124   7.746   4.335   2.176
 4063TIP3    H112125   7.725   4.263   2.240
 4063TIP3    H212126   7.840   4.349   2.195
 4064TIP3   OH212127   7.715   4.094   1.332
 4064TIP3    H112128   7.656   4.112   1.255
 4064TIP3    H212129   7.752   4.008   1.302
 4065TIP3   OH212130   7.019   4.117   2.059
 4065TIP3    H112131   7.045   4.183   2.125
 4065TIP3    H212132   7.006   4.036   2.112
 4066TIP3   OH212133   7.070   3.595   0.772
 4066TIP3    H112134   7.057   3.595   0.868
 4066TIP3    H212135   6.992   3.647   0.743
 4067TIP3   OH212136   6.612   3.633   1.644
 4067TIP3    H112137   6.685   3.671   1.696
 4067TIP3    H212138   6.651   3.619   1.557
 4068TIP3   OH212139   6.577   3.619   1.161
 4068TIP3    H112140   6.618   3.658   1.080
 4068TIP3    H212141   6.515   3.692   1.181
 4069TIP3   OH212142   7.715   4.342   1.755
 4069TIP3    H112143   7.760   4.276   1.697
 4069TIP3    H212144   7.695   4.285   1.832
 4070TIP3   OH212145   7.403   3.814   1.421
 4070TIP3    H112146   7.330   3.802   1.485
 4070TIP3    H212147   7.480   3.776   1.469
 4071TIP3   OH212148   6.843   3.854   1.433
 4071TIP3    H112149   6.749   3.863   1.404
 4071TIP3    H212150   6.866   3.764   1.405
 4072TIP3   OH212151   7.110   3.844   1.125
 4072TIP3    H112152   7.203   3.864   1.104
 4072TIP3    H212153   7.062   3.868   1.042
 4073TIP3   OH212154   7.825   3.886   1.622
 4073TIP3    H112155   7.817   3.896   1.719
 4073TIP3    H212156   7.909   3.832   1.616
 4074TIP3   OH212157   6.959   3.877   0.903
 4074TIP3    H112158   6.887   3.834   0.851
 4074TIP3    H212159   7.011   3.917   0.830
 4075TIP3   OH212160   8.064   5.567   1.848
 4075TIP3    H112161   8.063   5.576   1.750
 4075TIP3    H212162   8.138   5.626   1.871
 4076TIP3   OH212163   7.029   4.669   2.266
 4076TIP3    H112164   7.109   4.700   2.314
 4076TIP3    H212165   6.964   4.669   2.339
 4077TIP3   OH212166   7.494   4.128   1.526
 4077TIP3    H112167   7.559   4.083   1.470
 4077TIP3    H212168   7.500   4.078   1.609
 4078TIP3   OH212169   7.012   3.615   1.402
 4078TIP3    H112170   6.982   3.534   1.448
 4078TIP3    H212171   7.060   3.580   1.326
 4079TIP3   OH212172   7.468   4.021   1.820
 4079TIP3    H112173   7.379   4.060   1.829
 4079TIP3    H212174   7.526   4.085   1.866
 4080TIP3   OH212175   7.203   4.408   0.911
 4080TIP3    H112176   7.130   4.343   0.898
 4080TIP3    H212177   7.183   4.442   1.002
 4081TIP3   OH212178   8.107   4.644   1.521
 4081TIP3    H112179   8.117   4.663   1.427
 4081TIP3    H212180   8.018   4.604   1.522
 4082TIP3   OH212181   7.679   3.707   0.786
 4082TIP3    H112182   7.584   3.680   0.787
 4082TIP3    H212183   7.671   3.798   0.752
 4083TIP3   OH212184   7.598   4.728   1.905
 4083TIP3    H112185   7.638   4.715   1.992
 4083TIP3    H212186   7.565   4.820   1.911
 4084TIP3   OH212187   7.765   3.988   0.866
 4084TIP3    H112188   7.850   4.031   0.853
 4084TIP3    H212189   7.707   4.045   0.810
 4085TIP3   OH212190   6.900   4.435   1.582
 4085TIP3    H112191   6.938   4.407   1.496
 4085TIP3    H212192   6.943   4.375   1.644
 4086TIP3   OH212193   7.355   4.575   0.761
 4086TIP3    H112194   7.298   4.656   0.760
 4086TIP3    H212195   7.298   4.512   0.811
 4087TIP3   OH212196   6.781   4.351   2.195
 4087TIP3    H112197   6.796   4.337   2.291
 4087TIP3    H212198   6.710   4.288   2.178
 4088TIP3   OH212199   7.506   4.470   2.217
 4088TIP3    H112200   7.445   4.412   2.168
 4088TIP3    H212201   7.593   4.435   2.187
 4089TIP3   OH212202   7.763   4.988   1.802
 4089TIP3    H112203   7.666   4.990   1.815
 4089TIP3    H212204   7.792   5.041   1.880
 4090TIP3   OH212205   7.864   4.513   1.457
 4090TIP3    H112206   7.769   4.491   1.468
 4090TIP3    H212207   7.898   4.427   1.425
 4091TIP3   OH212208   7.001   4.740   1.209
 4091TIP3    H112209   6.998   4.820   1.154
 4091TIP3    H212210   6.907   4.721   1.220
 4092TIP3   OH212211   6.570   4.041   0.918
 4092TIP3    H112212   6.610   4.129   0.934
 4092TIP3    H212213   6.488   4.047   0.973
 4093TIP3   OH212214   7.131   4.502   1.152
 4093TIP3    H112215   7.099   4.593   1.172
 4093TIP3    H212216   7.095   4.453   1.228
 4094TIP3   OH212217   7.271   5.080   1.676
 4094TIP3    H112218   7.314   5.153   1.626
 4094TIP3    H212219   7.348   5.044   1.724
 4095TIP3   OH212220   6.917   4.977   1.059
 4095TIP3    H112221   6.831   4.983   1.106
 4095TIP3    H212222   6.948   5.070   1.065
 4096TIP3   OH212223   7.654   4.715   1.638
 4096TIP3    H112224   7.641   4.714   1.736
 4096TIP3    H212225   7.738   4.668   1.630
 4097TIP3   OH212226   7.907   5.245   1.683
 4097TIP3    H112227   7.828   5.188   1.679
 4097TIP3    H212228   7.887   5.310   1.613
 4098TIP3   OH212229   6.988   3.858   2.202
 4098TIP3    H112230   6.892   3.865   2.215
 4098TIP3    H212231   7.015   3.805   2.279
 4099TIP3   OH212232   7.771   4.550   0.750
 4099TIP3    H112233   7.772   4.475   0.812
 4099TIP3    H212234   7.863   4.578   0.747
 4100TIP3   OH212235   6.708   4.943   1.834
 4100TIP3    H112236   6.761   4.870   1.869
 4100TIP3    H212237   6.735   5.015   1.893
 4101TIP3   OH212238   7.016   4.577   0.536
 4101TIP3    H112239   7.024   4.484   0.508
 4101TIP3    H212240   6.997   4.568   0.632
 4102TIP3   OH212241   6.944   4.598   0.804
 4102TIP3    H112242   7.013   4.569   0.865
 4102TIP3    H212243   6.949   4.696   0.812
 4103TIP3   OH212244   6.677   4.289   0.997
 4103TIP3    H112245   6.608   4.332   1.052
 4103TIP3    H212246   6.687   4.357   0.927
 4104TIP3   OH212247   7.829   3.947   1.890
 4104TIP3    H112248   7.915   3.968   1.929
 4104TIP3    H212249   7.805   3.863   1.935
 4105TIP3   OH212250   7.701   3.677   1.065
 4105TIP3    H112251   7.688   3.695   0.969
 4105TIP3    H212252   7.740   3.760   1.096
 4106TIP3   OH212253   7.206   4.797   0.735
 4106TIP3    H112254   7.116   4.827   0.760
 4106TIP3    H212255   7.224   4.846   0.654
 4107TIP3   OH212256   7.392   3.857   1.151
 4107TIP3    H112257   7.458   3.928   1.136
 4107TIP3    H212258   7.398   3.847   1.249
 4108TIP3   OH212259   7.664   4.170   1.960
 4108TIP3    H112260   7.693   4.221   2.038
 4108TIP3    H212261   7.726   4.095   1.959
 4109TIP3   OH212262   7.537   3.567   1.252
 4109TIP3    H112263   7.563   3.620   1.331
 4109TIP3    H212264   7.593   3.611   1.183
 4110TIP3   OH212265   6.952   4.869   0.808
 4110TIP3    H112266   6.931   4.943   0.746
 4110TIP3    H212267   6.934   4.911   0.895
 4111TIP3   OH212268   7.053   3.580   1.049
 4111TIP3    H112269   7.048   3.672   1.082
 4111TIP3    H212270   7.150   3.566   1.054
 4112TIP3   OH212271   7.952   4.253   1.365
 4112TIP3    H112272   7.868   4.214   1.336
 4112TIP3    H212273   7.961   4.211   1.453
 4113TIP3   OH212274   6.669   4.496   0.806
 4113TIP3    H112275   6.733   4.568   0.819
 4113TIP3    H212276   6.720   4.441   0.742
 4114TIP3   OH212277   6.611   3.769   0.935
 4114TIP3    H112278   6.615   3.867   0.934
 4114TIP3    H212279   6.537   3.753   0.876
 4115TIP3   OH212280   7.935   5.226   1.278
 4115TIP3    H112281   7.891   5.274   1.204
 4115TIP3    H212282   8.028   5.239   1.256
 4116TIP3   OH212283   7.006   3.492   1.805
 4116TIP3    H112284   6.971   3.460   1.719
 4116TIP3    H212285   6.993   3.414   1.863
 4117TIP3   OH212286   6.540   4.714   1.183
 4117TIP3    H112287   6.474   4.740   1.249
 4117TIP3    H212288   6.503   4.757   1.102
 4118TIP3   OH212289   6.701   5.259   2.258
 4118TIP3    H112290   6.787   5.259   2.305
 4118TIP3    H212291   6.680   5.164   2.257
 4119TIP3   OH212292   7.176   5.213   2.304
 4119TIP3    H112293   7.271   5.197   2.309
 4119TIP3    H212294   7.151   5.152   2.231
 4120TIP3   OH212295   7.813   5.124   2.037
 4120TIP3    H112296   7.810   5.054   2.106
 4120TIP3    H212297   7.892   5.175   2.065
 4121TIP3   OH212298   6.828   4.661   2.458
 4121TIP3    H112299   6.844   4.565   2.464
 4121TIP3    H212300   6.741   4.664   2.414
 4122TIP3   OH212301   6.832   4.329   0.670
 4122TIP3    H112302   6.891   4.292   0.739
 4122TIP3    H212303   6.890   4.327   0.592
 4123TIP3   OH212304   7.434   4.746   2.233
 4123TIP3    H112305   7.395   4.767   2.146
 4123TIP3    H212306   7.467   4.654   2.221
 4124TIP3   OH212307   7.343   4.524   0.495
 4124TIP3    H112308   7.340   4.543   0.592
 4124TIP3    H212309   7.336   4.426   0.500
 4125TIP3   OH212310   7.928   4.753   1.841
 4125TIP3    H112311   8.007   4.793   1.798
 4125TIP3    H212312   7.863   4.824   1.825
 4126TIP3   OH212313   6.948   4.397   2.444
 4126TIP3    H112314   7.025   4.347   2.416
 4126TIP3    H212315   6.976   4.428   2.532
 4127TIP3   OH212316   7.010   4.215   0.872
 4127TIP3    H112317   6.981   4.177   0.957
 4127TIP3    H212318   7.049   4.137   0.827
 4128TIP3   OH212319   7.284   4.277   2.102
 4128TIP3    H112320   7.206   4.337   2.103
 4128TIP3    H212321   7.334   4.312   2.024
 4129TIP3   OH212322   7.115   4.006   0.723
 4129TIP3    H112323   7.091   4.015   0.629
 4129TIP3    H212324   7.214   4.004   0.717
 4130TIP3   OH212325   7.800   4.680   2.234
 4130TIP3    H112326   7.878   4.654   2.183
 4130TIP3    H212327   7.797   4.613   2.304
 4131TIP3   OH212328   7.407   4.068   2.227
 4131TIP3    H112329   7.407   3.990   2.167
 4131TIP3    H212330   7.364   4.136   2.170
 4132TIP3   OH212331   7.408   3.851   2.036
 4132TIP3    H112332   7.437   3.897   1.955
 4132TIP3    H212333   7.314   3.833   2.016
 4133TIP3   OH212334   7.434   4.387   1.909
 4133TIP3    H112335   7.520   4.400   1.866
 4133TIP3    H212336   7.379   4.454   1.862
 4134TIP3   OH212337   8.018   4.359   2.291
 4134TIP3    H112338   8.065   4.275   2.281
 4134TIP3    H212339   8.080   4.422   2.250
 4135TIP3   OH212340   8.063   4.605   2.027
 4135TIP3    H112341   8.012   4.661   1.964
 4135TIP3    H212342   8.147   4.593   1.976
 4136TIP3   OH212343   7.287   4.172   2.462
 4136TIP3    H112344   7.217   4.105   2.476
 4136TIP3    H212345   7.319   4.149   2.373
 4137TIP3   OH212346   7.527   3.614   2.111
 4137TIP3    H112347   7.478   3.696   2.087
 4137TIP3    H212348   7.458   3.545   2.098
 4138TIP3   OH212349   7.668   4.116   2.318
 4138TIP3    H112350   7.651   4.103   2.414
 4138TIP3    H212351   7.578   4.095   2.284
 4139TIP3   OH212352   7.909   4.073   2.170
 4139TIP3    H112353   7.829   4.075   2.227
 4139TIP3    H212354   7.973   4.029   2.231
 4140TIP3   OH212355   8.104   3.977   2.336
 4140TIP3    H112356   8.161   3.903   2.359
 4140TIP3    H212357   8.117   4.037   2.412
 4141TIP3   OH212358   7.123   3.953   2.515
 4141TIP3    H112359   7.130   3.861   2.482
 4141TIP3    H212360   7.160   3.943   2.605
 4142TIP3   OH212361   7.632   3.625   2.365
 4142TIP3    H112362   7.692   3.548   2.360
 4142TIP3    H212363   7.592   3.622   2.275
 4143TIP3   OH212364   7.702   3.842   2.521
 4143TIP3    H112365   7.679   3.772   2.456
 4143TIP3    H212366   7.624   3.902   2.515
 4144TIP3   OH212367   6.940   5.064   0.620
 4144TIP3    H112368   7.023   5.058   0.566
 4144TIP3    H212369   6.881   5.110   0.558
 4145TIP3   OH212370   6.401   4.448   0.842
 4145TIP3    H112371   6.494   4.471   0.822
 4145TIP3    H212372   6.392   4.362   0.795
 4146TIP3   OH212373   6.317   5.065   1.254
 4146TIP3    H112374   6.252   5.003   1.213
 4146TIP3    H212375   6.362   5.004   1.316
 4147TIP3   OH212376   6.453   4.910   1.438
 4147TIP3    H112377   6.439   4.839   1.503
 4147TIP3    H212378   6.504   4.973   1.492
 4148TIP3   OH212379   8.249   5.310   1.515
 4148TIP3    H112380   8.198   5.225   1.509
 4148TIP3    H212381   8.232   5.332   1.608
 4149TIP3   OH212382   8.224   5.031   2.094
 4149TIP3    H112383   8.157   5.030   2.165
 4149TIP3    H212384   8.266   5.119   2.105
 4150TIP3   OH212385   8.089   5.082   1.538
 4150TIP3    H112386   8.023   5.123   1.597
 4150TIP3    H212387   8.032   5.033   1.475
 4151TIP3   OH212388   7.988   4.214   1.061
 4151TIP3    H112389   8.078   4.173   1.070
 4151TIP3    H212390   7.986   4.263   1.145
 4152TIP3   OH212391   6.638   4.319   1.811
 4152TIP3    H112392   6.634   4.287   1.718
 4152TIP3    H212393   6.735   4.322   1.825
 4153TIP3   OH212394   6.856   4.004   2.480
 4153TIP3    H112395   6.953   4.001   2.486
 4153TIP3    H212396   6.832   3.919   2.522
 4154TIP3   OH212397   6.821   3.701   1.811
 4154TIP3    H112398   6.886   3.629   1.822
 4154TIP3    H212399   6.880   3.779   1.804
 4155TIP3   OH212400   6.620   3.971   1.887
 4155TIP3    H112401   6.669   3.971   1.803
 4155TIP3    H212402   6.642   4.058   1.922
 4156TIP3   OH212403   6.606   3.471   1.386
 4156TIP3    H112404   6.513   3.470   1.415
 4156TIP3    H212405   6.601   3.532   1.309
 4157TIP3   OH212406   7.756   5.182   0.878
 4157TIP3    H112407   7.784   5.179   0.785
 4157TIP3    H212408   7.821   5.243   0.917
 4158TIP3   OH212409   6.822   3.546   2.195
 4158TIP3    H112410   6.775   3.550   2.281
 4158TIP3    H212411   6.759   3.595   2.138
 4159TIP3   OH212412   6.864   4.986   2.276
 4159TIP3    H112413   6.770   4.962   2.261
 4159TIP3    H212414   6.874   4.968   2.371
 4160TIP3   OH212415   7.045   5.021   1.826
 4160TIP3    H112416   6.997   5.097   1.787
 4160TIP3    H212417   7.131   5.034   1.781
 4161TIP3   OH212418   7.484   5.263   1.962
 4161TIP3    H112419   7.526   5.261   2.051
 4161TIP3    H212420   7.550   5.314   1.911
 4162TIP3   OH212421   7.664   5.416   1.824
 4162TIP3    H112422   7.736   5.366   1.783
 4162TIP3    H212423   7.715   5.474   1.885
 4163TIP3   OH212424   6.718   5.277   1.850
 4163TIP3    H112425   6.628   5.308   1.828
 4163TIP3    H212426   6.731   5.319   1.936
 4164TIP3   OH212427   6.955   5.255   1.709
 4164TIP3    H112428   6.867   5.266   1.753
 4164TIP3    H212429   6.935   5.285   1.619
 4165TIP3   OH212430   7.379   5.281   1.507
 4165TIP3    H112431   7.309   5.301   1.443
 4165TIP3    H212432   7.393   5.368   1.550
 4166TIP3   OH212433   7.647   5.215   1.559
 4166TIP3    H112434   7.555   5.237   1.538
 4166TIP3    H212435   7.695   5.290   1.520
 4167TIP3   OH212436   7.832   5.402   1.468
 4167TIP3    H112437   7.832   5.491   1.427
 4167TIP3    H212438   7.868   5.346   1.395
 4168TIP3   OH212439   6.630   5.069   1.595
 4168TIP3    H112440   6.657   5.040   1.685
 4168TIP3    H212441   6.702   5.026   1.543
 4169TIP3   OH212442   6.825   4.941   1.454
 4169TIP3    H112443   6.839   4.857   1.503
 4169TIP3    H212444   6.917   4.976   1.451
 4170TIP3   OH212445   7.094   5.034   1.458
 4170TIP3    H112446   7.122   4.942   1.446
 4170TIP3    H212447   7.142   5.055   1.541
 4171TIP3   OH212448   7.617   3.658   1.502
 4171TIP3    H112449   7.604   3.608   1.584
 4171TIP3    H212450   7.716   3.659   1.496
 4172TIP3   OH212451   6.920   3.392   1.561
 4172TIP3    H112452   6.825   3.365   1.562
 4172TIP3    H212453   6.958   3.330   1.497
 4173TIP3   OH212454   6.724   3.269   1.214
 4173TIP3    H112455   6.740   3.324   1.135
 4173TIP3    H212456   6.678   3.333   1.273
 4174TIP3   OH212457   7.355   3.445   1.434
 4174TIP3    H112458   7.412   3.490   1.368
 4174TIP3    H212459   7.388   3.481   1.516
 4175TIP3   OH212460   7.871   3.559   1.433
 4175TIP3    H112461   7.890   3.556   1.338
 4175TIP3    H212462   7.871   3.465   1.459
 4176TIP3   OH212463   6.416   4.847   0.986
 4176TIP3    H112464   6.332   4.811   0.951
 4176TIP3    H212465   6.408   4.938   0.951
 4177TIP3   OH212466   6.821   3.421   0.975
 4177TIP3    H112467   6.868   3.364   0.911
 4177TIP3    H212468   6.893   3.479   1.006
 4178TIP3   OH212469   7.329   3.605   1.069
 4178TIP3    H112470   7.391   3.565   1.132
 4178TIP3    H212471   7.346   3.700   1.090
 4179TIP3   OH212472   7.122   3.675   2.446
 4179TIP3    H112473   7.086   3.607   2.506
 4179TIP3    H212474   7.216   3.677   2.475
 4180TIP3   OH212475   7.370   3.676   2.567
 4180TIP3    H112476   7.458   3.654   2.531
 4180TIP3    H212477   7.359   3.605   2.634
 4181TIP3   OH212478   6.468   4.839   0.645
 4181TIP3    H112479   6.475   4.900   0.719
 4181TIP3    H212480   6.562   4.814   0.629
 4182TIP3   OH212481   8.128   5.300   1.849
 4182TIP3    H112482   8.051   5.265   1.799
 4182TIP3    H212483   8.105   5.395   1.854
 4183TIP3   OH212484   0.055   5.189   2.812
 4183TIP3    H112485   0.025   5.282   2.812
 4183TIP3    H212486  -0.020   5.146   2.767
 4184TIP3   OH212487   0.074   5.179   3.189
 4184TIP3    H112488   0.102   5.164   3.282
 4184TIP3    H212489   0.024   5.099   3.170
 4185TIP3   OH212490   0.302   5.496   2.884
 4185TIP3    H112491   0.295   5.433   2.957
 4185TIP3    H212492   0.331   5.577   2.931
 4186TIP3   OH212493   0.001   5.985   2.882
 4186TIP3    H112494   0.048   5.902   2.861
 4186TIP3    H212495  -0.067   5.953   2.945
 4187TIP3   OH212496  -0.116   5.388   3.258
 4187TIP3    H112497  -0.078   5.316   3.204
 4187TIP3    H212498  -0.034   5.439   3.277
 4188TIP3   OH212499   0.870   4.741   3.243
 4188TIP3    H112500   0.900   4.824   3.287
 4188TIP3    H212501   0.896   4.758   3.151
 4189TIP3   OH212502   0.264   4.921   3.281
 4189TIP3    H112503   0.311   4.837   3.300
 4189TIP3    H212504   0.237   4.905   3.188
 4190TIP3   OH212505   0.303   4.677   2.863
 4190TIP3    H112506   0.374   4.662   2.929
 4190TIP3    H212507   0.357   4.709   2.788
 4191TIP3   OH212508   0.943   4.948   3.415
 4191TIP3    H112509   0.859   4.995   3.398
 4191TIP3    H212510   0.966   4.983   3.503
 4192TIP3   OH212511  -0.074   5.419   2.699
 4192TIP3    H112512  -0.101   5.391   2.609
 4192TIP3    H212513   0.002   5.479   2.679
 4193TIP3   OH212514   0.506   4.679   3.042
 4193TIP3    H112515   0.496   4.636   3.128
 4193TIP3    H212516   0.562   4.756   3.066
 4194TIP3   OH212517   0.366   5.739   3.040
 4194TIP3    H112518   0.276   5.734   3.081
 4194TIP3    H212519   0.363   5.829   3.001
 4195TIP3   OH212520   0.665   4.639   3.407
 4195TIP3    H112521   0.578   4.671   3.376
 4195TIP3    H212522   0.726   4.673   3.339
 4196TIP3   OH212523  -0.035   4.270   3.379
 4196TIP3    H112524  -0.041   4.174   3.399
 4196TIP3    H212525  -0.075   4.307   3.459
 4197TIP3   OH212526   0.067   5.767   2.708
 4197TIP3    H112527   0.114   5.684   2.685
 4197TIP3    H212528   0.131   5.834   2.674
 4198TIP3   OH212529   0.183   5.532   2.636
 4198TIP3    H112530   0.222   5.471   2.568
 4198TIP3    H212531   0.240   5.515   2.714
 4199TIP3   OH212532   0.595   5.651   3.392
 4199TIP3    H112533   0.585   5.576   3.330
 4199TIP3    H212534   0.577   5.728   3.333
 4200TIP3   OH212535  -0.123   5.047   2.646
 4200TIP3    H112536  -0.204   5.072   2.600
 4200TIP3    H212537  -0.060   5.045   2.571
 4201TIP3   OH212538  -0.130   4.828   2.375
 4201TIP3    H112539  -0.059   4.886   2.410
 4201TIP3    H212540  -0.075   4.767   2.320
 4202TIP3   OH212541   0.791   5.290   3.236
 4202TIP3    H112542   0.708   5.343   3.239
 4202TIP3    H212543   0.823   5.314   3.146
 4203TIP3   OH212544   0.240   5.130   2.620
 4203TIP3    H112545   0.187   5.152   2.700
 4203TIP3    H212546   0.324   5.102   2.662
 4204TIP3   OH212547   0.472   5.168   3.538
 4204TIP3    H112548   0.472   5.250   3.591
 4204TIP3    H212549   0.389   5.177   3.489
 4205TIP3   OH212550   0.125   5.738   3.162
 4205TIP3    H112551   0.107   5.822   3.208
 4205TIP3    H212552   0.112   5.670   3.231
 4206TIP3   OH212553   0.074   4.995   2.454
 4206TIP3    H112554   0.139   5.050   2.503
 4206TIP3    H212555   0.101   5.015   2.360
 4207TIP3   OH212556   0.592   4.229   2.494
 4207TIP3    H112557   0.510   4.249   2.545
 4207TIP3    H212558   0.607   4.313   2.446
 4208TIP3   OH212559   0.395   5.594   2.041
 4208TIP3    H112560   0.404   5.692   2.028
 4208TIP3    H212561   0.489   5.567   2.031
 4209TIP3   OH212562   0.835   6.001   3.441
 4209TIP3    H112563   0.832   5.905   3.455
 4209TIP3    H212564   0.751   6.027   3.485
 4210TIP3   OH212565  -0.063   5.837   2.162
 4210TIP3    H112566  -0.006   5.763   2.130
 4210TIP3    H212567  -0.063   5.823   2.258
 4211TIP3   OH212568  -0.050   5.865   2.446
 4211TIP3    H112569  -0.115   5.868   2.519
 4211TIP3    H212570   0.031   5.849   2.496
 4212TIP3   OH212571   0.723   5.128   3.716
 4212TIP3    H112572   0.642   5.139   3.663
 4212TIP3    H212573   0.740   5.032   3.706
 4213TIP3   OH212574   0.265   4.475   3.715
 4213TIP3    H112575   0.336   4.447   3.777
 4213TIP3    H212576   0.184   4.456   3.766
 4214TIP3   OH212577   0.486   4.901   3.630
 4214TIP3    H112578   0.441   4.900   3.718
 4214TIP3    H212579   0.468   4.992   3.599
 4215TIP3   OH212580   0.157   5.038   2.203
 4215TIP3    H112581   0.119   5.011   2.117
 4215TIP3    H212582   0.240   5.078   2.172
 4216TIP3   OH212583  -0.142   4.413   2.488
 4216TIP3    H112584  -0.156   4.397   2.581
 4216TIP3    H212585  -0.175   4.328   2.451
 4217TIP3   OH212586   0.014   4.841   2.782
 4217TIP3    H112587  -0.034   4.909   2.732
 4217TIP3    H212588   0.068   4.799   2.712
 4218TIP3   OH212589   0.227   5.114   3.858
 4218TIP3    H112590   0.200   5.043   3.920
 4218TIP3    H212591   0.321   5.125   3.884
 4219TIP3   OH212592   0.179   4.872   3.022
 4219TIP3    H112593   0.119   4.905   2.952
 4219TIP3    H212594   0.215   4.794   2.974
 4220TIP3   OH212595   0.185   5.120   3.444
 4220TIP3    H112596   0.224   5.052   3.383
 4220TIP3    H212597   0.161   5.062   3.519
 4221TIP3   OH212598  -0.147   4.595   3.087
 4221TIP3    H112599  -0.217   4.588   3.154
 4221TIP3    H212600  -0.068   4.589   3.144
 4222TIP3   OH212601   0.356   4.661   3.320
 4222TIP3    H112602   0.322   4.672   3.412
 4222TIP3    H212603   0.291   4.599   3.284
 4223TIP3   OH212604   0.531   6.344   3.539
 4223TIP3    H112605   0.526   6.372   3.446
 4223TIP3    H212606   0.606   6.398   3.572
 4224TIP3   OH212607  -0.042   4.902   3.210
 4224TIP3    H112608   0.033   4.873   3.156
 4224TIP3    H212609  -0.021   4.866   3.297
 4225TIP3   OH212610  -0.052   4.794   3.503
 4225TIP3    H112611  -0.117   4.868   3.498
 4225TIP3    H212612   0.020   4.839   3.551
 4226TIP3   OH212613   0.558   5.436   3.223
 4226TIP3    H112614   0.585   5.487   3.144
 4226TIP3    H212615   0.474   5.396   3.194
 4227TIP3   OH212616   0.116   4.508   2.467
 4227TIP3    H112617   0.018   4.497   2.467
 4227TIP3    H212618   0.127   4.604   2.484
 4228TIP3   OH212619   0.040   5.514   3.592
 4228TIP3    H112620   0.080   5.518   3.681
 4228TIP3    H212621  -0.009   5.600   3.590
 4229TIP3   OH212622   0.184   4.759   2.566
 4229TIP3    H112623   0.280   4.764   2.583
 4229TIP3    H212624   0.167   4.841   2.515
 4230TIP3   OH212625  -0.213   5.346   2.445
 4230TIP3    H112626  -0.230   5.435   2.410
 4230TIP3    H212627  -0.304   5.319   2.468
 4231TIP3   OH212628   0.005   5.239   3.955
 4231TIP3    H112629  -0.024   5.148   3.941
 4231TIP3    H212630   0.095   5.235   3.915
 4232TIP3   OH212631   0.217   5.766   3.489
 4232TIP3    H112632   0.122   5.783   3.499
 4232TIP3    H212633   0.253   5.821   3.563
 4233TIP3   OH212634   0.624   4.851   2.400
 4233TIP3    H112635   0.562   4.808   2.336
 4233TIP3    H212636   0.623   4.941   2.359
 4234TIP3   OH212637   0.846   5.708   3.480
 4234TIP3    H112638   0.748   5.703   3.471
 4234TIP3    H212639   0.872   5.680   3.390
 4235TIP3   OH212640   0.334   5.665   2.308
 4235TIP3    H112641   0.302   5.587   2.354
 4235TIP3    H212642   0.343   5.633   2.217
 4236TIP3   OH212643   0.328   5.300   3.134
 4236TIP3    H112644   0.236   5.273   3.150
 4236TIP3    H212645   0.363   5.219   3.092
 4237TIP3   OH212646   0.122   5.501   3.329
 4237TIP3    H112647   0.108   5.510   3.426
 4237TIP3    H212648   0.212   5.466   3.326
 4238TIP3   OH212649   0.096   5.402   2.205
 4238TIP3    H112650   0.136   5.375   2.291
 4238TIP3    H212651   0.005   5.369   2.213
 4239TIP3   OH212652   0.360   6.031   3.371
 4239TIP3    H112653   0.277   5.980   3.363
 4239TIP3    H212654   0.344   6.101   3.303
 4240TIP3   OH212655   0.422   5.866   2.032
 4240TIP3    H112656   0.443   5.930   1.961
 4240TIP3    H212657   0.344   5.913   2.070
 4241TIP3   OH212658   0.251   5.340   2.440
 4241TIP3    H112659   0.242   5.264   2.502
 4241TIP3    H212660   0.346   5.331   2.416
 4242TIP3   OH212661   0.279   4.713   3.579
 4242TIP3    H112662   0.363   4.753   3.609
 4242TIP3    H212663   0.274   4.631   3.633
 4243TIP3   OH212664   0.152   4.468   2.746
 4243TIP3    H112665   0.146   4.489   2.650
 4243TIP3    H212666   0.198   4.548   2.781
 4244TIP3   OH212667   0.131   4.953   3.650
 4244TIP3    H112668   0.159   5.009   3.725
 4244TIP3    H212669   0.188   4.874   3.660
 4245TIP3   OH212670  -0.007   4.367   2.948
 4245TIP3    H112671  -0.012   4.446   3.003
 4245TIP3    H212672   0.049   4.399   2.874
 4246TIP3   OH212673   0.755   4.862   3.635
 4246TIP3    H112674   0.657   4.858   3.638
 4246TIP3    H212675   0.771   4.819   3.550
 4247TIP3   OH212676   0.410   5.054   3.021
 4247TIP3    H112677   0.335   4.995   3.035
 4247TIP3    H212678   0.483   5.008   3.068
 4248TIP3   OH212679   0.382   6.008   2.970
 4248TIP3    H112680   0.340   6.055   2.894
 4248TIP3    H212681   0.476   6.028   2.950
 4249TIP3   OH212682   0.287   5.902   3.711
 4249TIP3    H112683   0.265   5.849   3.791
 4249TIP3    H212684   0.349   5.968   3.748
 4250TIP3   OH212685   0.091   5.631   2.046
 4250TIP3    H112686   0.100   5.554   2.105
 4250TIP3    H212687   0.158   5.615   1.979
 4251TIP3   OH212688  -0.196   5.275   2.167
 4251TIP3    H112689  -0.214   5.281   2.262
 4251TIP3    H212690  -0.209   5.179   2.151
 4252TIP3   OH212691   0.378   5.544   3.526
 4252TIP3    H112692   0.456   5.585   3.485
 4252TIP3    H212693   0.313   5.616   3.514
 4253TIP3   OH212694  -0.390   4.812   2.463
 4253TIP3    H112695  -0.422   4.799   2.371
 4253TIP3    H212696  -0.294   4.810   2.447
 4254TIP3   OH212697   0.244   5.467   3.933
 4254TIP3    H112698   0.319   5.442   3.878
 4254TIP3    H212699   0.252   5.404   4.007
 4255TIP3   OH212700   0.386   5.122   2.074
 4255TIP3    H112701   0.368   5.078   1.988
 4255TIP3    H212702   0.357   5.213   2.050
 4256TIP3   OH212703  -0.182   4.589   3.642
 4256TIP3    H112704  -0.130   4.655   3.590
 4256TIP3    H212705  -0.217   4.646   3.714
 4257TIP3   OH212706  -0.059   5.234   3.555
 4257TIP3    H112707   0.032   5.212   3.524
 4257TIP3    H212708  -0.066   5.325   3.518
 4258TIP3   OH212709   0.477   5.137   3.976
 4258TIP3    H112710   0.526   5.056   3.997
 4258TIP3    H212711   0.547   5.193   3.939
 4259TIP3   OH212712   0.509   5.397   3.712
 4259TIP3    H112713   0.452   5.453   3.654
 4259TIP3    H212714   0.597   5.418   3.675
 4260TIP3   OH212715   0.003   4.407   3.779
 4260TIP3    H112716  -0.061   4.475   3.750
 4260TIP3    H212717  -0.052   4.326   3.771
 4261TIP3   OH212718   0.122   4.917   4.021
 4261TIP3    H112719   0.163   4.912   4.110
 4261TIP3    H212720   0.043   4.862   4.035
 4262TIP3   OH212721   0.361   4.850   3.865
 4262TIP3    H112722   0.290   4.846   3.931
 4262TIP3    H212723   0.440   4.823   3.918
 4263TIP3   OH212724   0.588   4.799   4.014
 4263TIP3    H112725   0.601   4.703   4.030
 4263TIP3    H212726   0.582   4.835   4.106
 4264TIP3   OH212727   0.095   4.420   4.040
 4264TIP3    H112728   0.158   4.345   4.044
 4264TIP3    H212729   0.057   4.409   3.951
 4265TIP3   OH212730   0.170   4.629   4.195
 4265TIP3    H112731   0.151   4.551   4.139
 4265TIP3    H212732   0.081   4.669   4.202
 4266TIP3   OH212733   0.636   6.097   2.930
 4266TIP3    H112734   0.659   6.134   3.017
 4266TIP3    H212735   0.697   6.144   2.871
 4267TIP3   OH212736   0.662   6.123   3.212
 4267TIP3    H112737   0.618   6.036   3.207
 4267TIP3    H212738   0.738   6.100   3.268
 4268TIP3   OH212739   0.713   5.799   3.781
 4268TIP3    H112740   0.640   5.809   3.846
 4268TIP3    H212741   0.754   5.888   3.784
 4269TIP3   OH212742   0.523   5.311   2.401
 4269TIP3    H112743   0.589   5.377   2.369
 4269TIP3    H212744   0.571   5.274   2.478
 4270TIP3   OH212745   0.652   5.179   2.604
 4270TIP3    H112746   0.588   5.138   2.666
 4270TIP3    H212747   0.721   5.215   2.665
 4271TIP3   OH212748   0.707   5.572   3.036
 4271TIP3    H112749   0.762   5.507   2.988
 4271TIP3    H212750   0.707   5.648   2.974
 4272TIP3   OH212751   0.537   5.869   3.231
 4272TIP3    H112752   0.467   5.916   3.281
 4272TIP3    H212753   0.485   5.826   3.160
 4273TIP3   OH212754   0.590   5.086   2.252
 4273TIP3    H112755   0.518   5.089   2.184
 4273TIP3    H212756   0.564   5.164   2.306
 4274TIP3   OH212757   0.459   4.760   2.205
 4274TIP3    H112758   0.421   4.800   2.127
 4274TIP3    H212759   0.433   4.666   2.193
 4275TIP3   OH212760   0.464   5.037   2.751
 4275TIP3    H112761   0.476   4.941   2.746
 4275TIP3    H212762   0.451   5.051   2.847
 4276TIP3   OH212763   0.755   5.461   3.610
 4276TIP3    H112764   0.826   5.395   3.598
 4276TIP3    H212765   0.780   5.531   3.548
 4277TIP3   OH212766   0.937   5.262   3.617
 4277TIP3    H112767   0.863   5.213   3.660
 4277TIP3    H212768   1.011   5.199   3.634
 4278TIP3   OH212769   0.396   4.494   2.192
 4278TIP3    H112770   0.462   4.460   2.255
 4278TIP3    H212771   0.318   4.437   2.207
 4279TIP3   OH212772   0.462   4.752   2.642
 4279TIP3    H112773   0.504   4.664   2.656
 4279TIP3    H212774   0.520   4.787   2.572
 4280TIP3   OH212775   0.621   4.924   3.141
 4280TIP3    H112776   0.707   4.948   3.099
 4280TIP3    H212777   0.637   4.962   3.229
 4281TIP3   OH212778   0.693   5.070   3.371
 4281TIP3    H112779   0.617   5.106   3.421
 4281TIP3    H212780   0.726   5.151   3.326
 4282TIP3   OH212781   1.147   4.664   3.929
 4282TIP3    H112782   1.205   4.597   3.885
 4282TIP3    H212783   1.115   4.716   3.851
 4283TIP3   OH212784   0.569   4.501   2.682
 4283TIP3    H112785   0.620   4.486   2.764
 4283TIP3    H212786   0.508   4.425   2.683
 4284TIP3   OH212787   1.012   4.797   3.733
 4284TIP3    H112788   0.926   4.839   3.753
 4284TIP3    H212789   0.981   4.724   3.675
 4285TIP3   OH212790   0.652   4.435   2.312
 4285TIP3    H112791   0.672   4.414   2.220
 4285TIP3    H212792   0.707   4.515   2.325
 4286TIP3   OH212793   0.216   5.953   2.588
 4286TIP3    H112794   0.273   5.952   2.507
 4286TIP3    H212795   0.255   6.028   2.637
 4287TIP3   OH212796   0.112   6.192   3.524
 4287TIP3    H112797   0.178   6.135   3.483
 4287TIP3    H212798   0.170   6.252   3.576
 4288TIP3   OH212799   0.914   4.560   3.613
 4288TIP3    H112800   0.822   4.546   3.581
 4288TIP3    H212801   0.950   4.468   3.603
 4289TIP3   OH212802   0.097   6.010   3.254
 4289TIP3    H112803   0.012   6.043   3.285
 4289TIP3    H212804   0.129   6.086   3.203
 4290TIP3   OH212805   0.317   6.202   3.160
 4290TIP3    H112806   0.295   6.285   3.111
 4290TIP3    H212807   0.336   6.140   3.087
 4291TIP3   OH212808   0.112   4.477   3.222
 4291TIP3    H112809   0.076   4.400   3.270
 4291TIP3    H212810   0.191   4.438   3.179
 4292TIP3   OH212811   0.637   4.358   3.131
 4292TIP3    H112812   0.675   4.410   3.056
 4292TIP3    H212813   0.543   4.382   3.127
 4293TIP3   OH212814   0.738   4.455   2.895
 4293TIP3    H112815   0.814   4.407   2.857
 4293TIP3    H212816   0.770   4.548   2.886
 4294TIP3   OH212817  -0.178   4.220   3.136
 4294TIP3    H112818  -0.134   4.266   3.062
 4294TIP3    H212819  -0.121   4.244   3.212
 4295TIP3   OH212820   0.348   4.365   3.114
 4295TIP3    H112821   0.357   4.323   3.028
 4295TIP3    H212822   0.341   4.286   3.173
 4296TIP3   OH212823   0.388   4.288   2.676
 4296TIP3    H112824   0.299   4.326   2.686
 4296TIP3    H212825   0.376   4.202   2.723
 4297TIP3   OH212826   0.365   5.932   2.358
 4297TIP3    H112827   0.359   5.835   2.342
 4297TIP3    H212828   0.321   5.967   2.278
 4298TIP3   OH212829   0.650   4.530   4.044
 4298TIP3    H112830   0.668   4.498   4.136
 4298TIP3    H212831   0.739   4.523   4.004
 4299TIP3   OH212832   0.586   6.076   3.538
 4299TIP3    H112833   0.507   6.047   3.488
 4299TIP3    H212834   0.568   6.172   3.543
 4300TIP3   OH212835   1.854   5.452   2.301
 4300TIP3    H112836   1.824   5.543   2.280
 4300TIP3    H212837   1.779   5.401   2.268
 4301TIP3   OH212838   1.850   5.455   2.690
 4301TIP3    H112839   1.887   5.430   2.777
 4301TIP3    H212840   1.813   5.371   2.660
 4302TIP3   OH212841   1.150   5.344   3.054
 4302TIP3    H112842   1.181   5.276   3.117
 4302TIP3    H212843   1.229   5.398   3.043
 4303TIP3   OH212844   2.097   5.756   2.369
 4303TIP3    H112845   2.086   5.686   2.435
 4303TIP3    H212846   2.133   5.829   2.423
 4304TIP3   OH212847   1.126   5.756   2.772
 4304TIP3    H112848   1.117   5.658   2.773
 4304TIP3    H212849   1.223   5.764   2.764
 4305TIP3   OH212850   0.831   4.956   2.555
 4305TIP3    H112851   0.786   5.040   2.573
 4305TIP3    H212852   0.758   4.906   2.513
 4306TIP3   OH212853   0.888   5.245   2.734
 4306TIP3    H112854   0.939   5.169   2.769
 4306TIP3    H212855   0.952   5.288   2.676
 4307TIP3   OH212856   1.749   6.216   2.385
 4307TIP3    H112857   1.792   6.144   2.333
 4307TIP3    H212858   1.738   6.173   2.471
 4308TIP3   OH212859   1.651   5.677   2.734
 4308TIP3    H112860   1.693   5.600   2.691
 4308TIP3    H212861   1.733   5.726   2.757
 4309TIP3   OH212862   2.661   4.997   2.732
 4309TIP3    H112863   2.677   5.080   2.783
 4309TIP3    H212864   2.689   5.023   2.643
 4310TIP3   OH212865   2.061   5.180   2.763
 4310TIP3    H112866   2.105   5.096   2.784
 4310TIP3    H212867   2.031   5.162   2.672
 4311TIP3   OH212868   1.404   4.839   2.730
 4311TIP3    H112869   1.386   4.912   2.667
 4311TIP3    H212870   1.354   4.766   2.687
 4312TIP3   OH212871   2.100   4.930   2.351
 4312TIP3    H112872   2.171   4.916   2.417
 4312TIP3    H212873   2.153   4.964   2.276
 4313TIP3   OH212874   1.036   5.040   2.838
 4313TIP3    H112875   1.120   5.022   2.886
 4313TIP3    H212876   1.051   4.986   2.758
 4314TIP3   OH212877   1.476   5.237   2.635
 4314TIP3    H112878   1.571   5.214   2.646
 4314TIP3    H212879   1.438   5.153   2.601
 4315TIP3   OH212880   1.399   4.822   3.165
 4315TIP3    H112881   1.341   4.859   3.096
 4315TIP3    H212882   1.346   4.840   3.245
 4316TIP3   OH212883   1.740   5.671   2.172
 4316TIP3    H112884   1.703   5.659   2.083
 4316TIP3    H212885   1.696   5.755   2.199
 4317TIP3   OH212886   1.506   5.597   2.956
 4317TIP3    H112887   1.446   5.667   2.991
 4317TIP3    H212888   1.549   5.645   2.881
 4318TIP3   OH212889   2.302   4.936   2.532
 4318TIP3    H112890   2.288   4.896   2.619
 4318TIP3    H212891   2.359   5.012   2.554
 4319TIP3   OH212892   1.271   4.937   2.948
 4319TIP3    H112893   1.333   5.011   2.971
 4319TIP3    H212894   1.321   4.897   2.873
 4320TIP3   OH212895   1.336   5.795   3.056
 4320TIP3    H112896   1.311   5.882   3.019
 4320TIP3    H212897   1.257   5.777   3.111
 4321TIP3   OH212898   0.723   5.482   2.294
 4321TIP3    H112899   0.685   5.509   2.207
 4321TIP3    H212900   0.754   5.569   2.328
 4322TIP3   OH212901   2.170   6.004   2.540
 4322TIP3    H112902   2.078   5.992   2.574
 4322TIP3    H212903   2.161   6.089   2.493
 4323TIP3   OH212904   2.460   4.882   2.890
 4323TIP3    H112905   2.378   4.927   2.865
 4323TIP3    H212906   2.525   4.922   2.829
 4324TIP3   OH212907   1.750   4.536   2.878
 4324TIP3    H112908   1.738   4.442   2.900
 4324TIP3    H212909   1.674   4.576   2.926
 4325TIP3   OH212910   1.865   6.043   2.204
 4325TIP3    H112911   1.916   5.961   2.185
 4325TIP3    H212912   1.927   6.109   2.165
 4326TIP3   OH212913   2.009   5.828   2.117
 4326TIP3    H112914   1.978   5.746   2.077
 4326TIP3    H212915   2.047   5.795   2.202
 4327TIP3   OH212916   2.441   5.898   2.872
 4327TIP3    H112917   2.419   5.829   2.805
 4327TIP3    H212918   2.421   5.979   2.822
 4328TIP3   OH212919   1.684   5.303   2.136
 4328TIP3    H112920   1.605   5.357   2.115
 4328TIP3    H212921   1.731   5.302   2.051
 4329TIP3   OH212922   1.643   5.090   1.848
 4329TIP3    H112923   1.710   5.142   1.898
 4329TIP3    H212924   1.701   5.028   1.800
 4330TIP3   OH212925   2.627   5.630   2.755
 4330TIP3    H112926   2.529   5.623   2.748
 4330TIP3    H212927   2.650   5.626   2.660
 4331TIP3   OH212928   2.032   5.386   2.104
 4331TIP3    H112929   1.978   5.411   2.183
 4331TIP3    H212930   2.116   5.361   2.148
 4332TIP3   OH212931   2.258   5.421   3.040
 4332TIP3    H112932   2.240   5.505   3.085
 4332TIP3    H212933   2.188   5.420   2.973
 4333TIP3   OH212934   1.264   5.382   2.525
 4333TIP3    H112935   1.225   5.324   2.456
 4333TIP3    H212936   1.342   5.329   2.554
 4334TIP3   OH212937   1.393   5.793   2.671
 4334TIP3    H112938   1.375   5.761   2.581
 4334TIP3    H212939   1.483   5.758   2.687
 4335TIP3   OH212940   1.395   5.357   2.877
 4335TIP3    H112941   1.431   5.331   2.789
 4335TIP3    H212942   1.442   5.441   2.895
 4336TIP3   OH212943   1.925   5.994   2.655
 4336TIP3    H112944   1.912   6.073   2.710
 4336TIP3    H212945   1.910   5.920   2.717
 4337TIP3   OH212946   1.540   5.909   3.203
 4337TIP3    H112947   1.479   5.973   3.247
 4337TIP3    H212948   1.475   5.858   3.151
 4338TIP3   OH212949   1.870   5.245   1.933
 4338TIP3    H112950   1.931   5.305   1.983
 4338TIP3    H212951   1.896   5.267   1.840
 4339TIP3   OH212952   1.296   5.465   3.308
 4339TIP3    H112953   1.299   5.554   3.348
 4339TIP3    H212954   1.200   5.446   3.317
 4340TIP3   OH212955   1.618   5.921   2.208
 4340TIP3    H112956   1.700   5.973   2.217
 4340TIP3    H212957   1.558   5.984   2.166
 4341TIP3   OH212958   1.334   6.076   3.289
 4341TIP3    H112959   1.299   6.080   3.198
 4341TIP3    H212960   1.253   6.055   3.341
 4342TIP3   OH212961   2.388   4.484   1.982
 4342TIP3    H112962   2.307   4.507   2.032
 4342TIP3    H212963   2.403   4.566   1.930
 4343TIP3   OH212964   1.133   5.227   2.325
 4343TIP3    H112965   1.064   5.273   2.271
 4343TIP3    H212966   1.092   5.141   2.339
 4344TIP3   OH212967   2.189   5.850   1.531
 4344TIP3    H112968   2.196   5.947   1.515
 4344TIP3    H212969   2.282   5.822   1.518
 4345TIP3   OH212970   0.911   5.611   3.236
 4345TIP3    H112971   0.845   5.589   3.167
 4345TIP3    H212972   0.950   5.524   3.258
 4346TIP3   OH212973   0.767   5.801   2.871
 4346TIP3    H112974   0.863   5.800   2.860
 4346TIP3    H212975   0.754   5.882   2.923
 4347TIP3   OH212976   2.624   6.262   2.924
 4347TIP3    H112977   2.596   6.172   2.905
 4347TIP3    H212978   2.547   6.292   2.977
 4348TIP3   OH212979   1.737   6.038   3.060
 4348TIP3    H112980   1.734   6.131   3.091
 4348TIP3    H212981   1.665   5.998   3.114
 4349TIP3   OH212982   1.500   6.167   2.012
 4349TIP3    H112983   1.453   6.150   1.929
 4349TIP3    H212984   1.467   6.255   2.038
 4350TIP3   OH212985   0.936   6.018   2.396
 4350TIP3    H112986   0.983   6.008   2.482
 4350TIP3    H212987   0.881   5.938   2.396
 4351TIP3   OH212988   1.699   6.071   1.649
 4351TIP3    H112989   1.756   6.000   1.613
 4351TIP3    H212990   1.734   6.081   1.740
 4352TIP3   OH212991   1.751   6.121   1.918
 4352TIP3    H112992   1.663   6.130   1.959
 4352TIP3    H212993   1.802   6.082   1.991
 4353TIP3   OH212994   2.510   5.393   3.183
 4353TIP3    H112995   2.433   5.385   3.124
 4353TIP3    H212996   2.537   5.299   3.190
 4354TIP3   OH212997   1.117   5.792   3.219
 4354TIP3    H112998   1.165   5.778   3.303
 4354TIP3    H212999   1.042   5.731   3.228
 4355TIP3   OH213000   1.515   4.616   3.011
 4355TIP3    H113001   1.426   4.587   2.983
 4355TIP3    H213002   1.490   4.698   3.059
 4356TIP3   OH213003   2.053   4.730   3.204
 4356TIP3    H113004   2.122   4.703   3.267
 4356TIP3    H213005   1.970   4.711   3.253
 4357TIP3   OH213006   2.283   5.153   3.111
 4357TIP3    H113007   2.242   5.155   3.200
 4357TIP3    H213008   2.269   5.245   3.080
 4358TIP3   OH213009   1.948   5.286   1.677
 4358TIP3    H113010   1.914   5.264   1.588
 4358TIP3    H213011   2.032   5.330   1.653
 4359TIP3   OH213012   1.656   4.666   1.980
 4359TIP3    H113013   1.625   4.662   2.073
 4359TIP3    H213014   1.621   4.581   1.947
 4360TIP3   OH213015   1.447   5.134   3.026
 4360TIP3    H113016   1.398   5.154   3.108
 4360TIP3    H213017   1.430   5.216   2.973
 4361TIP3   OH213018   1.332   5.019   2.540
 4361TIP3    H113019   1.239   4.993   2.559
 4361TIP3    H213020   1.344   4.977   2.452
 4362TIP3   OH213021   1.820   5.101   2.269
 4362TIP3    H113022   1.770   5.174   2.225
 4362TIP3    H213023   1.877   5.070   2.196
 4363TIP3   OH213024   1.997   5.381   3.355
 4363TIP3    H113025   1.974   5.307   3.416
 4363TIP3    H213026   2.092   5.391   3.374
 4364TIP3   OH213027   1.976   5.129   2.506
 4364TIP3    H113028   1.916   5.157   2.435
 4364TIP3    H213029   2.013   5.049   2.462
 4365TIP3   OH213030   1.267   5.161   3.236
 4365TIP3    H113031   1.299   5.224   3.302
 4365TIP3    H213032   1.257   5.079   3.289
 4366TIP3   OH213033   1.307   4.629   1.947
 4366TIP3    H113034   1.304   4.640   2.044
 4366TIP3    H213035   1.239   4.693   1.918
 4367TIP3   OH213036   0.855   4.687   2.827
 4367TIP3    H113037   0.935   4.717   2.874
 4367TIP3    H213038   0.888   4.658   2.740
 4368TIP3   OH213039   0.818   4.657   2.331
 4368TIP3    H113040   0.858   4.701   2.252
 4368TIP3    H213041   0.762   4.731   2.362
 4369TIP3   OH213042   1.976   5.376   2.926
 4369TIP3    H113043   2.014   5.307   2.868
 4369TIP3    H213044   1.953   5.322   3.004
 4370TIP3   OH213045   1.661   4.839   2.601
 4370TIP3    H113046   1.583   4.839   2.659
 4370TIP3    H213047   1.735   4.832   2.665
 4371TIP3   OH213048   1.093   4.898   2.609
 4371TIP3    H113049   0.999   4.903   2.581
 4371TIP3    H213050   1.117   4.806   2.587
 4372TIP3   OH213051   1.358   4.888   2.301
 4372TIP3    H113052   1.452   4.906   2.282
 4372TIP3    H213053   1.313   4.913   2.216
 4373TIP3   OH213054   2.145   4.919   2.803
 4373TIP3    H113055   2.114   4.930   2.895
 4373TIP3    H213056   2.078   4.858   2.768
 4374TIP3   OH213057   1.210   4.924   2.073
 4374TIP3    H113058   1.141   4.882   2.018
 4374TIP3    H213059   1.264   4.967   2.003
 4375TIP3   OH213060   2.325   6.607   3.025
 4375TIP3    H113061   2.322   6.628   2.930
 4375TIP3    H213062   2.405   6.654   3.053
 4376TIP3   OH213063   1.278   5.714   3.444
 4376TIP3    H113064   1.358   5.745   3.491
 4376TIP3    H213065   1.213   5.716   3.517
 4377TIP3   OH213066   1.742   5.170   2.698
 4377TIP3    H113067   1.816   5.133   2.647
 4377TIP3    H213068   1.751   5.125   2.784
 4378TIP3   OH213069   1.259   4.657   2.582
 4378TIP3    H113070   1.225   4.578   2.630
 4378TIP3    H213071   1.314   4.616   2.514
 4379TIP3   OH213072   1.717   5.067   2.991
 4379TIP3    H113073   1.628   5.104   3.005
 4379TIP3    H213074   1.775   5.128   3.040
 4380TIP3   OH213075   1.454   5.455   2.083
 4380TIP3    H113076   1.381   5.391   2.071
 4380TIP3    H213077   1.435   5.489   2.173
 4381TIP3   OH213078   2.345   5.695   2.716
 4381TIP3    H113079   2.373   5.741   2.632
 4381TIP3    H213080   2.262   5.652   2.688
 4382TIP3   OH213081   1.911   4.765   1.954
 4382TIP3    H113082   1.814   4.750   1.959
 4382TIP3    H213083   1.921   4.860   1.974
 4383TIP3   OH213084   1.863   5.778   3.082
 4383TIP3    H113085   1.878   5.756   3.175
 4383TIP3    H213086   1.818   5.864   3.086
 4384TIP3   OH213087   1.980   5.016   2.052
 4384TIP3    H113088   2.077   5.022   2.067
 4384TIP3    H213089   1.962   5.096   1.999
 4385TIP3   OH213090   1.145   5.474   2.758
 4385TIP3    H113091   1.185   5.450   2.672
 4385TIP3    H213092   1.197   5.420   2.819
 4386TIP3   OH213093   1.601   5.606   1.907
 4386TIP3    H113094   1.552   5.691   1.911
 4386TIP3    H213095   1.546   5.551   1.968
 4387TIP3   OH213096   1.030   5.399   3.373
 4387TIP3    H113097   1.050   5.385   3.468
 4387TIP3    H213098   0.961   5.331   3.358
 4388TIP3   OH213099   1.756   5.516   3.393
 4388TIP3    H113100   1.696   5.457   3.344
 4388TIP3    H213101   1.843   5.480   3.365
 4389TIP3   OH213102   2.015   6.036   2.977
 4389TIP3    H113103   1.918   6.033   2.990
 4389TIP3    H213104   2.041   6.088   3.056
 4390TIP3   OH213105   2.421   5.110   1.887
 4390TIP3    H113106   2.359   5.065   1.824
 4390TIP3    H213107   2.418   5.199   1.846
 4391TIP3   OH213108   2.127   5.926   1.796
 4391TIP3    H113109   2.098   5.856   1.856
 4391TIP3    H213110   2.138   5.880   1.711
 4392TIP3   OH213111   2.116   5.555   2.627
 4392TIP3    H113112   2.023   5.528   2.638
 4392TIP3    H213113   2.153   5.475   2.584
 4393TIP3   OH213114   1.251   5.785   2.387
 4393TIP3    H113115   1.250   5.865   2.331
 4393TIP3    H213116   1.156   5.768   2.396
 4394TIP3   OH213117   0.817   5.084   2.094
 4394TIP3    H113118   0.861   5.170   2.112
 4394TIP3    H213119   0.739   5.091   2.152
 4395TIP3   OH213120   1.379   5.546   2.326
 4395TIP3    H113121   1.348   5.637   2.345
 4395TIP3    H213122   1.345   5.497   2.404
 4396TIP3   OH213123   1.519   6.125   2.852
 4396TIP3    H113124   1.559   6.199   2.801
 4396TIP3    H213125   1.597   6.091   2.899
 4397TIP3   OH213126   1.168   6.022   2.238
 4397TIP3    H113127   1.082   6.031   2.283
 4397TIP3    H213128   1.200   6.115   2.240
 4398TIP3   OH213129   1.903   5.762   2.812
 4398TIP3    H113130   1.896   5.760   2.910
 4398TIP3    H213131   1.978   5.704   2.796
 4399TIP3   OH213132   1.883   5.656   1.697
 4399TIP3    H113133   1.936   5.630   1.776
 4399TIP3    H213134   1.795   5.627   1.725
 4400TIP3   OH213135   2.155   6.293   2.862
 4400TIP3    H113136   2.075   6.237   2.855
 4400TIP3    H213137   2.139   6.357   2.789
 4401TIP3   OH213138   2.219   6.126   1.514
 4401TIP3    H113139   2.253   6.198   1.458
 4401TIP3    H213140   2.139   6.171   1.550
 4402TIP3   OH213141   1.239   4.905   3.379
 4402TIP3    H113142   1.142   4.905   3.391
 4402TIP3    H213143   1.267   4.847   3.452
 4403TIP3   OH213144   2.043   5.588   1.912
 4403TIP3    H113145   2.033   5.520   1.983
 4403TIP3    H213146   2.140   5.585   1.899
 4404TIP3   OH213147   0.956   5.988   3.011
 4404TIP3    H113148   1.012   5.919   3.050
 4404TIP3    H213149   0.981   6.065   3.064
 4405TIP3   OH213150   1.245   5.635   1.697
 4405TIP3    H113151   1.257   5.543   1.668
 4405TIP3    H213152   1.225   5.623   1.792
 4406TIP3   OH213153   1.189   5.639   1.969
 4406TIP3    H113154   1.265   5.614   2.024
 4406TIP3    H213155   1.192   5.737   1.976
 4407TIP3   OH213156   0.923   5.331   2.173
 4407TIP3    H113157   0.856   5.377   2.228
 4407TIP3    H213158   0.937   5.399   2.104
 4408TIP3   OH213159   2.075   4.970   3.064
 4408TIP3    H113160   2.158   5.011   3.093
 4408TIP3    H213161   2.070   4.889   3.120
 4409TIP3   OH213162   1.958   4.716   2.232
 4409TIP3    H113163   1.946   4.739   2.138
 4409TIP3    H213164   2.000   4.798   2.268
 4410TIP3   OH213165   1.457   5.835   1.916
 4410TIP3    H113166   1.370   5.861   1.952
 4410TIP3    H213167   1.474   5.910   1.857
 4411TIP3   OH213168   1.639   4.901   2.331
 4411TIP3    H113169   1.704   4.972   2.313
 4411TIP3    H213170   1.648   4.891   2.428
 4412TIP3   OH213171   1.915   5.214   3.137
 4412TIP3    H113172   1.943   5.265   3.216
 4412TIP3    H213173   1.972   5.135   3.143
 4413TIP3   OH213174   1.787   4.619   2.429
 4413TIP3    H113175   1.786   4.693   2.492
 4413TIP3    H213176   1.850   4.654   2.362
 4414TIP3   OH213177   1.202   5.910   1.986
 4414TIP3    H113178   1.173   5.981   1.923
 4414TIP3    H213179   1.186   5.955   2.072
 4415TIP3   OH213180   1.301   4.625   2.222
 4415TIP3    H113181   1.297   4.714   2.260
 4415TIP3    H213182   1.397   4.608   2.230
 4416TIP3   OH213183   2.557   5.119   3.144
 4416TIP3    H113184   2.463   5.103   3.120
 4416TIP3    H213185   2.597   5.143   3.058
 4417TIP3   OH213186   2.205   5.312   2.508
 4417TIP3    H113187   2.131   5.251   2.521
 4417TIP3    H213188   2.277   5.269   2.559
 4418TIP3   OH213189   0.920   5.536   1.977
 4418TIP3    H113190   0.988   5.605   1.985
 4418TIP3    H213191   0.964   5.479   1.909
 4419TIP3   OH213192   0.858   4.811   2.111
 4419TIP3    H113193   0.868   4.909   2.111
 4419TIP3    H213194   0.779   4.801   2.056
 4420TIP3   OH213195   2.174   6.275   2.457
 4420TIP3    H113196   2.131   6.320   2.382
 4420TIP3    H213197   2.268   6.291   2.434
 4421TIP3   OH213198   1.250   4.537   2.982
 4421TIP3    H113199   1.221   4.502   2.895
 4421TIP3    H213200   1.240   4.458   3.040
 4422TIP3   OH213201   0.784   5.750   2.361
 4422TIP3    H113202   0.721   5.785   2.425
 4422TIP3    H213203   0.753   5.796   2.278
 4423TIP3   OH213204   0.950   6.302   3.433
 4423TIP3    H113205   1.036   6.304   3.481
 4423TIP3    H213206   0.930   6.207   3.433
 4424TIP3   OH213207   1.425   6.256   3.482
 4424TIP3    H113208   1.520   6.241   3.486
 4424TIP3    H213209   1.400   6.197   3.409
 4425TIP3   OH213210   1.409   5.836   1.606
 4425TIP3    H113211   1.354   5.764   1.645
 4425TIP3    H213212   1.484   5.784   1.572
 4426TIP3   OH213213   2.066   6.169   3.213
 4426TIP3    H113214   2.060   6.098   3.282
 4426TIP3    H213215   2.143   6.221   3.245
 4427TIP3   OH213216   1.844   5.875   1.520
 4427TIP3    H113217   1.886   5.810   1.580
 4427TIP3    H213218   1.901   5.872   1.441
 4428TIP3   OH213219   1.076   5.704   3.636
 4428TIP3    H113220   1.093   5.608   3.640
 4428TIP3    H213221   0.989   5.707   3.590
 4429TIP3   OH213222   1.056   5.351   1.833
 4429TIP3    H113223   1.115   5.323   1.905
 4429TIP3    H213224   1.121   5.356   1.759
 4430TIP3   OH213225   1.684   5.791   3.409
 4430TIP3    H113226   1.641   5.811   3.323
 4430TIP3    H213227   1.714   5.699   3.398
 4431TIP3   OH213228   1.571   5.553   1.638
 4431TIP3    H113229   1.571   5.565   1.735
 4431TIP3    H213230   1.570   5.455   1.632
 4432TIP3   OH213231   2.187   5.803   3.017
 4432TIP3    H113232   2.245   5.847   2.952
 4432TIP3    H213233   2.107   5.858   3.009
 4433TIP3   OH213234   1.195   5.439   3.620
 4433TIP3    H113235   1.275   5.393   3.590
 4433TIP3    H213236   1.224   5.472   3.708
 4434TIP3   OH213237   1.257   5.260   2.047
 4434TIP3    H113238   1.235   5.221   2.132
 4434TIP3    H213239   1.297   5.185   1.998
 4435TIP3   OH213240   1.530   5.320   3.278
 4435TIP3    H113241   1.454   5.382   3.280
 4435TIP3    H213242   1.581   5.356   3.202
 4436TIP3   OH213243   1.366   5.054   1.891
 4436TIP3    H113244   1.340   5.061   1.797
 4436TIP3    H213245   1.464   5.059   1.882
 4437TIP3   OH213246   2.051   5.724   3.410
 4437TIP3    H113247   2.126   5.688   3.359
 4437TIP3    H213248   2.044   5.659   3.483
 4438TIP3   OH213249   2.182   5.381   1.559
 4438TIP3    H113250   2.162   5.336   1.474
 4438TIP3    H213251   2.150   5.471   1.536
 4439TIP3   OH213252   1.654   5.112   3.405
 4439TIP3    H113253   1.656   5.033   3.346
 4439TIP3    H213254   1.611   5.179   3.346
 4440TIP3   OH213255   1.658   4.898   3.214
 4440TIP3    H113256   1.687   4.940   3.130
 4440TIP3    H213257   1.565   4.875   3.194
 4441TIP3   OH213258   1.682   5.433   3.088
 4441TIP3    H113259   1.766   5.440   3.042
 4441TIP3    H213260   1.627   5.498   3.039
 4442TIP3   OH213261   2.266   5.397   3.464
 4442TIP3    H113262   2.308   5.311   3.474
 4442TIP3    H213263   2.337   5.450   3.425
 4443TIP3   OH213264   2.297   5.666   3.219
 4443TIP3    H113265   2.244   5.718   3.154
 4443TIP3    H213266   2.383   5.668   3.179
 4444TIP3   OH213267   1.534   5.218   3.638
 4444TIP3    H113268   1.465   5.150   3.652
 4444TIP3    H213269   1.567   5.193   3.549
 4445TIP3   OH213270   1.790   4.661   3.284
 4445TIP3    H113271   1.741   4.743   3.259
 4445TIP3    H213272   1.721   4.593   3.271
 4446TIP3   OH213273   1.915   5.163   3.496
 4446TIP3    H113274   1.902   5.149   3.592
 4446TIP3    H213275   1.826   5.139   3.464
 4447TIP3   OH213276   2.158   5.121   3.350
 4447TIP3    H113277   2.083   5.117   3.412
 4447TIP3    H213278   2.232   5.088   3.406
 4448TIP3   OH213279   2.380   5.056   3.503
 4448TIP3    H113280   2.396   4.960   3.517
 4448TIP3    H213281   2.380   5.092   3.594
 4449TIP3   OH213282   1.370   4.999   3.693
 4449TIP3    H113283   1.376   4.908   3.659
 4449TIP3    H213284   1.409   4.987   3.782
 4450TIP3   OH213285   1.880   4.669   3.543
 4450TIP3    H113286   1.949   4.599   3.535
 4450TIP3    H213287   1.843   4.666   3.452
 4451TIP3   OH213288   1.948   4.883   3.701
 4451TIP3    H113289   1.927   4.813   3.635
 4451TIP3    H213290   1.870   4.943   3.692
 4452TIP3   OH213291   1.175   6.113   1.800
 4452TIP3    H113292   1.269   6.106   1.779
 4452TIP3    H213293   1.144   6.164   1.723
 4453TIP3   OH213294   0.652   5.494   2.014
 4453TIP3    H113295   0.747   5.517   1.999
 4453TIP3    H213296   0.646   5.407   1.971
 4454TIP3   OH213297   0.565   6.110   2.429
 4454TIP3    H113298   0.500   6.047   2.391
 4454TIP3    H213299   0.611   6.051   2.492
 4455TIP3   OH213300   0.702   5.955   2.612
 4455TIP3    H113301   0.688   5.886   2.679
 4455TIP3    H213302   0.754   6.019   2.664
 4456TIP3   OH213303   2.430   6.359   2.413
 4456TIP3    H113304   2.458   6.391   2.501
 4456TIP3    H213305   2.498   6.396   2.354
 4457TIP3   OH213306   2.456   6.382   2.696
 4457TIP3    H113307   2.409   6.295   2.694
 4457TIP3    H213308   2.533   6.358   2.749
 4458TIP3   OH213309   2.508   6.057   3.269
 4458TIP3    H113310   2.434   6.065   3.331
 4458TIP3    H213311   2.546   6.147   3.271
 4459TIP3   OH213312   2.321   5.568   1.888
 4459TIP3    H113313   2.388   5.633   1.858
 4459TIP3    H213314   2.366   5.530   1.967
 4460TIP3   OH213315   2.449   5.436   2.093
 4460TIP3    H113316   2.382   5.394   2.152
 4460TIP3    H213317   2.514   5.473   2.156
 4461TIP3   OH213318   2.481   5.822   2.516
 4461TIP3    H113319   2.553   5.761   2.488
 4461TIP3    H213320   2.490   5.895   2.453
 4462TIP3   OH213321   2.341   6.123   2.730
 4462TIP3    H113322   2.266   6.162   2.778
 4462TIP3    H213323   2.295   6.072   2.660
 4463TIP3   OH213324   2.385   5.344   1.738
 4463TIP3    H113325   2.313   5.346   1.671
 4463TIP3    H213326   2.358   5.421   1.793
 4464TIP3   OH213327   2.254   5.018   1.693
 4464TIP3    H113328   2.212   5.052   1.613
 4464TIP3    H213329   2.232   4.922   1.684
 4465TIP3   OH213330   2.259   5.295   2.237
 4465TIP3    H113331   2.270   5.198   2.231
 4465TIP3    H213332   2.246   5.308   2.333
 4466TIP3   OH213333   0.886   5.365   2.987
 4466TIP3    H113334   0.884   5.332   2.894
 4466TIP3    H213335   0.984   5.367   3.002
 4467TIP3   OH213336   2.592   5.737   3.063
 4467TIP3    H113337   2.548   5.632   3.072
 4467TIP3    H213338   2.499   5.773   2.988
 4468TIP3   OH213339   2.738   5.523   3.118
 4468TIP3    H113340   2.662   5.460   3.131
 4468TIP3    H213341   2.811   5.458   3.135
 4469TIP3   OH213342   2.200   4.751   1.677
 4469TIP3    H113343   2.275   4.719   1.731
 4469TIP3    H213344   2.128   4.690   1.699
 4470TIP3   OH213345   2.258   5.010   2.129
 4470TIP3    H113346   2.300   4.922   2.144
 4470TIP3    H213347   2.316   5.044   2.059
 4471TIP3   OH213348   2.417   5.186   2.634
 4471TIP3    H113349   2.498   5.215   2.585
 4471TIP3    H213350   2.445   5.210   2.724
 4472TIP3   OH213351   1.103   5.049   3.657
 4472TIP3    H113352   1.201   5.046   3.662
 4472TIP3    H213353   1.081   4.963   3.698
 4473TIP3   OH213354   2.940   4.922   3.413
 4473TIP3    H113355   2.999   4.857   3.369
 4473TIP3    H213356   2.909   4.976   3.337
 4474TIP3   OH213357   2.366   4.761   2.170
 4474TIP3    H113358   2.415   4.744   2.254
 4474TIP3    H213359   2.307   4.683   2.168
 4475TIP3   OH213360   1.068   4.746   2.993
 4475TIP3    H113361   1.130   4.671   3.001
 4475TIP3    H213362   1.130   4.821   2.983
 4476TIP3   OH213363   0.865   5.018   3.061
 4476TIP3    H113364   0.917   5.014   2.978
 4476TIP3    H213365   0.895   5.102   3.098
 4477TIP3   OH213366   2.812   5.060   3.220
 4477TIP3    H113367   2.722   5.099   3.223
 4477TIP3    H213368   2.794   4.990   3.155
 4478TIP3   OH213369   2.444   4.691   1.804
 4478TIP3    H113370   2.485   4.621   1.749
 4478TIP3    H213371   2.511   4.762   1.801
 4479TIP3   OH213372   0.853   4.547   2.583
 4479TIP3    H113373   0.759   4.526   2.596
 4479TIP3    H213374   0.854   4.580   2.491
 4480TIP3   OH213375   2.014   6.227   2.072
 4480TIP3    H113376   2.064   6.213   1.989
 4480TIP3    H213377   2.066   6.296   2.115
 4481TIP3   OH213378   1.074   4.604   3.379
 4481TIP3    H113379   1.021   4.596   3.460
 4481TIP3    H213380   1.007   4.640   3.317
 4482TIP3   OH213381   1.113   6.027   3.452
 4482TIP3    H113382   1.019   6.007   3.438
 4482TIP3    H213383   1.122   6.016   3.548
 4483TIP3   OH213384   1.294   6.065   3.003
 4483TIP3    H113385   1.245   6.141   2.965
 4483TIP3    H213386   1.379   6.079   2.956
 4484TIP3   OH213387   1.732   6.304   3.139
 4484TIP3    H113388   1.774   6.305   3.228
 4484TIP3    H213389   1.797   6.357   3.088
 4485TIP3   OH213390   1.912   6.460   3.003
 4485TIP3    H113391   1.981   6.409   2.959
 4485TIP3    H213392   1.965   6.516   3.063
 4486TIP3   OH213393   2.715   4.821   3.100
 4486TIP3    H113394   2.625   4.827   3.062
 4486TIP3    H213395   2.737   4.726   3.085
 4487TIP3   OH213396   0.967   6.317   3.030
 4487TIP3    H113397   0.876   6.348   3.007
 4487TIP3    H213398   0.982   6.369   3.110
 4488TIP3   OH213399   1.203   6.298   2.886
 4488TIP3    H113400   1.115   6.310   2.930
 4488TIP3    H213401   1.184   6.331   2.796
 4489TIP3   OH213402   1.628   6.323   2.684
 4489TIP3    H113403   1.559   6.341   2.618
 4489TIP3    H213404   1.640   6.412   2.724
 4490TIP3   OH213405   1.897   6.267   2.738
 4490TIP3    H113406   1.802   6.280   2.718
 4490TIP3    H213407   1.937   6.341   2.688
 4491TIP3   OH213408   2.111   6.462   2.648
 4491TIP3    H113409   2.086   6.542   2.597
 4491TIP3    H213410   2.133   6.399   2.576
 4492TIP3   OH213411   0.878   6.112   2.769
 4492TIP3    H113412   0.904   6.084   2.860
 4492TIP3    H213413   0.951   6.070   2.719
 4493TIP3   OH213414   1.074   5.985   2.631
 4493TIP3    H113415   1.089   5.901   2.680
 4493TIP3    H213416   1.165   6.021   2.627
 4494TIP3   OH213417   1.340   6.077   2.636
 4494TIP3    H113418   1.371   5.985   2.624
 4494TIP3    H213419   1.388   6.100   2.717
 4495TIP3   OH213420   1.909   4.732   2.713
 4495TIP3    H113421   1.872   4.660   2.767
 4495TIP3    H213422   1.988   4.690   2.672
 4496TIP3   OH213423   2.433   4.609   2.619
 4496TIP3    H113424   2.472   4.664   2.547
 4496TIP3    H213425   2.341   4.640   2.619
 4497TIP3   OH213426   2.531   4.715   2.387
 4497TIP3    H113427   2.605   4.662   2.349
 4497TIP3    H213428   2.566   4.806   2.372
 4498TIP3   OH213429   1.166   4.442   2.734
 4498TIP3    H113430   1.073   4.411   2.735
 4498TIP3    H213431   1.213   4.356   2.732
 4499TIP3   OH213432   1.607   4.476   2.617
 4499TIP3    H113433   1.663   4.523   2.553
 4499TIP3    H213434   1.640   4.512   2.701
 4500TIP3   OH213435   2.144   4.624   2.601
 4500TIP3    H113436   2.157   4.585   2.514
 4500TIP3    H213437   2.135   4.543   2.657
 4501TIP3   OH213438   2.184   4.548   2.162
 4501TIP3    H113439   2.098   4.592   2.179
 4501TIP3    H213440   2.169   4.462   2.207
 4502TIP3   OH213441   0.665   5.886   2.163
 4502TIP3    H113442   0.578   5.859   2.128
 4502TIP3    H213443   0.666   5.979   2.130
 4503TIP3   OH213444   1.075   4.439   2.127
 4503TIP3    H113445   1.162   4.453   2.085
 4503TIP3    H213446   1.083   4.503   2.200
 4504TIP3   OH213447   1.577   4.649   2.245
 4504TIP3    H113448   1.640   4.606   2.305
 4504TIP3    H213449   1.595   4.743   2.269
 4505TIP3   OH213450   1.440   6.069   1.745
 4505TIP3    H113451   1.527   6.093   1.708
 4505TIP3    H213452   1.417   5.995   1.685
 4506TIP3   OH213453   2.160   6.193   1.839
 4506TIP3    H113454   2.152   6.095   1.827
 4506TIP3    H213455   2.113   6.225   1.759
 4507TIP3   OH213456   1.369   4.724   3.626
 4507TIP3    H113457   1.335   4.653   3.683
 4507TIP3    H213458   1.464   4.724   3.653
 4508TIP3   OH213459   1.620   4.724   3.743
 4508TIP3    H113460   1.705   4.700   3.701
 4508TIP3    H213461   1.608   4.650   3.807
 4509TIP3   OH213462   0.738   5.891   1.810
 4509TIP3    H113463   0.740   5.933   1.898
 4509TIP3    H213464   0.831   5.861   1.799
 4510TIP3   OH213465   2.447   4.786   3.532
 4510TIP3    H113466   2.467   4.755   3.623
 4510TIP3    H213467   2.535   4.782   3.489
 4511TIP3   OH213468   2.380   6.337   3.027
 4511TIP3    H113469   2.303   6.306   2.975
 4511TIP3    H213470   2.359   6.433   3.033
 4512TIP3   OH213471   3.651   5.710   1.788
 4512TIP3    H113472   3.619   5.800   1.766
 4512TIP3    H213473   3.577   5.657   1.754
 4513TIP3   OH213474   3.649   5.711   2.177
 4513TIP3    H113475   3.685   5.682   2.263
 4513TIP3    H213476   3.610   5.629   2.143
 4514TIP3   OH213477   2.960   5.621   2.558
 4514TIP3    H113478   2.979   5.537   2.604
 4514TIP3    H213479   3.039   5.629   2.501
 4515TIP3   OH213480   3.897   6.012   1.855
 4515TIP3    H113481   3.879   5.943   1.921
 4515TIP3    H213482   3.926   6.086   1.911
 4516TIP3   OH213483   2.925   6.017   2.266
 4516TIP3    H113484   2.914   5.919   2.264
 4516TIP3    H213485   3.021   6.023   2.250
 4517TIP3   OH213486   2.627   5.216   2.042
 4517TIP3    H113487   2.578   5.298   2.060
 4517TIP3    H213488   2.557   5.163   2.000
 4518TIP3   OH213489   2.687   5.503   2.220
 4518TIP3    H113490   2.736   5.426   2.256
 4518TIP3    H213491   2.745   5.530   2.147
 4519TIP3   OH213492   3.548   6.473   1.873
 4519TIP3    H113493   3.588   6.402   1.818
 4519TIP3    H213494   3.538   6.429   1.958
 4520TIP3   OH213495   3.447   5.935   2.222
 4520TIP3    H113496   3.487   5.858   2.178
 4520TIP3    H213497   3.529   5.982   2.246
 4521TIP3   OH213498   4.464   5.254   2.218
 4521TIP3    H113499   4.494   5.338   2.258
 4521TIP3    H213500   4.486   5.268   2.124
 4522TIP3   OH213501   3.861   5.435   2.250
 4522TIP3    H113502   3.904   5.349   2.270
 4522TIP3    H213503   3.828   5.418   2.159
 4523TIP3   OH213504   3.201   5.096   2.216
 4523TIP3    H113505   3.181   5.167   2.152
 4523TIP3    H213506   3.153   5.021   2.173
 4524TIP3   OH213507   3.895   5.189   1.836
 4524TIP3    H113508   3.967   5.174   1.902
 4524TIP3    H213509   3.948   5.221   1.761
 4525TIP3   OH213510   2.839   5.300   2.324
 4525TIP3    H113511   2.920   5.274   2.372
 4525TIP3    H213512   2.848   5.244   2.244
 4526TIP3   OH213513   3.268   5.494   2.130
 4526TIP3    H113514   3.364   5.471   2.136
 4526TIP3    H213515   3.232   5.411   2.092
 4527TIP3   OH213516   4.539   5.465   2.385
 4527TIP3    H113517   4.453   5.509   2.367
 4527TIP3    H213518   4.550   5.487   2.479
 4528TIP3   OH213519   3.194   5.080   2.655
 4528TIP3    H113520   3.134   5.114   2.586
 4528TIP3    H213521   3.139   5.096   2.735
 4529TIP3   OH213522   3.535   5.927   1.661
 4529TIP3    H113523   3.499   5.914   1.572
 4529TIP3    H213524   3.491   6.011   1.686
 4530TIP3   OH213525   3.301   5.854   2.441
 4530TIP3    H113526   3.243   5.925   2.476
 4530TIP3    H213527   3.347   5.900   2.367
 4531TIP3   OH213528   4.099   5.193   2.015
 4531TIP3    H113529   4.091   5.143   2.097
 4531TIP3    H213530   4.153   5.270   2.043
 4532TIP3   OH213531   3.070   5.193   2.435
 4532TIP3    H113532   3.134   5.263   2.458
 4532TIP3    H213533   3.118   5.151   2.360
 4533TIP3   OH213534   3.135   6.054   2.542
 4533TIP3    H113535   3.110   6.139   2.500
 4533TIP3    H213536   3.055   6.040   2.597
 4534TIP3   OH213537   2.521   5.740   1.779
 4534TIP3    H113538   2.481   5.766   1.694
 4534TIP3    H213539   2.552   5.826   1.814
 4535TIP3   OH213540   3.963   6.256   2.020
 4535TIP3    H113541   3.872   6.247   2.059
 4535TIP3    H213542   3.954   6.342   1.974
 4536TIP3   OH213543   4.257   5.156   2.385
 4536TIP3    H113544   4.169   5.180   2.351
 4536TIP3    H213545   4.316   5.186   2.313
 4537TIP3   OH213546   3.547   4.794   2.366
 4537TIP3    H113547   3.534   4.699   2.386
 4537TIP3    H213548   3.471   4.833   2.414
 4538TIP3   OH213549   3.659   6.301   1.689
 4538TIP3    H113550   3.710   6.218   1.671
 4538TIP3    H213551   3.722   6.366   1.650
 4539TIP3   OH213552   3.804   6.085   1.605
 4539TIP3    H113553   3.778   6.003   1.561
 4539TIP3    H213554   3.843   6.051   1.689
 4540TIP3   OH213555   4.189   6.165   2.364
 4540TIP3    H113556   4.176   6.088   2.304
 4540TIP3    H213557   4.171   6.240   2.303
 4541TIP3   OH213558   3.482   5.562   1.624
 4541TIP3    H113559   3.402   5.613   1.601
 4541TIP3    H213560   3.527   5.556   1.537
 4542TIP3   OH213561   3.439   5.348   1.334
 4542TIP3    H113562   3.508   5.399   1.382
 4542TIP3    H213563   3.496   5.284   1.286
 4543TIP3   OH213564   4.385   5.808   2.212
 4543TIP3    H113565   4.300   5.858   2.215
 4543TIP3    H213566   4.413   5.829   2.121
 4544TIP3   OH213567   3.829   5.644   1.591
 4544TIP3    H113568   3.775   5.668   1.670
 4544TIP3    H213569   3.913   5.617   1.635
 4545TIP3   OH213570   4.063   5.680   2.509
 4545TIP3    H113571   4.059   5.764   2.559
 4545TIP3    H213572   3.977   5.683   2.462
 4546TIP3   OH213573   3.061   5.640   2.010
 4546TIP3    H113574   3.019   5.581   1.943
 4546TIP3    H213575   3.136   5.585   2.041
 4547TIP3   OH213576   3.188   6.049   2.158
 4547TIP3    H113577   3.169   6.017   2.069
 4547TIP3    H213578   3.277   6.013   2.175
 4548TIP3   OH213579   3.181   5.614   2.371
 4548TIP3    H113580   3.218   5.584   2.285
 4548TIP3    H213581   3.232   5.696   2.386
 4549TIP3   OH213582   3.722   6.250   2.142
 4549TIP3    H113583   3.709   6.329   2.197
 4549TIP3    H213584   3.707   6.176   2.204
 4550TIP3   OH213585   3.338   6.169   2.690
 4550TIP3    H113586   3.276   6.231   2.734
 4550TIP3    H213587   3.274   6.117   2.636
 4551TIP3   OH213588   3.665   5.503   1.419
 4551TIP3    H113589   3.727   5.562   1.469
 4551TIP3    H213590   3.692   5.524   1.326
 4552TIP3   OH213591   3.099   5.717   2.803
 4552TIP3    H113592   3.085   5.806   2.841
 4552TIP3    H213593   3.032   5.713   2.732
 4553TIP3   OH213594   3.413   6.179   1.696
 4553TIP3    H113595   3.496   6.230   1.703
 4553TIP3    H213596   3.354   6.241   1.651
 4554TIP3   OH213597   3.127   6.330   2.776
 4554TIP3    H113598   3.094   6.336   2.684
 4554TIP3    H213599   3.045   6.310   2.826
 4555TIP3   OH213600   4.186   4.740   1.470
 4555TIP3    H113601   4.103   4.762   1.518
 4555TIP3    H213602   4.199   4.821   1.416
 4556TIP3   OH213603   2.926   5.485   1.817
 4556TIP3    H113604   2.858   5.527   1.761
 4556TIP3    H213605   2.892   5.395   1.824
 4557TIP3   OH213606   3.983   6.109   1.017
 4557TIP3    H113607   3.994   6.205   1.002
 4557TIP3    H213608   4.075   6.077   1.004
 4558TIP3   OH213609   2.562   6.060   2.353
 4558TIP3    H113610   2.658   6.051   2.342
 4558TIP3    H213611   2.555   6.138   2.410
 4559TIP3   OH213612   4.426   6.514   2.412
 4559TIP3    H113613   4.426   6.417   2.427
 4559TIP3    H213614   4.343   6.539   2.458
 4560TIP3   OH213615   3.533   6.298   2.546
 4560TIP3    H113616   3.529   6.391   2.578
 4560TIP3    H213617   3.462   6.257   2.600
 4561TIP3   OH213618   3.296   6.424   1.499
 4561TIP3    H113619   3.248   6.405   1.417
 4561TIP3    H213620   3.262   6.512   1.524
 4562TIP3   OH213621   2.732   6.273   1.883
 4562TIP3    H113622   2.777   6.263   1.969
 4562TIP3    H213623   2.681   6.190   1.879
 4563TIP3   OH213624   3.488   6.323   1.145
 4563TIP3    H113625   3.547   6.256   1.104
 4563TIP3    H213626   3.529   6.335   1.233
 4564TIP3   OH213627   3.548   6.378   1.408
 4564TIP3    H113628   3.460   6.386   1.449
 4564TIP3    H213629   3.599   6.337   1.480
 4565TIP3   OH213630   4.315   5.642   2.686
 4565TIP3    H113631   4.233   5.651   2.636
 4565TIP3    H213632   4.333   5.546   2.676
 4566TIP3   OH213633   2.915   6.044   2.705
 4566TIP3    H113634   2.953   6.042   2.796
 4566TIP3    H213635   2.854   5.970   2.707
 4567TIP3   OH213636   3.311   4.874   2.498
 4567TIP3    H113637   3.223   4.842   2.469
 4567TIP3    H213638   3.284   4.954   2.547
 4568TIP3   OH213639   3.847   4.988   2.691
 4568TIP3    H113640   3.917   4.959   2.754
 4568TIP3    H213641   3.765   4.967   2.739
 4569TIP3   OH213642   4.084   5.417   2.609
 4569TIP3    H113643   4.033   5.415   2.694
 4569TIP3    H213644   4.059   5.504   2.572
 4570TIP3   OH213645   3.744   5.548   1.165
 4570TIP3    H113646   3.710   5.521   1.077
 4570TIP3    H213647   3.830   5.586   1.140
 4571TIP3   OH213648   3.455   4.921   1.466
 4571TIP3    H113649   3.421   4.917   1.558
 4571TIP3    H213650   3.417   4.838   1.432
 4572TIP3   OH213651   3.247   5.389   2.514
 4572TIP3    H113652   3.197   5.406   2.597
 4572TIP3    H213653   3.229   5.471   2.464
 4573TIP3   OH213654   3.127   5.277   2.028
 4573TIP3    H113655   3.035   5.249   2.046
 4573TIP3    H213656   3.140   5.236   1.939
 4574TIP3   OH213657   3.618   5.361   1.758
 4574TIP3    H113658   3.567   5.431   1.713
 4574TIP3    H213659   3.674   5.327   1.685
 4575TIP3   OH213660   3.793   5.637   2.842
 4575TIP3    H113661   3.770   5.564   2.903
 4575TIP3    H213662   3.887   5.649   2.863
 4576TIP3   OH213663   3.774   5.387   1.992
 4576TIP3    H113664   3.712   5.413   1.922
 4576TIP3    H213665   3.811   5.307   1.949
 4577TIP3   OH213666   3.063   5.416   2.720
 4577TIP3    H113667   3.103   5.464   2.794
 4577TIP3    H213668   3.036   5.332   2.765
 4578TIP3   OH213669   3.113   4.897   1.432
 4578TIP3    H113670   3.103   4.894   1.529
 4578TIP3    H213671   3.034   4.949   1.407
 4579TIP3   OH213672   2.656   4.938   2.303
 4579TIP3    H113673   2.729   4.972   2.358
 4579TIP3    H213674   2.700   4.907   2.222
 4580TIP3   OH213675   2.620   4.918   1.822
 4580TIP3    H113676   2.666   4.956   1.744
 4580TIP3    H213677   2.560   4.993   1.843
 4581TIP3   OH213678   3.786   5.633   2.415
 4581TIP3    H113679   3.819   5.562   2.355
 4581TIP3    H213680   3.756   5.578   2.491
 4582TIP3   OH213681   3.460   5.098   2.089
 4582TIP3    H113682   3.380   5.095   2.144
 4582TIP3    H213683   3.531   5.088   2.155
 4583TIP3   OH213684   2.890   5.155   2.095
 4583TIP3    H113685   2.795   5.161   2.067
 4583TIP3    H213686   2.914   5.063   2.073
 4584TIP3   OH213687   3.154   5.149   1.787
 4584TIP3    H113688   3.248   5.162   1.766
 4584TIP3    H213689   3.108   5.171   1.703
 4585TIP3   OH213690   3.948   5.174   2.295
 4585TIP3    H113691   3.912   5.186   2.386
 4585TIP3    H213692   3.882   5.113   2.257
 4586TIP3   OH213693   3.003   5.186   1.562
 4586TIP3    H113694   2.934   5.138   1.512
 4586TIP3    H213695   3.056   5.222   1.488
 4587TIP3   OH213696   4.120   6.862   2.512
 4587TIP3    H113697   4.118   6.886   2.418
 4587TIP3    H213698   4.201   6.908   2.542
 4588TIP3   OH213699   3.058   5.964   2.939
 4588TIP3    H113700   3.140   6.011   2.964
 4588TIP3    H213701   3.036   5.921   3.023
 4589TIP3   OH213702   3.537   5.428   2.187
 4589TIP3    H113703   3.608   5.387   2.136
 4589TIP3    H213704   3.543   5.382   2.272
 4590TIP3   OH213705   3.056   4.912   2.069
 4590TIP3    H113706   3.021   4.834   2.118
 4590TIP3    H213707   3.104   4.870   1.996
 4591TIP3   OH213708   3.515   5.325   2.472
 4591TIP3    H113709   3.424   5.359   2.490
 4591TIP3    H213710   3.571   5.385   2.525
 4592TIP3   OH213711   3.249   5.713   1.569
 4592TIP3    H113712   3.177   5.647   1.558
 4592TIP3    H213713   3.230   5.746   1.660
 4593TIP3   OH213714   4.149   5.949   2.197
 4593TIP3    H113715   4.173   5.999   2.116
 4593TIP3    H213716   4.064   5.906   2.171
 4594TIP3   OH213717   3.708   5.020   1.444
 4594TIP3    H113718   3.611   5.002   1.447
 4594TIP3    H213719   3.715   5.116   1.462
 4595TIP3   OH213720   3.646   6.029   2.569
 4595TIP3    H113721   3.683   6.013   2.657
 4595TIP3    H213722   3.613   6.120   2.575
 4596TIP3   OH213723   3.776   5.275   1.541
 4596TIP3    H113724   3.873   5.279   1.552
 4596TIP3    H213725   3.758   5.353   1.485
 4597TIP3   OH213726   2.946   5.740   2.241
 4597TIP3    H113727   2.980   5.714   2.153
 4597TIP3    H213728   2.994   5.678   2.298
 4598TIP3   OH213729   3.397   5.862   1.393
 4598TIP3    H113730   3.348   5.948   1.398
 4598TIP3    H213731   3.342   5.807   1.453
 4599TIP3   OH213732   3.552   5.771   2.880
 4599TIP3    H113733   3.492   5.710   2.834
 4599TIP3    H213734   3.639   5.736   2.852
 4600TIP3   OH213735   3.809   6.291   2.466
 4600TIP3    H113736   3.712   6.291   2.478
 4600TIP3    H213737   3.836   6.344   2.544
 4601TIP3   OH213738   4.218   5.366   1.374
 4601TIP3    H113739   4.155   5.322   1.312
 4601TIP3    H213740   4.216   5.455   1.331
 4602TIP3   OH213741   4.439   6.224   2.452
 4602TIP3    H113742   4.341   6.217   2.444
 4602TIP3    H213743   4.465   6.193   2.362
 4603TIP3   OH213744   3.922   6.182   1.282
 4603TIP3    H113745   3.895   6.110   1.342
 4603TIP3    H213746   3.934   6.137   1.197
 4604TIP3   OH213747   3.916   5.812   2.114
 4604TIP3    H113748   3.822   5.787   2.128
 4604TIP3    H213749   3.950   5.731   2.071
 4605TIP3   OH213750   3.046   6.043   1.877
 4605TIP3    H113751   3.045   6.122   1.821
 4605TIP3    H213752   2.953   6.020   1.879
 4606TIP3   OH213753   2.610   5.343   1.578
 4606TIP3    H113754   2.655   5.427   1.599
 4606TIP3    H213755   2.532   5.348   1.638
 4607TIP3   OH213756   3.176   5.804   1.814
 4607TIP3    H113757   3.145   5.894   1.835
 4607TIP3    H213758   3.141   5.753   1.889
 4608TIP3   OH213759   3.316   6.381   2.340
 4608TIP3    H113760   3.356   6.454   2.289
 4608TIP3    H213761   3.394   6.345   2.386
 4609TIP3   OH213762   2.964   6.278   1.724
 4609TIP3    H113763   2.877   6.288   1.770
 4609TIP3    H213764   2.996   6.371   1.727
 4610TIP3   OH213765   3.699   6.019   2.300
 4610TIP3    H113766   3.689   6.015   2.397
 4610TIP3    H213767   3.777   5.963   2.286
 4611TIP3   OH213768   3.679   5.912   1.186
 4611TIP3    H113769   3.734   5.886   1.264
 4611TIP3    H213770   3.593   5.877   1.214
 4612TIP3   OH213771   3.950   6.549   2.350
 4612TIP3    H113772   3.870   6.494   2.343
 4612TIP3    H213773   3.934   6.613   2.277
 4613TIP3   OH213774   4.014   6.383   0.998
 4613TIP3    H113775   4.043   6.451   0.935
 4613TIP3    H213776   3.936   6.430   1.037
 4614TIP3   OH213777   3.025   5.168   2.865
 4614TIP3    H113778   2.929   5.184   2.882
 4614TIP3    H213779   3.046   5.107   2.937
 4615TIP3   OH213780   3.840   5.848   1.402
 4615TIP3    H113781   3.829   5.778   1.470
 4615TIP3    H213782   3.937   5.843   1.388
 4616TIP3   OH213783   2.752   6.250   2.496
 4616TIP3    H113784   2.810   6.178   2.523
 4616TIP3    H213785   2.785   6.323   2.550
 4617TIP3   OH213786   3.041   5.891   1.183
 4617TIP3    H113787   3.054   5.798   1.156
 4617TIP3    H213788   3.020   5.880   1.278
 4618TIP3   OH213789   2.985   5.896   1.455
 4618TIP3    H113790   3.061   5.868   1.508
 4618TIP3    H213791   2.989   5.994   1.463
 4619TIP3   OH213792   2.720   5.587   1.659
 4619TIP3    H113793   2.653   5.632   1.715
 4619TIP3    H213794   2.734   5.655   1.591
 4620TIP3   OH213795   3.871   5.228   2.555
 4620TIP3    H113796   3.956   5.262   2.589
 4620TIP3    H213797   3.860   5.145   2.607
 4621TIP3   OH213798   3.752   4.974   1.720
 4621TIP3    H113799   3.739   4.994   1.625
 4621TIP3    H213800   3.794   5.056   1.753
 4622TIP3   OH213801   3.254   6.092   1.404
 4622TIP3    H113802   3.166   6.117   1.440
 4622TIP3    H213803   3.269   6.166   1.343
 4623TIP3   OH213804   3.437   5.159   1.819
 4623TIP3    H113805   3.503   5.229   1.801
 4623TIP3    H213806   3.446   5.149   1.916
 4624TIP3   OH213807   3.711   5.471   2.623
 4624TIP3    H113808   3.738   5.521   2.703
 4624TIP3    H213809   3.765   5.390   2.630
 4625TIP3   OH213810   3.583   4.877   1.918
 4625TIP3    H113811   3.577   4.955   1.976
 4625TIP3    H213812   3.645   4.910   1.849
 4626TIP3   OH213813   2.999   6.168   1.473
 4626TIP3    H113814   2.969   6.238   1.410
 4626TIP3    H213815   2.983   6.211   1.559
 4627TIP3   OH213816   3.097   4.882   1.709
 4627TIP3    H113817   3.095   4.972   1.747
 4627TIP3    H213818   3.193   4.864   1.715
 4628TIP3   OH213819   4.350   5.375   2.603
 4628TIP3    H113820   4.252   5.375   2.613
 4628TIP3    H213821   4.358   5.323   2.522
 4629TIP3   OH213822   4.001   5.568   1.994
 4629TIP3    H113823   3.925   5.508   2.004
 4629TIP3    H213824   4.072   5.520   2.042
 4630TIP3   OH213825   2.716   5.793   1.463
 4630TIP3    H113826   2.787   5.860   1.471
 4630TIP3    H213827   2.758   5.734   1.396
 4631TIP3   OH213828   2.657   5.072   1.599
 4631TIP3    H113829   2.659   5.170   1.596
 4631TIP3    H213830   2.579   5.052   1.546
 4632TIP3   OH213831   3.971   6.528   1.942
 4632TIP3    H113832   3.928   6.575   1.867
 4632TIP3    H213833   4.065   6.545   1.921
 4633TIP3   OH213834   3.048   4.793   2.468
 4633TIP3    H113835   3.017   4.758   2.381
 4633TIP3    H213836   3.037   4.714   2.526
 4634TIP3   OH213837   2.584   6.014   1.847
 4634TIP3    H113838   2.518   6.042   1.912
 4634TIP3    H213839   2.549   6.057   1.765
 4635TIP3   OH213840   2.745   6.561   2.923
 4635TIP3    H113841   2.831   6.563   2.970
 4635TIP3    H213842   2.727   6.465   2.921
 4636TIP3   OH213843   3.219   6.513   2.968
 4636TIP3    H113844   3.315   6.501   2.974
 4636TIP3    H213845   3.197   6.452   2.895
 4637TIP3   OH213846   3.205   6.092   1.093
 4637TIP3    H113847   3.149   6.021   1.132
 4637TIP3    H213848   3.281   6.040   1.063
 4638TIP3   OH213849   3.860   6.426   2.702
 4638TIP3    H113850   3.854   6.355   2.770
 4638TIP3    H213851   3.939   6.476   2.731
 4639TIP3   OH213852   3.638   6.128   1.020
 4639TIP3    H113853   3.668   6.058   1.082
 4639TIP3    H213854   3.715   6.135   0.960
 4640TIP3   OH213855   2.852   5.607   1.318
 4640TIP3    H113856   2.909   5.576   1.391
 4640TIP3    H213857   2.918   5.612   1.246
 4641TIP3   OH213858   3.477   6.046   2.898
 4641TIP3    H113859   3.442   6.067   2.809
 4641TIP3    H213860   3.512   5.954   2.886
 4642TIP3   OH213861   3.365   5.810   1.124
 4642TIP3    H113862   3.366   5.822   1.221
 4642TIP3    H213863   3.366   5.712   1.118
 4643TIP3   OH213864   3.973   6.060   2.504
 4643TIP3    H113865   4.049   6.101   2.459
 4643TIP3    H213866   3.904   6.127   2.487
 4644TIP3   OH213867   2.951   5.717   3.081
 4644TIP3    H113868   3.022   5.656   3.057
 4644TIP3    H213869   2.983   5.747   3.169
 4645TIP3   OH213870   3.056   5.516   1.535
 4645TIP3    H113871   3.031   5.473   1.618
 4645TIP3    H213872   3.095   5.441   1.484
 4646TIP3   OH213873   3.334   5.575   2.766
 4646TIP3    H113874   3.257   5.636   2.771
 4646TIP3    H213875   3.383   5.612   2.688
 4647TIP3   OH213876   3.162   5.312   1.377
 4647TIP3    H113877   3.136   5.316   1.282
 4647TIP3    H213878   3.260   5.314   1.369
 4648TIP3   OH213879   3.845   5.981   2.898
 4648TIP3    H113880   3.923   5.950   2.849
 4648TIP3    H213881   3.840   5.916   2.970
 4649TIP3   OH213882   3.978   5.636   1.046
 4649TIP3    H113883   3.960   5.591   0.961
 4649TIP3    H213884   3.946   5.726   1.023
 4650TIP3   OH213885   3.453   5.367   2.893
 4650TIP3    H113886   3.453   5.288   2.835
 4650TIP3    H213887   3.410   5.434   2.834
 4651TIP3   OH213888   3.454   5.157   2.700
 4651TIP3    H113889   3.482   5.194   2.615
 4651TIP3    H213890   3.360   5.132   2.682
 4652TIP3   OH213891   3.478   5.689   2.572
 4652TIP3    H113892   3.564   5.699   2.529
 4652TIP3    H213893   3.424   5.756   2.524
 4653TIP3   OH213894   4.060   5.655   2.952
 4653TIP3    H113895   4.105   5.570   2.962
 4653TIP3    H213896   4.131   5.710   2.914
 4654TIP3   OH213897   4.101   5.911   2.690
 4654TIP3    H113898   4.045   5.967   2.631
 4654TIP3    H213899   4.189   5.930   2.651
 4655TIP3   OH213900   3.332   5.476   3.125
 4655TIP3    H113901   3.266   5.404   3.138
 4655TIP3    H213902   3.366   5.453   3.036
 4656TIP3   OH213903   3.586   4.918   2.769
 4656TIP3    H113904   3.536   4.999   2.746
 4656TIP3    H213905   3.517   4.849   2.758
 4657TIP3   OH213906   3.711   5.420   2.984
 4657TIP3    H113907   3.696   5.404   3.079
 4657TIP3    H213908   3.622   5.395   2.950
 4658TIP3   OH213909   3.952   5.375   2.840
 4658TIP3    H113910   3.876   5.372   2.902
 4658TIP3    H213911   4.025   5.342   2.896
 4659TIP3   OH213912   4.181   5.314   2.989
 4659TIP3    H113913   4.194   5.217   3.003
 4659TIP3    H213914   4.176   5.348   3.080
 4660TIP3   OH213915   3.177   5.253   3.177
 4660TIP3    H113916   3.175   5.162   3.140
 4660TIP3    H213917   3.214   5.234   3.266
 4661TIP3   OH213918   3.679   4.928   3.028
 4661TIP3    H113919   3.745   4.856   3.022
 4661TIP3    H213920   3.639   4.922   2.938
 4662TIP3   OH213921   3.747   5.142   3.184
 4662TIP3    H113922   3.726   5.070   3.120
 4662TIP3    H213923   3.667   5.199   3.177
 4663TIP3   OH213924   2.967   6.371   1.286
 4663TIP3    H113925   3.062   6.363   1.266
 4663TIP3    H213926   2.938   6.422   1.208
 4664TIP3   OH213927   2.447   5.752   1.499
 4664TIP3    H113928   2.542   5.774   1.484
 4664TIP3    H213929   2.441   5.664   1.457
 4665TIP3   OH213930   2.363   6.365   1.914
 4665TIP3    H113931   2.297   6.303   1.875
 4665TIP3    H213932   2.407   6.305   1.978
 4666TIP3   OH213933   2.496   6.211   2.100
 4666TIP3    H113934   2.482   6.140   2.166
 4666TIP3    H213935   2.549   6.273   2.154
 4667TIP3   OH213936   4.227   6.613   1.902
 4667TIP3    H113937   4.253   6.646   1.990
 4667TIP3    H213938   4.291   6.656   1.844
 4668TIP3   OH213939   4.254   6.635   2.185
 4668TIP3    H113940   4.209   6.549   2.180
 4668TIP3    H213941   4.328   6.611   2.243
 4669TIP3   OH213942   4.300   6.313   2.757
 4669TIP3    H113943   4.229   6.322   2.823
 4669TIP3    H213944   4.343   6.401   2.761
 4670TIP3   OH213945   4.117   5.826   1.376
 4670TIP3    H113946   4.184   5.890   1.344
 4670TIP3    H213947   4.162   5.787   1.454
 4671TIP3   OH213948   4.245   5.694   1.581
 4671TIP3    H113949   4.178   5.650   1.637
 4671TIP3    H213950   4.307   5.730   1.647
 4672TIP3   OH213951   4.302   6.087   2.012
 4672TIP3    H113952   4.354   6.019   1.964
 4672TIP3    H213953   4.297   6.159   1.946
 4673TIP3   OH213954   4.128   6.386   2.205
 4673TIP3    H113955   4.056   6.427   2.256
 4673TIP3    H213956   4.079   6.339   2.134
 4674TIP3   OH213957   4.183   5.602   1.225
 4674TIP3    H113958   4.111   5.601   1.158
 4674TIP3    H213959   4.153   5.678   1.279
 4675TIP3   OH213960   4.047   5.277   1.183
 4675TIP3    H113961   4.014   5.307   1.098
 4675TIP3    H213962   4.026   5.181   1.178
 4676TIP3   OH213963   4.057   5.551   1.723
 4676TIP3    H113964   4.064   5.454   1.714
 4676TIP3    H213965   4.042   5.562   1.819
 4677TIP3   OH213966   2.687   5.640   2.469
 4677TIP3    H113967   2.680   5.599   2.379
 4677TIP3    H213968   2.783   5.638   2.483
 4678TIP3   OH213969   4.347   5.974   2.584
 4678TIP3    H113970   4.418   5.907   2.572
 4678TIP3    H213971   4.372   6.042   2.519
 4679TIP3   OH213972   4.531   5.776   2.591
 4679TIP3    H113973   4.456   5.727   2.630
 4679TIP3    H213974   4.604   5.713   2.609
 4680TIP3   OH213975   3.993   5.012   1.171
 4680TIP3    H113976   4.068   4.974   1.220
 4680TIP3    H213977   3.922   4.947   1.184
 4681TIP3   OH213978   4.056   5.269   1.616
 4681TIP3    H113979   4.096   5.180   1.632
 4681TIP3    H213980   4.112   5.300   1.543
 4682TIP3   OH213981   4.214   5.437   2.115
 4682TIP3    H113982   4.300   5.462   2.073
 4682TIP3    H213983   4.229   5.474   2.204
 4683TIP3   OH213984   4.287   5.585   2.345
 4683TIP3    H113985   4.209   5.618   2.394
 4683TIP3    H213986   4.319   5.666   2.301
 4684TIP3   OH213987   2.924   5.348   3.194
 4684TIP3    H113988   3.015   5.314   3.177
 4684TIP3    H213989   2.873   5.264   3.185
 4685TIP3   OH213990   4.736   5.178   2.900
 4685TIP3    H113991   4.796   5.112   2.859
 4685TIP3    H213992   4.707   5.230   2.822
 4686TIP3   OH213993   4.161   5.018   1.659
 4686TIP3    H113994   4.209   4.999   1.742
 4686TIP3    H213995   4.101   4.941   1.655
 4687TIP3   OH213996   2.864   5.002   2.474
 4687TIP3    H113997   2.924   4.926   2.484
 4687TIP3    H213998   2.927   5.075   2.468
 4688TIP3   OH213999   2.654   5.278   2.539
 4688TIP3    H114000   2.711   5.286   2.460
 4688TIP3    H214001   2.704   5.325   2.607
 4689TIP3   OH214002   4.605   5.313   2.702
 4689TIP3    H114003   4.518   5.354   2.721
 4689TIP3    H214004   4.576   5.237   2.647
 4690TIP3   OH214005   4.242   4.946   1.292
 4690TIP3    H114006   4.279   4.877   1.233
 4690TIP3    H214007   4.309   5.018   1.284
 4691TIP3   OH214008   2.650   4.775   2.050
 4691TIP3    H114009   2.557   4.773   2.079
 4691TIP3    H214010   2.645   4.835   1.972
 4692TIP3   OH214011   3.808   6.484   1.558
 4692TIP3    H114012   3.859   6.470   1.475
 4692TIP3    H214013   3.864   6.550   1.603
 4693TIP3   OH214014   2.868   4.858   2.863
 4693TIP3    H114015   2.820   4.855   2.947
 4693TIP3    H214016   2.803   4.903   2.806
 4694TIP3   OH214017   2.905   6.281   2.943
 4694TIP3    H114018   2.809   6.260   2.934
 4694TIP3    H214019   2.915   6.282   3.040
 4695TIP3   OH214020   3.089   6.325   2.490
 4695TIP3    H114021   3.042   6.401   2.450
 4695TIP3    H214022   3.175   6.337   2.444
 4696TIP3   OH214023   3.528   6.564   2.627
 4696TIP3    H114024   3.571   6.563   2.715
 4696TIP3    H214025   3.594   6.615   2.575
 4697TIP3   OH214026   3.708   6.717   2.488
 4697TIP3    H114027   3.778   6.667   2.445
 4697TIP3    H214028   3.762   6.774   2.548
 4698TIP3   OH214029   4.506   5.074   2.586
 4698TIP3    H114030   4.415   5.061   2.553
 4698TIP3    H214031   4.542   4.982   2.577
 4699TIP3   OH214032   2.763   6.576   2.517
 4699TIP3    H114033   2.673   6.608   2.495
 4699TIP3    H214034   2.779   6.626   2.598
 4700TIP3   OH214035   2.999   6.556   2.373
 4700TIP3    H114036   2.911   6.568   2.416
 4700TIP3    H214037   2.980   6.587   2.282
 4701TIP3   OH214038   3.424   6.580   2.172
 4701TIP3    H114039   3.356   6.599   2.104
 4701TIP3    H214040   3.437   6.669   2.212
 4702TIP3   OH214041   3.694   6.522   2.225
 4702TIP3    H114042   3.600   6.538   2.204
 4702TIP3    H214043   3.738   6.594   2.176
 4703TIP3   OH214044   3.900   6.712   2.134
 4703TIP3    H114045   3.886   6.797   2.087
 4703TIP3    H214046   3.926   6.653   2.061
 4704TIP3   OH214047   2.673   6.370   2.257
 4704TIP3    H114048   2.700   6.342   2.347
 4704TIP3    H214049   2.745   6.328   2.205
 4705TIP3   OH214050   2.869   6.243   2.119
 4705TIP3    H114051   2.886   6.158   2.168
 4705TIP3    H214052   2.961   6.278   2.114
 4706TIP3   OH214053   3.137   6.335   2.122
 4706TIP3    H114054   3.167   6.243   2.107
 4706TIP3    H214055   3.186   6.355   2.204
 4707TIP3   OH214056   3.709   4.990   2.206
 4707TIP3    H114057   3.668   4.918   2.257
 4707TIP3    H214058   3.783   4.946   2.161
 4708TIP3   OH214059   4.230   4.878   2.113
 4708TIP3    H114060   4.266   4.926   2.035
 4708TIP3    H214061   4.134   4.892   2.102
 4709TIP3   OH214062   4.327   4.971   1.875
 4709TIP3    H114063   4.400   4.918   1.836
 4709TIP3    H214064   4.361   5.062   1.860
 4710TIP3   OH214065   2.958   4.699   2.221
 4710TIP3    H114066   2.866   4.665   2.223
 4710TIP3    H214067   3.007   4.614   2.217
 4711TIP3   OH214068   2.747   4.571   1.872
 4711TIP3    H114069   2.777   4.627   1.798
 4711TIP3    H214070   2.720   4.638   1.938
 4712TIP3   OH214071   3.404   4.733   2.103
 4712TIP3    H114072   3.461   4.778   2.039
 4712TIP3    H214073   3.436   4.769   2.187
 4713TIP3   OH214074   3.946   4.880   2.085
 4713TIP3    H114075   3.949   4.839   1.998
 4713TIP3    H214076   3.936   4.800   2.143
 4714TIP3   OH214077   3.980   4.805   1.650
 4714TIP3    H114078   3.893   4.845   1.663
 4714TIP3    H214079   3.966   4.718   1.693
 4715TIP3   OH214080   2.461   6.146   1.646
 4715TIP3    H114081   2.375   6.113   1.614
 4715TIP3    H214082   2.454   6.239   1.618
 4716TIP3   OH214083   2.866   4.728   1.632
 4716TIP3    H114084   2.913   4.664   1.575
 4716TIP3    H214085   2.940   4.781   1.667
 4717TIP3   OH214086   3.373   4.907   1.731
 4717TIP3    H114087   3.434   4.859   1.790
 4717TIP3    H214088   3.396   5.000   1.757
 4718TIP3   OH214089   3.232   6.324   1.236
 4718TIP3    H114090   3.322   6.345   1.204
 4718TIP3    H214091   3.210   6.252   1.173
 4719TIP3   OH214092   3.955   6.449   1.327
 4719TIP3    H114093   3.947   6.351   1.314
 4719TIP3    H214094   3.910   6.481   1.246
 4720TIP3   OH214095   3.167   4.978   3.114
 4720TIP3    H114096   3.132   4.908   3.172
 4720TIP3    H214097   3.262   4.978   3.142
 4721TIP3   OH214098   3.418   4.979   3.233
 4721TIP3    H114099   3.501   4.952   3.192
 4721TIP3    H214100   3.405   4.908   3.299
 4722TIP3   OH214101   2.538   6.163   1.285
 4722TIP3    H114102   2.542   6.187   1.378
 4722TIP3    H214103   2.626   6.120   1.270
 4723TIP3   OH214104   4.243   5.044   3.019
 4723TIP3    H114105   4.261   5.011   3.110
 4723TIP3    H214106   4.332   5.037   2.977
 4724TIP3   OH214107   4.178   6.592   2.511
 4724TIP3    H114108   4.099   6.562   2.461
 4724TIP3    H214109   4.159   6.688   2.517
 4725TIP3   OH214110   5.442   5.965   1.300
 4725TIP3    H114111   5.414   6.052   1.264
 4725TIP3    H214112   5.380   5.909   1.248
 4726TIP3   OH214113   4.745   5.856   2.021
 4726TIP3    H114114   4.773   5.787   2.083
 4726TIP3    H214115   4.820   5.917   2.026
 4727TIP3   OH214116   5.700   6.274   1.334
 4727TIP3    H114117   5.646   6.226   1.397
 4727TIP3    H214118   5.727   6.353   1.384
 4728TIP3   OH214119   4.717   6.274   1.748
 4728TIP3    H114120   4.710   6.176   1.749
 4728TIP3    H214121   4.814   6.283   1.739
 4729TIP3   OH214122   4.423   5.475   1.530
 4729TIP3    H114123   4.370   5.555   1.545
 4729TIP3    H214124   4.357   5.418   1.487
 4730TIP3   OH214125   4.483   5.762   1.711
 4730TIP3    H114126   4.531   5.682   1.744
 4730TIP3    H214127   4.532   5.782   1.630
 4731TIP3   OH214128   5.342   6.731   1.357
 4731TIP3    H114129   5.386   6.659   1.307
 4731TIP3    H214130   5.327   6.690   1.443
 4732TIP3   OH214131   5.235   6.200   1.707
 4732TIP3    H114132   5.256   6.149   1.628
 4732TIP3    H214133   5.325   6.228   1.736
 4733TIP3   OH214134   6.259   5.510   1.704
 4733TIP3    H114135   6.289   5.594   1.745
 4733TIP3    H214136   6.282   5.525   1.610
 4734TIP3   OH214137   5.001   5.352   1.700
 4734TIP3    H114138   4.974   5.422   1.636
 4734TIP3    H214139   4.954   5.275   1.660
 4735TIP3   OH214140   5.688   5.437   1.318
 4735TIP3    H114141   5.755   5.430   1.390
 4735TIP3    H214142   5.741   5.480   1.249
 4736TIP3   OH214143   4.629   5.552   1.812
 4736TIP3    H114144   4.711   5.530   1.859
 4736TIP3    H214145   4.640   5.496   1.732
 4737TIP3   OH214146   5.062   5.748   1.600
 4737TIP3    H114147   5.149   5.706   1.607
 4737TIP3    H214148   5.008   5.671   1.570
 4738TIP3   OH214149   6.335   5.721   1.872
 4738TIP3    H114150   6.248   5.762   1.856
 4738TIP3    H214151   6.349   5.744   1.965
 4739TIP3   OH214152   4.992   5.335   2.139
 4739TIP3    H114153   4.931   5.369   2.071
 4739TIP3    H214154   4.939   5.351   2.220
 4740TIP3   OH214155   5.337   6.179   1.154
 4740TIP3    H114156   5.302   6.162   1.065
 4740TIP3    H214157   5.292   6.263   1.175
 4741TIP3   OH214158   5.095   6.113   1.931
 4741TIP3    H114159   5.033   6.179   1.970
 4741TIP3    H214160   5.136   6.164   1.859
 4742TIP3   OH214161   5.892   5.453   1.500
 4742TIP3    H114162   5.884   5.403   1.582
 4742TIP3    H214163   5.943   5.531   1.528
 4743TIP3   OH214164   4.865   5.448   1.920
 4743TIP3    H114165   4.927   5.520   1.944
 4743TIP3    H214166   4.914   5.408   1.845
 4744TIP3   OH214167   4.928   6.308   2.030
 4744TIP3    H114168   4.901   6.395   1.994
 4744TIP3    H214169   4.849   6.290   2.086
 4745TIP3   OH214170   4.318   5.996   1.266
 4745TIP3    H114171   4.278   6.020   1.180
 4745TIP3    H214172   4.348   6.083   1.298
 4746TIP3   OH214173   5.756   6.507   1.502
 4746TIP3    H114174   5.667   6.504   1.545
 4746TIP3    H214175   5.752   6.595   1.459
 4747TIP3   OH214176   6.050   5.413   1.872
 4747TIP3    H114177   5.961   5.430   1.836
 4747TIP3    H214178   6.108   5.444   1.799
 4748TIP3   OH214179   5.344   5.050   1.855
 4748TIP3    H114180   5.331   4.955   1.874
 4748TIP3    H214181   5.266   5.088   1.901
 4749TIP3   OH214182   5.461   6.557   1.178
 4749TIP3    H114183   5.508   6.473   1.155
 4749TIP3    H214184   5.527   6.622   1.142
 4750TIP3   OH214185   5.601   6.343   1.082
 4750TIP3    H114186   5.578   6.261   1.034
 4750TIP3    H214187   5.643   6.307   1.163
 4751TIP3   OH214188   5.984   6.427   1.855
 4751TIP3    H114189   5.983   6.351   1.794
 4751TIP3    H214190   5.968   6.503   1.794
 4752TIP3   OH214191   5.288   5.831   1.114
 4752TIP3    H114192   5.203   5.876   1.094
 4752TIP3    H214193   5.323   5.815   1.024
 4753TIP3   OH214194   5.238   5.603   0.822
 4753TIP3    H114195   5.310   5.653   0.865
 4753TIP3    H214196   5.291   5.537   0.773
 4754TIP3   OH214197   6.183   6.059   1.697
 4754TIP3    H114198   6.100   6.112   1.700
 4754TIP3    H214199   6.214   6.081   1.607
 4755TIP3   OH214200   5.625   5.903   1.083
 4755TIP3    H114201   5.570   5.925   1.161
 4755TIP3    H214202   5.706   5.870   1.126
 4756TIP3   OH214203   5.866   5.938   2.002
 4756TIP3    H114204   5.862   6.019   2.057
 4756TIP3    H214205   5.783   5.946   1.951
 4757TIP3   OH214206   4.852   5.898   1.496
 4757TIP3    H114207   4.806   5.841   1.430
 4757TIP3    H214208   4.928   5.842   1.521
 4758TIP3   OH214209   4.979   6.315   1.642
 4758TIP3    H114210   4.959   6.277   1.554
 4758TIP3    H214211   5.067   6.276   1.662
 4759TIP3   OH214212   5.004   5.862   1.856
 4759TIP3    H114213   5.021   5.848   1.761
 4759TIP3    H214214   5.034   5.954   1.871
 4760TIP3   OH214215   5.521   6.503   1.634
 4760TIP3    H114216   5.504   6.589   1.676
 4760TIP3    H214217   5.498   6.439   1.704
 4761TIP3   OH214218   5.132   6.424   2.174
 4761TIP3    H114219   5.072   6.486   2.221
 4761TIP3    H214220   5.066   6.371   2.124
 4762TIP3   OH214221   5.463   5.758   0.904
 4762TIP3    H114222   5.523   5.819   0.952
 4762TIP3    H214223   5.484   5.780   0.810
 4763TIP3   OH214224   4.886   5.980   2.277
 4763TIP3    H114225   4.891   6.067   2.321
 4763TIP3    H214226   4.792   5.958   2.293
 4764TIP3   OH214227   5.213   6.429   1.188
 4764TIP3    H114228   5.289   6.490   1.193
 4764TIP3    H214229   5.148   6.480   1.137
 4765TIP3   OH214230   4.926   6.589   2.263
 4765TIP3    H114231   4.890   6.591   2.172
 4765TIP3    H214232   4.846   6.569   2.316
 4766TIP3   OH214233   5.984   4.998   0.957
 4766TIP3    H114234   5.900   5.020   1.004
 4766TIP3    H214235   5.996   5.079   0.902
 4767TIP3   OH214236   4.718   5.741   1.309
 4767TIP3    H114237   4.652   5.784   1.251
 4767TIP3    H214238   4.688   5.650   1.308
 4768TIP3   OH214239   4.504   6.124   2.209
 4768TIP3    H114240   4.436   6.104   2.141
 4768TIP3    H214241   4.541   6.035   2.230
 4769TIP3   OH214242   4.359   6.316   1.841
 4769TIP3    H114243   4.455   6.312   1.832
 4769TIP3    H214244   4.347   6.395   1.896
 4770TIP3   OH214245   6.221   6.770   1.898
 4770TIP3    H114246   6.222   6.674   1.916
 4770TIP3    H214247   6.138   6.795   1.945
 4771TIP3   OH214248   5.328   6.554   2.032
 4771TIP3    H114249   5.325   6.646   2.065
 4771TIP3    H214250   5.256   6.513   2.086
 4772TIP3   OH214251   5.087   6.682   0.987
 4772TIP3    H114252   5.041   6.660   0.904
 4772TIP3    H214253   5.053   6.771   1.007
 4773TIP3   OH214254   4.528   6.530   1.368
 4773TIP3    H114255   4.572   6.520   1.455
 4773TIP3    H214256   4.477   6.447   1.364
 4774TIP3   OH214257   5.304   6.547   0.668
 4774TIP3    H114258   5.386   6.498   0.658
 4774TIP3    H214259   5.314   6.578   0.761
 4775TIP3   OH214260   5.343   6.634   0.922
 4775TIP3    H114261   5.251   6.647   0.955
 4775TIP3    H214262   5.387   6.597   1.000
 4776TIP3   OH214263   6.113   5.897   2.174
 4776TIP3    H114264   6.031   5.905   2.124
 4776TIP3    H214265   6.131   5.801   2.166
 4777TIP3   OH214266   4.710   6.306   2.194
 4777TIP3    H114267   4.758   6.290   2.277
 4777TIP3    H214268   4.635   6.243   2.202
 4778TIP3   OH214269   5.107   5.132   1.984
 4778TIP3    H114270   5.020   5.098   1.953
 4778TIP3    H214271   5.077   5.209   2.035
 4779TIP3   OH214272   5.642   5.248   2.175
 4779TIP3    H114273   5.712   5.219   2.237
 4779TIP3    H214274   5.560   5.225   2.224
 4780TIP3   OH214275   5.876   5.674   2.096
 4780TIP3    H114276   5.829   5.669   2.182
 4780TIP3    H214277   5.859   5.766   2.067
 4781TIP3   OH214278   5.526   5.805   0.641
 4781TIP3    H114279   5.515   5.768   0.553
 4781TIP3    H214280   5.616   5.844   0.631
 4782TIP3   OH214281   5.258   5.173   0.957
 4782TIP3    H114282   5.214   5.171   1.044
 4782TIP3    H214283   5.212   5.098   0.914
 4783TIP3   OH214284   5.046   5.640   2.004
 4783TIP3    H114285   4.992   5.659   2.084
 4783TIP3    H214286   5.029   5.723   1.952
 4784TIP3   OH214287   4.920   5.534   1.514
 4784TIP3    H114288   4.828   5.504   1.532
 4784TIP3    H214289   4.933   5.495   1.424
 4785TIP3   OH214290   5.408   5.618   1.246
 4785TIP3    H114291   5.361   5.687   1.194
 4785TIP3    H214292   5.468   5.580   1.180
 4786TIP3   OH214293   5.590   5.893   2.326
 4786TIP3    H114294   5.565   5.821   2.388
 4786TIP3    H214295   5.683   5.907   2.351
 4787TIP3   OH214296   4.861   5.672   2.208
 4787TIP3    H114297   4.883   5.735   2.279
 4787TIP3    H214298   4.846   5.589   2.259
 4788TIP3   OH214299   4.930   5.174   0.923
 4788TIP3    H114300   4.891   5.164   1.011
 4788TIP3    H214301   4.852   5.176   0.865
 4789TIP3   OH214302   4.450   5.197   1.793
 4789TIP3    H114303   4.529   5.225   1.843
 4789TIP3    H214304   4.485   5.162   1.710
 4790TIP3   OH214305   4.418   5.175   1.313
 4790TIP3    H114306   4.462   5.212   1.233
 4790TIP3    H214307   4.355   5.248   1.331
 4791TIP3   OH214308   5.603   5.860   1.877
 4791TIP3    H114309   5.624   5.766   1.891
 4791TIP3    H214310   5.555   5.875   1.960
 4792TIP3   OH214311   5.267   5.399   1.596
 4792TIP3    H114312   5.182   5.370   1.636
 4792TIP3    H214313   5.331   5.340   1.641
 4793TIP3   OH214314   4.685   5.410   1.582
 4793TIP3    H114315   4.591   5.418   1.554
 4793TIP3    H214316   4.707   5.318   1.559
 4794TIP3   OH214317   4.949   5.412   1.272
 4794TIP3    H114318   5.042   5.417   1.244
 4794TIP3    H214319   4.900   5.429   1.188
 4795TIP3   OH214320   5.763   5.422   1.784
 4795TIP3    H114321   5.719   5.447   1.867
 4795TIP3    H214322   5.695   5.369   1.741
 4796TIP3   OH214323   4.796   5.442   1.049
 4796TIP3    H114324   4.731   5.389   0.998
 4796TIP3    H214325   4.852   5.474   0.976
 4797TIP3   OH214326   5.917   7.118   1.999
 4797TIP3    H114327   5.915   7.143   1.905
 4797TIP3    H214328   5.997   7.164   2.030
 4798TIP3   OH214329   4.871   6.228   2.417
 4798TIP3    H114330   4.950   6.258   2.466
 4798TIP3    H214331   4.806   6.226   2.489
 4799TIP3   OH214332   5.405   5.655   1.674
 4799TIP3    H114333   5.371   5.567   1.647
 4799TIP3    H214334   5.386   5.648   1.770
 4800TIP3   OH214335   4.857   5.167   1.556
 4800TIP3    H114336   4.820   5.090   1.603
 4800TIP3    H214337   4.889   5.126   1.474
 4801TIP3   OH214338   5.316   5.616   1.931
 4801TIP3    H114339   5.224   5.623   1.962
 4801TIP3    H214340   5.367   5.652   2.007
 4802TIP3   OH214341   5.049   5.969   1.062
 4802TIP3    H114342   4.977   5.903   1.048
 4802TIP3    H214343   5.027   6.002   1.152
 4803TIP3   OH214344   5.956   6.216   1.682
 4803TIP3    H114345   5.993   6.265   1.604
 4803TIP3    H214346   5.863   6.209   1.658
 4804TIP3   OH214347   5.506   5.276   0.928
 4804TIP3    H114348   5.410   5.253   0.936
 4804TIP3    H214349   5.507   5.372   0.947
 4805TIP3   OH214350   5.440   6.289   2.056
 4805TIP3    H114351   5.470   6.268   2.145
 4805TIP3    H214352   5.405   6.379   2.065
 4806TIP3   OH214353   5.571   5.532   1.032
 4806TIP3    H114354   5.668   5.533   1.038
 4806TIP3    H214355   5.552   5.607   0.972
 4807TIP3   OH214356   4.748   6.000   1.735
 4807TIP3    H114357   4.779   5.965   1.649
 4807TIP3    H214358   4.769   5.928   1.796
 4808TIP3   OH214359   5.198   6.119   0.886
 4808TIP3    H114360   5.150   6.205   0.891
 4808TIP3    H214361   5.140   6.063   0.943
 4809TIP3   OH214362   4.624   5.909   2.345
 4809TIP3    H114363   4.638   5.894   2.441
 4809TIP3    H214364   4.552   5.845   2.327
 4810TIP3   OH214365   5.347   6.029   2.367
 4810TIP3    H114366   5.285   5.967   2.326
 4810TIP3    H214367   5.433   5.992   2.337
 4811TIP3   OH214368   5.603   6.539   1.955
 4811TIP3    H114369   5.507   6.546   1.969
 4811TIP3    H214370   5.635   6.595   2.029
 4812TIP3   OH214371   6.011   5.618   0.863
 4812TIP3    H114372   5.951   5.575   0.797
 4812TIP3    H214373   6.008   5.709   0.824
 4813TIP3   OH214374   6.235   6.479   1.942
 4813TIP3    H114375   6.137   6.474   1.934
 4813TIP3    H214376   6.261   6.450   1.851
 4814TIP3   OH214377   5.742   6.430   0.754
 4814TIP3    H114378   5.706   6.378   0.827
 4814TIP3    H214379   5.688   6.399   0.679
 4815TIP3   OH214380   4.843   6.297   1.362
 4815TIP3    H114381   4.839   6.378   1.306
 4815TIP3    H214382   4.749   6.276   1.368
 4816TIP3   OH214383   4.405   5.601   1.061
 4816TIP3    H114384   4.451   5.684   1.084
 4816TIP3    H214385   4.328   5.604   1.122
 4817TIP3   OH214386   4.982   6.062   1.310
 4817TIP3    H114387   4.944   6.151   1.322
 4817TIP3    H214388   4.934   6.011   1.378
 4818TIP3   OH214389   5.112   6.638   1.826
 4818TIP3    H114390   5.152   6.712   1.776
 4818TIP3    H214391   5.188   6.606   1.877
 4819TIP3   OH214392   4.761   6.534   1.212
 4819TIP3    H114393   4.674   6.543   1.257
 4819TIP3    H214394   4.792   6.627   1.214
 4820TIP3   OH214395   5.499   6.256   1.795
 4820TIP3    H114396   5.469   6.266   1.888
 4820TIP3    H214397   5.594   6.247   1.810
 4821TIP3   OH214398   5.460   6.157   0.675
 4821TIP3    H114399   5.515   6.136   0.752
 4821TIP3    H214400   5.371   6.140   0.707
 4822TIP3   OH214401   5.745   6.804   1.833
 4822TIP3    H114402   5.663   6.751   1.825
 4822TIP3    H214403   5.731   6.870   1.762
 4823TIP3   OH214404   4.829   5.418   2.351
 4823TIP3    H114405   4.732   5.420   2.362
 4823TIP3    H214406   4.856   5.360   2.424
 4824TIP3   OH214407   5.633   6.109   0.895
 4824TIP3    H114408   5.625   6.036   0.960
 4824TIP3    H214409   5.729   6.103   0.874
 4825TIP3   OH214410   4.549   6.501   1.985
 4825TIP3    H114411   4.602   6.428   2.020
 4825TIP3    H214412   4.574   6.573   2.043
 4826TIP3   OH214413   4.828   6.152   0.671
 4826TIP3    H114414   4.853   6.064   0.638
 4826TIP3    H214415   4.809   6.133   0.765
 4827TIP3   OH214416   4.779   6.153   0.945
 4827TIP3    H114417   4.857   6.126   0.996
 4827TIP3    H214418   4.785   6.251   0.950
 4828TIP3   OH214419   4.518   5.845   1.147
 4828TIP3    H114420   4.450   5.890   1.201
 4828TIP3    H214421   4.531   5.912   1.077
 4829TIP3   OH214422   5.664   5.489   2.037
 4829TIP3    H114423   5.749   5.521   2.071
 4829TIP3    H214424   5.652   5.405   2.088
 4830TIP3   OH214425   5.547   5.226   1.205
 4830TIP3    H114426   5.535   5.248   1.111
 4830TIP3    H214427   5.590   5.308   1.240
 4831TIP3   OH214428   5.055   6.349   0.898
 4831TIP3    H114429   4.967   6.380   0.928
 4831TIP3    H214430   5.062   6.394   0.813
 4832TIP3   OH214431   5.237   5.412   1.312
 4832TIP3    H114432   5.300   5.483   1.286
 4832TIP3    H214433   5.246   5.413   1.409
 4833TIP3   OH214434   5.512   5.732   2.108
 4833TIP3    H114435   5.534   5.782   2.189
 4833TIP3    H214436   5.562   5.650   2.121
 4834TIP3   OH214437   5.382   5.135   1.405
 4834TIP3    H114438   5.395   5.210   1.465
 4834TIP3    H214439   5.440   5.164   1.330
 4835TIP3   OH214440   4.798   6.426   0.958
 4835TIP3    H114441   4.766   6.495   0.895
 4835TIP3    H214442   4.780   6.469   1.044
 4836TIP3   OH214443   4.887   5.136   1.202
 4836TIP3    H114444   4.887   5.228   1.233
 4836TIP3    H214445   4.984   5.119   1.201
 4837TIP3   OH214446   6.144   5.631   2.089
 4837TIP3    H114447   6.046   5.630   2.098
 4837TIP3    H214448   6.153   5.577   2.009
 4838TIP3   OH214449   4.512   6.048   0.948
 4838TIP3    H114450   4.583   6.114   0.955
 4838TIP3    H214451   4.554   5.989   0.881
 4839TIP3   OH214452   4.453   5.330   1.094
 4839TIP3    H114453   4.451   5.427   1.082
 4839TIP3    H214454   4.397   5.299   1.021
 4840TIP3   OH214455   5.768   6.778   1.428
 4840TIP3    H114456   5.723   6.827   1.356
 4840TIP3    H214457   5.862   6.799   1.407
 4841TIP3   OH214458   4.844   5.049   1.955
 4841TIP3    H114459   4.812   5.015   1.868
 4841TIP3    H214460   4.832   4.971   2.012
 4842TIP3   OH214461   4.380   6.271   1.334
 4842TIP3    H114462   4.315   6.299   1.399
 4842TIP3    H214463   4.345   6.314   1.252
 4843TIP3   OH214464   4.542   6.817   2.407
 4843TIP3    H114465   4.628   6.817   2.456
 4843TIP3    H214466   4.522   6.722   2.407
 4844TIP3   OH214467   5.017   6.772   2.453
 4844TIP3    H114468   5.112   6.754   2.460
 4844TIP3    H214469   4.992   6.710   2.381
 4845TIP3   OH214470   5.015   6.339   0.600
 4845TIP3    H114471   4.936   6.283   0.618
 4845TIP3    H214472   5.080   6.268   0.586
 4846TIP3   OH214473   5.664   6.678   2.182
 4846TIP3    H114474   5.654   6.611   2.253
 4846TIP3    H214475   5.738   6.732   2.216
 4847TIP3   OH214476   4.669   6.218   2.608
 4847TIP3    H114477   4.685   6.122   2.614
 4847TIP3    H214478   4.582   6.220   2.563
 4848TIP3   OH214479   4.650   5.867   0.801
 4848TIP3    H114480   4.707   5.828   0.869
 4848TIP3    H214481   4.714   5.879   0.728
 4849TIP3   OH214482   5.278   6.305   2.382
 4849TIP3    H114483   5.234   6.323   2.297
 4849TIP3    H214484   5.307   6.212   2.372
 4850TIP3   OH214485   5.144   6.078   0.612
 4850TIP3    H114486   5.155   6.081   0.708
 4850TIP3    H214487   5.144   5.981   0.596
 4851TIP3   OH214488   5.762   6.308   1.969
 4851TIP3    H114489   5.842   6.356   1.939
 4851TIP3    H214490   5.698   6.382   1.973
 4852TIP3   OH214491   4.790   5.955   2.592
 4852TIP3    H114492   4.864   5.899   2.569
 4852TIP3    H214493   4.818   5.987   2.681
 4853TIP3   OH214494   4.859   5.772   1.027
 4853TIP3    H114495   4.824   5.722   1.102
 4853TIP3    H214496   4.895   5.699   0.971
 4854TIP3   OH214497   5.125   5.839   2.257
 4854TIP3    H114498   5.045   5.895   2.257
 4854TIP3    H214499   5.173   5.873   2.178
 4855TIP3   OH214500   4.959   5.571   0.870
 4855TIP3    H114501   4.928   5.569   0.777
 4855TIP3    H214502   5.056   5.570   0.857
 4856TIP3   OH214503   5.641   6.237   2.384
 4856TIP3    H114504   5.727   6.211   2.348
 4856TIP3    H214505   5.631   6.174   2.458
 4857TIP3   OH214506   5.778   5.859   0.536
 4857TIP3    H114507   5.799   5.797   0.463
 4857TIP3    H214508   5.776   5.945   0.487
 4858TIP3   OH214509   5.248   5.626   2.377
 4858TIP3    H114510   5.247   5.547   2.319
 4858TIP3    H214511   5.202   5.693   2.322
 4859TIP3   OH214512   5.249   5.416   2.182
 4859TIP3    H114513   5.275   5.440   2.092
 4859TIP3    H214514   5.155   5.390   2.170
 4860TIP3   OH214515   5.269   5.949   2.060
 4860TIP3    H114516   5.344   5.952   2.001
 4860TIP3    H214517   5.208   6.014   2.019
 4861TIP3   OH214518   5.856   5.911   2.437
 4861TIP3    H114519   5.899   5.826   2.454
 4861TIP3    H214520   5.930   5.966   2.407
 4862TIP3   OH214521   5.897   6.169   2.166
 4862TIP3    H114522   5.839   6.223   2.107
 4862TIP3    H214523   5.985   6.190   2.129
 4863TIP3   OH214524   5.126   5.732   2.611
 4863TIP3    H114525   5.058   5.663   2.627
 4863TIP3    H214526   5.160   5.705   2.523
 4864TIP3   OH214527   5.382   5.175   2.254
 4864TIP3    H114528   5.330   5.256   2.233
 4864TIP3    H214529   5.313   5.105   2.244
 4865TIP3   OH214530   5.507   5.678   2.470
 4865TIP3    H114531   5.495   5.662   2.565
 4865TIP3    H214532   5.417   5.653   2.438
 4866TIP3   OH214533   5.747   5.629   2.327
 4866TIP3    H114534   5.672   5.627   2.389
 4866TIP3    H214535   5.821   5.596   2.383
 4867TIP3   OH214536   5.977   5.570   2.474
 4867TIP3    H114537   5.990   5.473   2.490
 4867TIP3    H214538   5.971   5.605   2.565
 4868TIP3   OH214539   4.966   5.512   2.666
 4868TIP3    H114540   4.968   5.420   2.633
 4868TIP3    H214541   5.004   5.500   2.755
 4869TIP3   OH214542   5.476   5.185   2.513
 4869TIP3    H114543   5.542   5.113   2.508
 4869TIP3    H214544   5.436   5.179   2.424
 4870TIP3   OH214545   5.543   5.400   2.669
 4870TIP3    H114546   5.522   5.327   2.607
 4870TIP3    H214547   5.463   5.456   2.664
 4871TIP3   OH214548   4.762   6.629   0.771
 4871TIP3    H114549   4.857   6.624   0.751
 4871TIP3    H214550   4.731   6.677   0.692
 4872TIP3   OH214551   4.242   6.009   0.987
 4872TIP3    H114552   4.337   6.029   0.972
 4872TIP3    H214553   4.235   5.920   0.946
 4873TIP3   OH214554   4.158   6.621   1.404
 4873TIP3    H114555   4.093   6.560   1.363
 4873TIP3    H214556   4.203   6.561   1.466
 4874TIP3   OH214557   4.293   6.467   1.588
 4874TIP3    H114558   4.280   6.397   1.654
 4874TIP3    H214559   4.345   6.531   1.641
 4875TIP3   OH214560   6.023   6.868   1.388
 4875TIP3    H114561   6.047   6.899   1.478
 4875TIP3    H214562   6.086   6.917   1.333
 4876TIP3   OH214563   6.051   6.891   1.670
 4876TIP3    H114564   6.007   6.804   1.667
 4876TIP3    H214565   6.125   6.870   1.729
 4877TIP3   OH214566   6.095   6.569   2.242
 4877TIP3    H114567   6.024   6.578   2.309
 4877TIP3    H214568   6.139   6.656   2.247
 4878TIP3   OH214569   5.913   6.080   0.869
 4878TIP3    H114570   5.987   6.139   0.845
 4878TIP3    H214571   5.951   6.035   0.947
 4879TIP3   OH214572   6.038   5.947   1.070
 4879TIP3    H114573   5.975   5.904   1.131
 4879TIP3    H214574   6.107   5.981   1.130
 4880TIP3   OH214575   6.096   6.344   1.491
 4880TIP3    H114576   6.153   6.277   1.446
 4880TIP3    H214577   6.096   6.417   1.426
 4881TIP3   OH214578   5.923   6.642   1.691
 4881TIP3    H114579   5.853   6.686   1.743
 4881TIP3    H214580   5.872   6.598   1.620
 4882TIP3   OH214581   5.978   5.854   0.722
 4882TIP3    H114582   5.902   5.840   0.660
 4882TIP3    H214583   5.946   5.933   0.771
 4883TIP3   OH214584   5.853   5.545   0.657
 4883TIP3    H114585   5.833   5.561   0.563
 4883TIP3    H214586   5.818   5.453   0.668
 4884TIP3   OH214587   5.853   5.793   1.218
 4884TIP3    H114588   5.855   5.702   1.180
 4884TIP3    H214589   5.885   5.776   1.308
 4885TIP3   OH214590   4.479   5.878   1.961
 4885TIP3    H114591   4.475   5.844   1.869
 4885TIP3    H214592   4.576   5.879   1.976
 4886TIP3   OH214593   6.144   6.232   2.067
 4886TIP3    H114594   6.214   6.164   2.059
 4886TIP3    H214595   6.177   6.303   2.009
 4887TIP3   OH214596   6.326   6.033   2.079
 4887TIP3    H114597   6.252   5.983   2.119
 4887TIP3    H214598   6.400   5.971   2.095
 4888TIP3   OH214599   5.771   5.290   0.687
 4888TIP3    H114600   5.854   5.241   0.700
 4888TIP3    H214601   5.703   5.219   0.687
 4889TIP3   OH214602   5.858   5.532   1.101
 4889TIP3    H114603   5.892   5.442   1.123
 4889TIP3    H214604   5.913   5.551   1.023
 4890TIP3   OH214605   6.005   5.702   1.593
 4890TIP3    H114606   6.091   5.727   1.553
 4890TIP3    H214607   6.019   5.736   1.683
 4891TIP3   OH214608   6.083   5.840   1.831
 4891TIP3    H114609   6.010   5.876   1.885
 4891TIP3    H214610   6.118   5.920   1.787
 4892TIP3   OH214611   4.699   5.567   2.638
 4892TIP3    H114612   4.797   5.560   2.640
 4892TIP3    H214613   4.675   5.479   2.674
 4893TIP3   OH214614   6.532   5.434   2.387
 4893TIP3    H114615   6.592   5.369   2.346
 4893TIP3    H214616   6.503   5.487   2.309
 4894TIP3   OH214617   5.955   5.278   1.147
 4894TIP3    H114618   6.002   5.257   1.230
 4894TIP3    H214619   5.895   5.200   1.141
 4895TIP3   OH214620   4.660   5.258   1.966
 4895TIP3    H114621   4.721   5.182   1.973
 4895TIP3    H214622   4.723   5.331   1.956
 4896TIP3   OH214623   4.459   5.531   2.036
 4896TIP3    H114624   4.508   5.524   1.951
 4896TIP3    H214625   4.490   5.617   2.068
 4897TIP3   OH214626   6.401   5.569   2.189
 4897TIP3    H114627   6.315   5.610   2.212
 4897TIP3    H214628   6.370   5.495   2.134
 4898TIP3   OH214629   6.040   5.201   0.776
 4898TIP3    H114630   6.068   5.130   0.714
 4898TIP3    H214631   6.108   5.269   0.762
 4899TIP3   OH214632   4.446   5.043   1.546
 4899TIP3    H114633   4.352   5.030   1.566
 4899TIP3    H214634   4.442   5.095   1.463
 4900TIP3   OH214635   5.622   6.733   1.051
 4900TIP3    H114636   5.659   6.726   0.961
 4900TIP3    H214637   5.662   6.815   1.083
 4901TIP3   OH214638   4.667   5.118   2.354
 4901TIP3    H114639   4.614   5.109   2.435
 4901TIP3    H214640   4.600   5.153   2.292
 4902TIP3   OH214641   4.705   6.543   2.427
 4902TIP3    H114642   4.612   6.520   2.412
 4902TIP3    H214643   4.715   6.526   2.521
 4903TIP3   OH214644   4.886   6.578   1.976
 4903TIP3    H114645   4.836   6.653   1.938
 4903TIP3    H214646   4.971   6.592   1.930
 4904TIP3   OH214647   5.325   6.819   2.111
 4904TIP3    H114648   5.366   6.817   2.201
 4904TIP3    H214649   5.391   6.872   2.062
 4905TIP3   OH214650   5.506   6.974   1.975
 4905TIP3    H114651   5.579   6.923   1.935
 4905TIP3    H214652   5.556   7.032   2.036
 4906TIP3   OH214653   6.301   5.331   2.073
 4906TIP3    H114654   6.211   5.317   2.040
 4906TIP3    H214655   6.338   5.239   2.063
 4907TIP3   OH214656   4.560   6.834   2.001
 4907TIP3    H114657   4.470   6.864   1.978
 4907TIP3    H214658   4.572   6.878   2.086
 4908TIP3   OH214659   4.796   6.812   1.860
 4908TIP3    H114660   4.709   6.824   1.904
 4908TIP3    H214661   4.776   6.843   1.769
 4909TIP3   OH214662   5.222   6.837   1.657
 4909TIP3    H114663   5.151   6.854   1.592
 4909TIP3    H214664   5.232   6.926   1.698
 4910TIP3   OH214665   5.491   6.773   1.705
 4910TIP3    H114666   5.396   6.793   1.689
 4910TIP3    H214667   5.533   6.849   1.662
 4911TIP3   OH214668   5.697   6.969   1.620
 4911TIP3    H114669   5.681   7.054   1.574
 4911TIP3    H214670   5.722   6.910   1.545
 4912TIP3   OH214671   4.470   6.626   1.745
 4912TIP3    H114672   4.497   6.597   1.835
 4912TIP3    H214673   4.542   6.584   1.693
 4913TIP3   OH214674   4.665   6.500   1.604
 4913TIP3    H114675   4.680   6.416   1.654
 4913TIP3    H214676   4.756   6.535   1.600
 4914TIP3   OH214677   4.934   6.593   1.607
 4914TIP3    H114678   4.959   6.500   1.597
 4914TIP3    H214679   4.980   6.614   1.691
 4915TIP3   OH214680   5.488   5.241   1.683
 4915TIP3    H114681   5.459   5.171   1.744
 4915TIP3    H214682   5.571   5.204   1.647
 4916TIP3   OH214683   6.026   5.135   1.600
 4916TIP3    H114684   6.062   5.183   1.522
 4916TIP3    H214685   5.930   5.150   1.590
 4917TIP3   OH214686   6.123   5.229   1.362
 4917TIP3    H114687   6.196   5.177   1.322
 4917TIP3    H214688   6.156   5.321   1.347
 4918TIP3   OH214689   4.754   4.956   1.709
 4918TIP3    H114690   4.662   4.924   1.709
 4918TIP3    H214691   4.802   4.871   1.704
 4919TIP3   OH214692   4.552   4.828   1.359
 4919TIP3    H114693   4.577   4.882   1.282
 4919TIP3    H214694   4.520   4.896   1.422
 4920TIP3   OH214695   5.203   4.988   1.590
 4920TIP3    H114696   5.261   5.033   1.525
 4920TIP3    H214697   5.235   5.023   1.674
 4921TIP3   OH214698   5.738   5.140   1.575
 4921TIP3    H114699   5.743   5.100   1.486
 4921TIP3    H214700   5.730   5.059   1.631
 4922TIP3   OH214701   5.777   5.062   1.137
 4922TIP3    H114702   5.689   5.103   1.149
 4922TIP3    H214703   5.762   4.975   1.180
 4923TIP3   OH214704   4.257   6.404   1.133
 4923TIP3    H114705   4.171   6.371   1.100
 4923TIP3    H214706   4.250   6.496   1.103
 4924TIP3   OH214707   4.659   4.981   1.125
 4924TIP3    H114708   4.703   4.918   1.064
 4924TIP3    H214709   4.735   5.033   1.157
 4925TIP3   OH214710   5.166   5.164   1.219
 4925TIP3    H114711   5.225   5.113   1.275
 4925TIP3    H214712   5.192   5.255   1.245
 4926TIP3   OH214713   5.029   6.587   0.716
 4926TIP3    H114714   5.121   6.601   0.687
 4926TIP3    H214715   5.008   6.509   0.660
 4927TIP3   OH214716   5.759   6.703   0.806
 4927TIP3    H114717   5.745   6.608   0.784
 4927TIP3    H214718   5.742   6.746   0.720
 4928TIP3   OH214719   4.962   5.239   2.603
 4928TIP3    H114720   4.928   5.166   2.657
 4928TIP3    H214721   5.057   5.238   2.629
 4929TIP3   OH214722   5.214   5.235   2.719
 4929TIP3    H114723   5.298   5.207   2.680
 4929TIP3    H214724   5.199   5.166   2.786
 4930TIP3   OH214725   4.333   6.413   0.777
 4930TIP3    H114726   4.339   6.441   0.870
 4930TIP3    H214727   4.422   6.372   0.762
 4931TIP3   OH214728   6.039   5.300   2.505
 4931TIP3    H114729   6.057   5.268   2.596
 4931TIP3    H214730   6.128   5.293   2.465
 4932TIP3   OH214731   5.974   6.848   1.996
 4932TIP3    H114732   5.894   6.818   1.948
 4932TIP3    H214733   5.955   6.944   2.005
 4933TIP3   OH214734   7.226   6.210   1.152
 4933TIP3    H114735   7.272   6.200   1.238
 4933TIP3    H214736   7.185   6.122   1.142
 4934TIP3   OH214737   6.537   6.114   1.515
 4934TIP3    H114738   6.568   6.046   1.577
 4934TIP3    H214739   6.618   6.167   1.505
 4935TIP3   OH214740   6.514   6.525   1.233
 4935TIP3    H114741   6.506   6.427   1.235
 4935TIP3    H214742   6.611   6.535   1.229
 4936TIP3   OH214743   6.221   5.732   1.011
 4936TIP3    H114744   6.167   5.811   1.029
 4936TIP3    H214745   6.152   5.671   0.977
 4937TIP3   OH214746   6.275   6.015   1.197
 4937TIP3    H114747   6.325   5.937   1.231
 4937TIP3    H214748   6.339   6.052   1.134
 4938TIP3   OH214749   7.039   6.447   1.193
 4938TIP3    H114750   7.082   6.369   1.153
 4938TIP3    H214751   7.120   6.497   1.217
 4939TIP3   OH214752   8.042   5.779   1.194
 4939TIP3    H114753   8.082   5.850   1.245
 4939TIP3    H214754   8.077   5.795   1.106
 4940TIP3   OH214755   7.454   5.950   1.236
 4940TIP3    H114756   7.496   5.864   1.254
 4940TIP3    H214757   7.423   5.936   1.144
 4941TIP3   OH214758   6.796   5.608   1.189
 4941TIP3    H114759   6.773   5.679   1.125
 4941TIP3    H214760   6.748   5.532   1.147
 4942TIP3   OH214761   7.459   5.701   0.844
 4942TIP3    H114762   7.543   5.685   0.893
 4942TIP3    H214763   7.493   5.716   0.753
 4943TIP3   OH214764   6.426   5.809   1.297
 4943TIP3    H114765   6.508   5.788   1.345
 4943TIP3    H214766   6.438   5.753   1.218
 4944TIP3   OH214767   6.863   6.005   1.095
 4944TIP3    H114768   6.957   5.981   1.108
 4944TIP3    H214769   6.824   5.922   1.062
 4945TIP3   OH214770   6.788   5.591   1.625
 4945TIP3    H114771   6.728   5.628   1.557
 4945TIP3    H214772   6.736   5.608   1.706
 4946TIP3   OH214773   6.894   6.368   1.416
 4946TIP3    H114774   6.834   6.437   1.452
 4946TIP3    H214775   6.938   6.416   1.343
 4947TIP3   OH214776   7.695   5.704   0.986
 4947TIP3    H114777   7.677   5.661   1.071
 4947TIP3    H214778   7.740   5.787   1.016
 4948TIP3   OH214779   6.661   5.706   1.407
 4948TIP3    H114780   6.722   5.779   1.431
 4948TIP3    H214781   6.711   5.665   1.333
 4949TIP3   OH214782   6.724   6.564   1.517
 4949TIP3    H114783   6.699   6.651   1.480
 4949TIP3    H214784   6.644   6.548   1.573
 4950TIP3   OH214785   6.112   6.245   0.756
 4950TIP3    H114786   6.027   6.276   0.721
 4950TIP3    H214787   6.147   6.329   0.794
 4951TIP3   OH214788   7.851   5.657   1.358
 4951TIP3    H114789   7.765   5.695   1.335
 4951TIP3    H214790   7.909   5.697   1.289
 4952TIP3   OH214791   7.139   5.307   1.340
 4952TIP3    H114792   7.127   5.213   1.362
 4952TIP3    H214793   7.063   5.346   1.388
 4953TIP3   OH214794   8.011   6.297   1.216
 4953TIP3    H114795   7.917   6.328   1.222
 4953TIP3    H214796   8.034   6.335   1.130
 4954TIP3   OH214797   7.653   6.190   1.486
 4954TIP3    H114798   7.650   6.271   1.540
 4954TIP3    H214799   7.569   6.199   1.437
 4955TIP3   OH214800   6.656   6.155   0.989
 4955TIP3    H114801   6.612   6.094   0.926
 4955TIP3    H214802   6.732   6.100   1.019
 4956TIP3   OH214803   6.781   6.562   1.143
 4956TIP3    H114804   6.759   6.537   1.052
 4956TIP3    H214805   6.872   6.527   1.154
 4957TIP3   OH214806   6.783   6.127   1.338
 4957TIP3    H114807   6.819   6.102   1.251
 4957TIP3    H214808   6.830   6.211   1.357
 4958TIP3   OH214809   7.280   6.745   1.099
 4958TIP3    H114810   7.301   6.827   1.146
 4958TIP3    H214811   7.290   6.676   1.166
 4959TIP3   OH214812   6.927   6.679   1.665
 4959TIP3    H114813   6.866   6.741   1.711
 4959TIP3    H214814   6.863   6.627   1.613
 4960TIP3   OH214815   6.684   6.237   1.767
 4960TIP3    H114816   6.688   6.325   1.808
 4960TIP3    H214817   6.589   6.216   1.779
 4961TIP3   OH214818   6.721   6.847   1.749
 4961TIP3    H114819   6.687   6.848   1.657
 4961TIP3    H214820   6.640   6.827   1.801
 4962TIP3   OH214821   6.512   5.992   0.820
 4962TIP3    H114822   6.451   6.032   0.755
 4962TIP3    H214823   6.478   5.903   0.828
 4963TIP3   OH214824   6.299   6.380   1.698
 4963TIP3    H114825   6.240   6.354   1.624
 4963TIP3    H214826   6.340   6.294   1.723
 4964TIP3   OH214827   6.156   6.573   1.328
 4964TIP3    H114828   6.252   6.567   1.320
 4964TIP3    H214829   6.146   6.651   1.385
 4965TIP3   OH214830   7.115   6.814   1.516
 4965TIP3    H114831   7.115   6.907   1.547
 4965TIP3    H214832   7.048   6.773   1.575
 4966TIP3   OH214833   6.299   6.772   0.870
 4966TIP3    H114834   6.372   6.774   0.936
 4966TIP3    H214835   6.223   6.759   0.932
 4967TIP3   OH214836   7.917   6.169   1.665
 4967TIP3    H114837   7.848   6.178   1.599
 4967TIP3    H214838   7.948   6.077   1.648
 4968TIP3   OH214839   6.504   6.564   1.681
 4968TIP3    H114840   6.555   6.548   1.763
 4968TIP3    H214841   6.430   6.500   1.691
 4969TIP3   OH214842   6.903   5.386   1.470
 4969TIP3    H114843   6.815   5.355   1.442
 4969TIP3    H214844   6.876   5.466   1.520
 4970TIP3   OH214845   7.440   5.500   1.665
 4970TIP3    H114846   7.511   5.473   1.728
 4970TIP3    H214847   7.358   5.481   1.714
 4971TIP3   OH214848   7.667   5.923   1.576
 4971TIP3    H114849   7.626   5.924   1.665
 4971TIP3    H214850   7.655   6.015   1.546
 4972TIP3   OH214851   6.836   5.903   1.486
 4972TIP3    H114852   6.787   5.923   1.569
 4972TIP3    H214853   6.818   5.985   1.435
 4973TIP3   OH214854   6.719   5.785   0.998
 4973TIP3    H114855   6.627   5.759   1.021
 4973TIP3    H214856   6.723   5.751   0.906
 4974TIP3   OH214857   7.385   6.150   1.814
 4974TIP3    H114858   7.364   6.077   1.876
 4974TIP3    H214859   7.480   6.164   1.834
 4975TIP3   OH214860   7.361   5.910   0.984
 4975TIP3    H114861   7.322   5.958   0.910
 4975TIP3    H214862   7.391   5.827   0.940
 4976TIP3   OH214863   6.654   5.930   1.696
 4976TIP3    H114864   6.691   5.991   1.763
 4976TIP3    H214865   6.643   5.848   1.747
 4977TIP3   OH214866   6.244   5.458   1.280
 4977TIP3    H114867   6.325   5.482   1.329
 4977TIP3    H214868   6.275   5.417   1.198
 4978TIP3   OH214869   6.220   5.437   0.806
 4978TIP3    H114870   6.264   5.471   0.726
 4978TIP3    H214871   6.153   5.506   0.821
 4979TIP3   OH214872   7.365   6.150   1.390
 4979TIP3    H114873   7.406   6.081   1.332
 4979TIP3    H214874   7.342   6.095   1.467
 4980TIP3   OH214875   7.048   5.611   1.059
 4980TIP3    H114876   6.968   5.608   1.116
 4980TIP3    H214877   7.119   5.605   1.126
 4981TIP3   OH214878   6.481   5.666   1.067
 4981TIP3    H114879   6.386   5.674   1.041
 4981TIP3    H214880   6.502   5.573   1.048
 4982TIP3   OH214881   6.749   5.675   0.742
 4982TIP3    H114882   6.846   5.675   0.759
 4982TIP3    H214883   6.744   5.717   0.655
 4983TIP3   OH214884   7.539   5.686   1.260
 4983TIP3    H114885   7.510   5.697   1.353
 4983TIP3    H214886   7.471   5.625   1.228
 4984TIP3   OH214887   6.666   6.486   1.903
 4984TIP3    H114888   6.747   6.515   1.950
 4984TIP3    H214889   6.602   6.485   1.977
 4985TIP3   OH214890   7.128   5.940   1.163
 4985TIP3    H114891   7.208   5.904   1.122
 4985TIP3    H214892   7.130   5.898   1.252
 4986TIP3   OH214893   6.654   5.422   1.043
 4986TIP3    H114894   6.613   5.347   1.091
 4986TIP3    H214895   6.703   5.375   0.974
 4987TIP3   OH214896   7.107   5.844   1.442
 4987TIP3    H114897   7.017   5.876   1.464
 4987TIP3    H214898   7.165   5.900   1.498
 4988TIP3   OH214899   7.753   6.370   1.157
 4988TIP3    H114900   7.740   6.465   1.136
 4988TIP3    H214901   7.659   6.341   1.159
 4989TIP3   OH214902   7.240   6.532   1.548
 4989TIP3    H114903   7.269   6.517   1.639
 4989TIP3    H214904   7.204   6.622   1.552
 4990TIP3   OH214905   6.533   6.246   1.219
 4990TIP3    H114906   6.575   6.220   1.134
 4990TIP3    H214907   6.582   6.192   1.282
 4991TIP3   OH214908   6.419   6.171   1.835
 4991TIP3    H114909   6.441   6.157   1.930
 4991TIP3    H214910   6.353   6.100   1.820
 4992TIP3   OH214911   7.145   6.285   1.853
 4992TIP3    H114912   7.086   6.225   1.805
 4992TIP3    H214913   7.233   6.249   1.826
 4993TIP3   OH214914   7.389   6.783   1.465
 4993TIP3    H114915   7.293   6.792   1.450
 4993TIP3    H214916   7.399   6.836   1.547
 4994TIP3   OH214917   7.489   6.308   1.118
 4994TIP3    H114918   7.393   6.292   1.111
 4994TIP3    H214919   7.523   6.236   1.061
 4995TIP3   OH214920   6.644   6.566   0.886
 4995TIP3    H114921   6.653   6.611   0.799
 4995TIP3    H214922   6.551   6.582   0.905
 4996TIP3   OH214923   6.194   5.858   0.558
 4996TIP3    H114924   6.241   5.933   0.600
 4996TIP3    H214925   6.116   5.851   0.618
 4997TIP3   OH214926   6.754   6.332   0.799
 4997TIP3    H114927   6.738   6.417   0.843
 4997TIP3    H214928   6.741   6.268   0.871
 4998TIP3   OH214929   6.904   6.882   1.322
 4998TIP3    H114930   6.943   6.951   1.263
 4998TIP3    H214931   6.985   6.849   1.364
 4999TIP3   OH214932   7.294   6.522   1.276
 4999TIP3    H114933   7.283   6.516   1.373
 4999TIP3    H214934   7.372   6.467   1.261
 5000TIP3   OH214935   6.627   5.675   1.838
 5000TIP3    H114936   6.530   5.677   1.850
 5000TIP3    H214937   6.654   5.618   1.912
 5001TIP3   OH214938   6.345   6.757   1.471
 5001TIP3    H114939   6.400   6.685   1.506
 5001TIP3    H214940   6.372   6.830   1.529
 5002TIP3   OH214941   6.316   6.092   0.651
 5002TIP3    H114942   6.244   6.136   0.702
 5002TIP3    H214943   6.350   6.168   0.602
 5003TIP3   OH214944   7.468   5.733   1.518
 5003TIP3    H114945   7.545   5.781   1.553
 5003TIP3    H214946   7.460   5.656   1.578
 5004TIP3   OH214947   7.019   5.662   0.793
 5004TIP3    H114948   7.093   5.721   0.773
 5004TIP3    H214949   7.029   5.651   0.890
 5005TIP3   OH214950   7.304   5.984   1.599
 5005TIP3    H114951   7.329   6.039   1.676
 5005TIP3    H214952   7.361   5.906   1.610
 5006TIP3   OH214953   7.192   5.402   0.903
 5006TIP3    H114954   7.180   5.464   0.978
 5006TIP3    H214955   7.265   5.446   0.857
 5007TIP3   OH214956   6.685   5.395   0.673
 5007TIP3    H114957   6.677   5.485   0.709
 5007TIP3    H214958   6.774   5.372   0.709
 5008TIP3   OH214959   7.941   5.910   1.566
 5008TIP3    H114960   7.844   5.901   1.573
 5008TIP3    H214961   7.960   5.848   1.495
 5009TIP3   OH214962   7.586   6.092   0.979
 5009TIP3    H114963   7.520   6.022   0.986
 5009TIP3    H214964   7.667   6.045   1.011
 5010TIP3   OH214965   6.260   5.587   0.575
 5010TIP3    H114966   6.233   5.681   0.568
 5010TIP3    H214967   6.195   5.543   0.519
 5011TIP3   OH214968   6.639   5.305   1.441
 5011TIP3    H114969   6.608   5.271   1.355
 5011TIP3    H214970   6.628   5.227   1.499
 5012TIP3   OH214971   6.165   6.501   0.831
 5012TIP3    H114972   6.115   6.549   0.899
 5012TIP3    H214973   6.239   6.562   0.815
 5013TIP3   OH214974   6.339   7.074   1.894
 5013TIP3    H114975   6.424   7.076   1.943
 5013TIP3    H214976   6.321   6.979   1.894
 5014TIP3   OH214977   6.811   7.027   1.941
 5014TIP3    H114978   6.906   7.012   1.949
 5014TIP3    H214979   6.788   6.966   1.868
 5015TIP3   OH214980   7.448   6.930   1.686
 5015TIP3    H114981   7.442   6.860   1.756
 5015TIP3    H214982   7.531   6.974   1.711
 5016TIP3   OH214983   6.466   6.475   2.096
 5016TIP3    H114984   6.483   6.379   2.103
 5016TIP3    H214985   6.379   6.477   2.051
 5017TIP3   OH214986   7.072   6.559   1.871
 5017TIP3    H114987   7.032   6.580   1.784
 5017TIP3    H214988   7.103   6.467   1.859
 5018TIP3   OH214989   7.561   6.567   1.473
 5018TIP3    H114990   7.620   6.631   1.432
 5018TIP3    H214991   7.478   6.618   1.473
 5019TIP3   OH214992   6.585   6.210   2.078
 5019TIP3    H114993   6.662   6.158   2.052
 5019TIP3    H214994   6.613   6.241   2.167
 5020TIP3   OH214995   6.917   6.089   1.737
 5020TIP3    H114996   6.842   6.152   1.740
 5020TIP3    H214997   6.969   6.124   1.661
 5021TIP3   OH214998   7.442   6.490   1.868
 5021TIP3    H114999   7.519   6.458   1.818
 5021TIP3    H215000   7.438   6.427   1.942
 5022TIP3   OH215001   7.042   5.882   1.865
 5022TIP3    H115002   7.045   5.803   1.808
 5022TIP3    H215003   6.999   5.948   1.807
 5023TIP3   OH215004   7.047   5.670   1.672
 5023TIP3    H115005   7.075   5.708   1.587
 5023TIP3    H215006   6.954   5.646   1.653
 5024TIP3   OH215007   7.069   6.200   1.546
 5024TIP3    H115008   7.156   6.214   1.506
 5024TIP3    H215009   7.015   6.268   1.499
 5025TIP3   OH215010   7.656   6.168   1.925
 5025TIP3    H115011   7.702   6.084   1.937
 5025TIP3    H215012   7.728   6.222   1.887
 5026TIP3   OH215013   7.669   6.425   1.678
 5026TIP3    H115014   7.617   6.476   1.612
 5026TIP3    H215015   7.757   6.431   1.635
 5027TIP3   OH215016   6.921   5.989   2.098
 5027TIP3    H115017   6.854   5.919   2.113
 5027TIP3    H215018   6.956   5.962   2.010
 5028TIP3   OH215019   7.177   5.431   1.743
 5028TIP3    H115020   7.129   5.512   1.719
 5028TIP3    H215021   7.108   5.362   1.731
 5029TIP3   OH215022   7.304   5.934   1.957
 5029TIP3    H115023   7.292   5.919   2.053
 5029TIP3    H215024   7.214   5.909   1.927
 5030TIP3   OH215025   7.542   5.885   1.812
 5030TIP3    H115026   7.468   5.885   1.876
 5030TIP3    H215027   7.617   5.855   1.868
 5031TIP3   OH215028   7.770   5.827   1.961
 5031TIP3    H115029   7.784   5.731   1.977
 5031TIP3    H215030   7.769   5.863   2.053
 5032TIP3   OH215031   6.760   5.769   2.153
 5032TIP3    H115032   6.765   5.677   2.119
 5032TIP3    H215033   6.799   5.757   2.242
 5033TIP3   OH215034   7.270   5.440   2.001
 5033TIP3    H115035   7.338   5.370   1.995
 5033TIP3    H215036   7.231   5.435   1.912
 5034TIP3   OH215037   7.337   5.654   2.159
 5034TIP3    H115038   7.316   5.583   2.095
 5034TIP3    H215039   7.258   5.712   2.151
 5035TIP3   OH215040   5.953   6.880   0.894
 5035TIP3    H115041   5.885   6.826   0.849
 5035TIP3    H215042   5.993   6.815   0.954
 5036TIP3   OH215043   6.107   6.719   1.064
 5036TIP3    H115044   6.079   6.652   1.128
 5036TIP3    H215045   6.148   6.784   1.125
 5037TIP3   OH215046   6.275   6.140   1.446
 5037TIP3    H115047   6.273   6.103   1.355
 5037TIP3    H215048   6.372   6.140   1.463
 5038TIP3   OH215049   7.894   6.466   1.536
 5038TIP3    H115050   7.981   6.429   1.560
 5038TIP3    H215051   7.922   6.528   1.465
 5039TIP3   OH215052   7.805   5.949   1.072
 5039TIP3    H115053   7.892   5.977   1.040
 5039TIP3    H215054   7.810   5.984   1.164
 5040TIP3   OH215055   7.850   6.080   1.304
 5040TIP3    H115056   7.784   6.120   1.364
 5040TIP3    H215057   7.916   6.151   1.297
 5041TIP3   OH215058   6.494   5.823   2.122
 5041TIP3    H115059   6.592   5.817   2.125
 5041TIP3    H215060   6.470   5.736   2.159
 5042TIP3   OH215061   6.457   5.515   1.452
 5042TIP3    H115062   6.517   5.439   1.461
 5042TIP3    H215063   6.520   5.588   1.443
 5043TIP3   OH215064   6.253   5.791   1.518
 5043TIP3    H115065   6.305   5.781   1.436
 5043TIP3    H215066   6.295   5.867   1.559
 5044TIP3   OH215067   6.241   5.304   1.041
 5044TIP3    H115068   6.147   5.286   1.055
 5044TIP3    H215069   6.240   5.353   0.955
 5045TIP3   OH215070   6.462   5.373   1.839
 5045TIP3    H115071   6.410   5.366   1.921
 5045TIP3    H215072   6.395   5.410   1.778
 5046TIP3   OH215073   6.500   6.802   1.912
 5046TIP3    H115074   6.407   6.776   1.900
 5046TIP3    H215075   6.514   6.783   2.006
 5047TIP3   OH215076   6.678   6.834   1.465
 5047TIP3    H115077   6.633   6.910   1.423
 5047TIP3    H215078   6.765   6.843   1.420
 5048TIP3   OH215079   7.136   7.089   1.596
 5048TIP3    H115080   7.169   7.082   1.688
 5048TIP3    H215081   7.210   7.136   1.555
 5049TIP3   OH215082   8.079   5.565   1.576
 5049TIP3    H115083   8.006   5.592   1.518
 5049TIP3    H215084   8.134   5.512   1.517
 5050TIP3   OH215085   6.352   7.091   1.485
 5050TIP3    H115086   6.261   7.124   1.468
 5050TIP3    H215087   6.369   7.131   1.572
 5051TIP3   OH215088   6.584   7.062   1.344
 5051TIP3    H115089   6.496   7.074   1.387
 5051TIP3    H215090   6.566   7.091   1.252
 5052TIP3   OH215091   6.998   7.072   1.159
 5052TIP3    H115092   6.955   7.111   1.081
 5052TIP3    H215093   7.029   7.151   1.207
 5053TIP3   OH215094   6.268   6.880   1.229
 5053TIP3    H115095   6.292   6.854   1.321
 5053TIP3    H215096   6.343   6.839   1.181
 5054TIP3   OH215097   6.464   6.752   1.089
 5054TIP3    H115098   6.478   6.670   1.142
 5054TIP3    H215099   6.555   6.790   1.091
 5055TIP3   OH215100   6.725   6.844   1.102
 5055TIP3    H115101   6.760   6.753   1.092
 5055TIP3    H215102   6.779   6.873   1.178
 5056TIP3   OH215103   7.293   5.496   1.168
 5056TIP3    H115104   7.259   5.428   1.228
 5056TIP3    H215105   7.375   5.453   1.134
 5057TIP3   OH215106   7.828   5.384   1.087
 5057TIP3    H115107   7.869   5.433   1.012
 5057TIP3    H215108   7.734   5.407   1.078
 5058TIP3   OH215109   6.306   3.843   9.037
 5058TIP3    H115110   6.360   3.797   8.971
 5058TIP3    H215111   6.311   3.935   9.008
 5059TIP3   OH215112   6.551   5.213   1.194
 5059TIP3    H115113   6.458   5.181   1.194
 5059TIP3    H215114   6.598   5.128   1.189
 5060TIP3   OH215115   6.354   5.080   0.854
 5060TIP3    H115116   6.386   5.135   0.779
 5060TIP3    H215117   6.314   5.147   0.912
 5061TIP3   OH215118   6.997   5.242   1.082
 5061TIP3    H115119   7.055   5.295   1.025
 5061TIP3    H215120   7.020   5.276   1.170
 5062TIP3   OH215121   7.539   5.391   1.057
 5062TIP3    H115122   7.552   5.344   0.974
 5062TIP3    H215123   7.530   5.315   1.120
 5063TIP3   OH215124   6.459   5.227   0.650
 5063TIP3    H115125   6.465   5.189   0.561
 5063TIP3    H215126   6.538   5.285   0.654
 5064TIP3   OH215127   6.935   5.398   0.775
 5064TIP3    H115128   7.012   5.347   0.805
 5064TIP3    H215129   6.972   5.488   0.780
 5065TIP3   OH215130   6.758   5.494   2.087
 5065TIP3    H115131   6.724   5.423   2.144
 5065TIP3    H215132   6.853   5.494   2.114
 5066TIP3   OH215133   7.008   5.492   2.205
 5066TIP3    H115134   7.094   5.467   2.165
 5066TIP3    H215135   6.996   5.421   2.271
 5067TIP3   OH215136   7.830   5.556   1.994
 5067TIP3    H115137   7.851   5.525   2.085
 5067TIP3    H215138   7.918   5.553   1.951
 5068TIP3   OH215139   0.510   6.554   2.882
 5068TIP3    H115140   0.536   6.638   2.926
 5068TIP3    H215141   0.533   6.573   2.790
 5069TIP3   OH215142  -0.063   6.456   2.499
 5069TIP3    H115143   0.004   6.473   2.569
 5069TIP3    H215144  -0.036   6.519   2.431
 5070TIP3   OH215145   0.573   6.763   3.058
 5070TIP3    H115146   0.490   6.813   3.045
 5070TIP3    H215147   0.607   6.804   3.139
 5071TIP3   OH215148   0.139   6.507   2.675
 5071TIP3    H115149   0.157   6.425   2.723
 5071TIP3    H215150   0.203   6.570   2.712
 5072TIP3   OH215151   0.306   6.460   3.047
 5072TIP3    H115152   0.227   6.505   3.014
 5072TIP3    H215153   0.374   6.486   2.980
 5073TIP3   OH215154   0.223   7.484   3.031
 5073TIP3    H115155   0.209   7.397   2.989
 5073TIP3    H215156   0.261   7.538   2.958
 5074TIP3   OH215157   0.430   7.103   2.872
 5074TIP3    H115158   0.350   7.157   2.881
 5074TIP3    H215159   0.460   7.129   2.782
 5075TIP3   OH215160   0.241   6.041   2.143
 5075TIP3    H115161   0.160   6.067   2.192
 5075TIP3    H215162   0.266   6.125   2.099
 5076TIP3   OH215163   0.377   6.945   3.355
 5076TIP3    H115164   0.296   6.968   3.308
 5076TIP3    H215165   0.378   6.847   3.347
 5077TIP3   OH215166   0.200   7.255   2.872
 5077TIP3    H115167   0.234   7.304   2.792
 5077TIP3    H215168   0.113   7.227   2.843
 5078TIP3   OH215169   0.476   7.509   3.127
 5078TIP3    H115170   0.379   7.515   3.110
 5078TIP3    H215171   0.507   7.491   3.035
 5079TIP3   OH215172   0.373   6.679   3.276
 5079TIP3    H115173   0.291   6.630   3.295
 5079TIP3    H215174   0.395   6.647   3.187
 5080TIP3   OH215175   0.045   6.848   2.650
 5080TIP3    H115176  -0.018   6.777   2.668
 5080TIP3    H215177   0.124   6.817   2.697
 5081TIP3   OH215178   0.303   6.597   3.694
 5081TIP3    H115179   0.296   6.499   3.689
 5081TIP3    H215180   0.208   6.619   3.698
 5082TIP3   OH215181   0.300   6.995   2.225
 5082TIP3    H115182   0.233   6.954   2.283
 5082TIP3    H215183   0.366   7.027   2.290
 5083TIP3   OH215184   0.330   7.381   2.672
 5083TIP3    H115185   0.395   7.323   2.628
 5083TIP3    H215186   0.336   7.463   2.622
 5084TIP3   OH215187   0.134   6.838   2.384
 5084TIP3    H115188   0.126   6.740   2.381
 5084TIP3    H215189   0.102   6.856   2.474
 5085TIP3   OH215190   0.385   7.269   3.246
 5085TIP3    H115191   0.459   7.205   3.238
 5085TIP3    H215192   0.413   7.341   3.188
 5086TIP3   OH215193   0.582   7.080   3.249
 5086TIP3    H115194   0.510   7.034   3.297
 5086TIP3    H215195   0.655   7.017   3.265
 5087TIP3   OH215196   0.134   6.569   2.309
 5087TIP3    H115197   0.152   6.481   2.346
 5087TIP3    H215198   0.157   6.551   2.216
 5088TIP3   OH215199   0.262   6.742   2.783
 5088TIP3    H115200   0.347   6.766   2.739
 5088TIP3    H215201   0.277   6.785   2.870
 5089TIP3   OH215202   0.320   6.888   3.011
 5089TIP3    H115203   0.238   6.920   3.054
 5089TIP3    H215204   0.355   6.970   2.970
 5090TIP3   OH215205   0.784   6.479   3.563
 5090TIP3    H115206   0.842   6.413   3.519
 5090TIP3    H215207   0.752   6.531   3.486
 5091TIP3   OH215208   0.217   6.305   2.321
 5091TIP3    H115209   0.260   6.290   2.408
 5091TIP3    H215210   0.146   6.236   2.324
 5092TIP3   OH215211   0.647   6.615   3.371
 5092TIP3    H115212   0.567   6.658   3.409
 5092TIP3    H215213   0.605   6.546   3.315
 5093TIP3   OH215214   0.346   6.251   1.992
 5093TIP3    H115215   0.360   6.186   1.921
 5093TIP3    H215216   0.355   6.335   1.944
 5094TIP3   OH215217   0.548   6.376   3.250
 5094TIP3    H115218   0.458   6.359   3.217
 5094TIP3    H215219   0.587   6.286   3.241
 5095TIP3   OH215220   0.298   6.166   2.770
 5095TIP3    H115221   0.334   6.219   2.695
 5095TIP3    H215222   0.202   6.190   2.764
 5096TIP3   OH215223   0.379   6.280   2.540
 5096TIP3    H115224   0.451   6.227   2.500
 5096TIP3    H215225   0.410   6.372   2.521
 5097TIP3   OH215226   0.037   6.215   2.740
 5097TIP3    H115227  -0.036   6.223   2.677
 5097TIP3    H215228   0.013   6.133   2.790
 5098TIP3   OH215229   0.030   6.099   2.309
 5098TIP3    H115230  -0.056   6.129   2.276
 5098TIP3    H215231   0.006   6.015   2.352
 5099TIP3   OH215232   0.290   6.324   3.680
 5099TIP3    H115233   0.305   6.300   3.774
 5099TIP3    H215234   0.381   6.321   3.643
 5100TIP3   OH215235   1.492   7.261   1.945
 5100TIP3    H115236   1.446   7.345   1.928
 5100TIP3    H215237   1.426   7.198   1.911
 5101TIP3   OH215238   1.485   7.260   2.339
 5101TIP3    H115239   1.554   7.214   2.391
 5101TIP3    H215240   1.454   7.188   2.283
 5102TIP3   OH215241   0.785   7.158   2.690
 5102TIP3    H115242   0.816   7.091   2.754
 5102TIP3    H215243   0.863   7.215   2.684
 5103TIP3   OH215244   1.708   7.564   2.016
 5103TIP3    H115245   1.708   7.491   2.082
 5103TIP3    H215246   1.761   7.631   2.061
 5104TIP3   OH215247   0.822   7.514   2.490
 5104TIP3    H115248   0.788   7.430   2.453
 5104TIP3    H215249   0.898   7.532   2.429
 5105TIP3   OH215250   0.455   6.749   2.184
 5105TIP3    H115251   0.414   6.838   2.175
 5105TIP3    H215252   0.409   6.717   2.264
 5106TIP3   OH215253   0.529   7.062   2.371
 5106TIP3    H115254   0.575   6.983   2.406
 5106TIP3    H215255   0.605   7.114   2.339
 5107TIP3   OH215256   1.304   7.480   2.372
 5107TIP3    H115257   1.352   7.398   2.349
 5107TIP3    H215258   1.382   7.537   2.391
 5108TIP3   OH215259   2.316   6.823   2.357
 5108TIP3    H115260   2.285   6.912   2.332
 5108TIP3    H215261   2.354   6.796   2.271
 5109TIP3   OH215262   1.039   6.653   2.368
 5109TIP3    H115263   1.022   6.726   2.305
 5109TIP3    H215264   0.992   6.580   2.322
 5110TIP3   OH215265   1.736   6.738   1.991
 5110TIP3    H115266   1.808   6.726   2.057
 5110TIP3    H215267   1.786   6.779   1.918
 5111TIP3   OH215268   0.673   6.852   2.475
 5111TIP3    H115269   0.756   6.835   2.524
 5111TIP3    H215270   0.690   6.798   2.394
 5112TIP3   OH215271   1.118   7.052   2.272
 5112TIP3    H115272   1.212   7.026   2.281
 5112TIP3    H215273   1.077   6.968   2.242
 5113TIP3   OH215274   1.036   6.636   2.802
 5113TIP3    H115275   0.978   6.674   2.733
 5113TIP3    H215276   0.983   6.655   2.882
 5114TIP3   OH215277   1.350   7.470   1.826
 5114TIP3    H115278   1.348   7.449   1.731
 5114TIP3    H215279   1.400   7.555   1.827
 5115TIP3   OH215280   1.140   7.414   2.593
 5115TIP3    H115281   1.078   7.483   2.623
 5115TIP3    H215282   1.183   7.459   2.516
 5116TIP3   OH215283   1.940   6.744   2.173
 5116TIP3    H115284   1.912   6.711   2.260
 5116TIP3    H215285   1.993   6.823   2.199
 5117TIP3   OH215286   0.907   6.752   2.586
 5117TIP3    H115287   0.968   6.826   2.609
 5117TIP3    H215288   0.958   6.711   2.512
 5118TIP3   OH215289   0.969   7.629   2.700
 5118TIP3    H115290   0.922   7.618   2.614
 5118TIP3    H215291   0.892   7.624   2.760
 5119TIP3   OH215292   2.091   6.717   2.535
 5119TIP3    H115293   1.997   6.724   2.507
 5119TIP3    H215294   2.137   6.740   2.451
 5120TIP3   OH215295   1.391   6.351   2.520
 5120TIP3    H115296   1.373   6.256   2.537
 5120TIP3    H215297   1.314   6.392   2.565
 5121TIP3   OH215298   1.732   7.585   1.727
 5121TIP3    H115299   1.713   7.502   1.675
 5121TIP3    H215300   1.745   7.550   1.817
 5122TIP3   OH215301   2.025   7.715   2.519
 5122TIP3    H115302   2.012   7.641   2.456
 5122TIP3    H215303   2.041   7.790   2.458
 5123TIP3   OH215304   1.334   7.112   1.777
 5123TIP3    H115305   1.258   7.172   1.762
 5123TIP3    H215306   1.379   7.116   1.690
 5124TIP3   OH215307   1.303   6.900   1.506
 5124TIP3    H115308   1.372   6.953   1.550
 5124TIP3    H215309   1.359   6.840   1.452
 5125TIP3   OH215310   2.238   7.347   2.384
 5125TIP3    H115311   2.151   7.391   2.389
 5125TIP3    H215312   2.263   7.373   2.293
 5126TIP3   OH215313   1.672   7.194   1.749
 5126TIP3    H115314   1.617   7.218   1.827
 5126TIP3    H215315   1.756   7.168   1.793
 5127TIP3   OH215316   1.942   7.257   2.651
 5127TIP3    H115317   1.888   7.333   2.677
 5127TIP3    H215318   1.877   7.215   2.588
 5128TIP3   OH215319   0.910   7.197   2.152
 5128TIP3    H115320   0.865   7.132   2.095
 5128TIP3    H215321   0.985   7.144   2.188
 5129TIP3   OH215322   1.041   7.569   2.344
 5129TIP3    H115323   1.037   7.529   2.257
 5129TIP3    H215324   1.137   7.584   2.354
 5130TIP3   OH215325   1.029   7.175   2.509
 5130TIP3    H115326   1.072   7.147   2.425
 5130TIP3    H215327   1.077   7.258   2.530
 5131TIP3   OH215328   1.217   7.630   2.838
 5131TIP3    H115329   1.183   7.719   2.858
 5131TIP3    H215330   1.143   7.597   2.784
 5132TIP3   OH215331   1.514   7.058   1.574
 5132TIP3    H115332   1.575   7.118   1.622
 5132TIP3    H215333   1.536   7.080   1.479
 5133TIP3   OH215334   0.932   7.282   2.940
 5133TIP3    H115335   0.937   7.370   2.982
 5133TIP3    H215336   0.838   7.259   2.957
 5134TIP3   OH215337   2.026   6.297   1.620
 5134TIP3    H115338   1.943   6.320   1.668
 5134TIP3    H215339   2.041   6.378   1.568
 5135TIP3   OH215340   0.758   7.035   1.967
 5135TIP3    H115341   0.706   7.083   1.901
 5135TIP3    H215342   0.718   6.946   1.961
 5136TIP3   OH215343   0.563   7.427   2.882
 5136TIP3    H115344   0.500   7.403   2.812
 5136TIP3    H215345   0.601   7.340   2.907
 5137TIP3   OH215346   2.168   7.209   2.781
 5137TIP3    H115347   2.081   7.251   2.761
 5137TIP3    H215348   2.146   7.161   2.864
 5138TIP3   OH215349   0.756   7.628   2.872
 5138TIP3    H115350   0.810   7.592   2.946
 5138TIP3    H215351   0.683   7.562   2.868
 5139TIP3   OH215352   1.153   6.429   2.648
 5139TIP3    H115353   1.063   6.400   2.620
 5139TIP3    H215354   1.128   6.512   2.694
 5140TIP3   OH215355   1.687   6.545   2.839
 5140TIP3    H115356   1.755   6.519   2.904
 5140TIP3    H215357   1.603   6.526   2.886
 5141TIP3   OH215358   1.957   6.990   2.776
 5141TIP3    H115359   1.899   6.972   2.855
 5141TIP3    H215360   1.895   7.040   2.719
 5142TIP3   OH215361   1.560   7.092   1.313
 5142TIP3    H115362   1.542   7.063   1.221
 5142TIP3    H215363   1.647   7.137   1.297
 5143TIP3   OH215364   1.292   6.486   1.612
 5143TIP3    H115365   1.264   6.482   1.706
 5143TIP3    H215366   1.259   6.399   1.583
 5144TIP3   OH215367   1.079   6.952   2.660
 5144TIP3    H115368   1.034   6.972   2.744
 5144TIP3    H215369   1.062   7.034   2.608
 5145TIP3   OH215370   0.965   6.838   2.183
 5145TIP3    H115371   0.873   6.809   2.198
 5145TIP3    H215372   0.982   6.797   2.095
 5146TIP3   OH215373   1.460   6.909   1.902
 5146TIP3    H115374   1.410   6.981   1.858
 5146TIP3    H215375   1.517   6.877   1.829
 5147TIP3   OH215376   1.639   7.196   2.989
 5147TIP3    H115377   1.611   7.121   3.046
 5147TIP3    H215378   1.732   7.204   3.015
 5148TIP3   OH215379   1.601   6.949   2.135
 5148TIP3    H115380   1.542   6.961   2.058
 5148TIP3    H215381   1.646   6.868   2.106
 5149TIP3   OH215382   0.902   6.976   2.873
 5149TIP3    H115383   0.939   7.038   2.938
 5149TIP3    H215384   0.893   6.894   2.926
 5150TIP3   OH215385   0.959   6.446   1.570
 5150TIP3    H115386   0.941   6.475   1.662
 5150TIP3    H215387   0.871   6.410   1.544
 5151TIP3   OH215388   0.493   6.510   2.455
 5151TIP3    H115389   0.575   6.530   2.504
 5151TIP3    H215390   0.523   6.473   2.370
 5152TIP3   OH215391   0.459   6.514   1.953
 5152TIP3    H115392   0.546   6.522   1.911
 5152TIP3    H215393   0.460   6.587   2.018
 5153TIP3   OH215394   1.295   6.649   2.236
 5153TIP3    H115395   1.218   6.652   2.296
 5153TIP3    H215396   1.369   6.659   2.298
 5154TIP3   OH215397   0.727   6.711   2.243
 5154TIP3    H115398   0.635   6.709   2.209
 5154TIP3    H215399   0.758   6.619   2.227
 5155TIP3   OH215400   1.007   6.710   1.948
 5155TIP3    H115401   1.104   6.720   1.934
 5155TIP3    H215402   0.971   6.717   1.856
 5156TIP3   OH215403   1.824   6.712   2.449
 5156TIP3    H115404   1.780   6.758   2.524
 5156TIP3    H215405   1.747   6.674   2.405
 5157TIP3   OH215406   0.877   6.699   1.714
 5157TIP3    H115407   0.780   6.711   1.716
 5157TIP3    H215408   0.901   6.747   1.633
 5158TIP3   OH215409   0.918   7.530   3.077
 5158TIP3    H115410   0.997   7.557   3.129
 5158TIP3    H215411   0.854   7.517   3.150
 5159TIP3   OH215412   1.383   6.974   2.324
 5159TIP3    H115413   1.468   6.960   2.277
 5159TIP3    H215414   1.404   6.942   2.413
 5160TIP3   OH215415   0.893   6.473   2.218
 5160TIP3    H115416   0.859   6.394   2.266
 5160TIP3    H215417   0.943   6.431   2.146
 5161TIP3   OH215418   1.345   6.869   2.634
 5161TIP3    H115419   1.258   6.913   2.640
 5161TIP3    H215420   1.404   6.928   2.687
 5162TIP3   OH215421   1.118   7.273   1.744
 5162TIP3    H115422   1.055   7.197   1.750
 5162TIP3    H215423   1.093   7.322   1.826
 5163TIP3   OH215424   2.003   7.492   2.353
 5163TIP3    H115425   2.032   7.542   2.274
 5163TIP3    H215426   1.917   7.456   2.323
 5164TIP3   OH215427   1.548   6.581   1.586
 5164TIP3    H115428   1.451   6.567   1.594
 5164TIP3    H215429   1.559   6.676   1.609
 5165TIP3   OH215430   1.504   7.605   2.716
 5165TIP3    H115431   1.526   7.554   2.796
 5165TIP3    H215432   1.428   7.656   2.748
 5166TIP3   OH215433   1.617   6.828   1.687
 5166TIP3    H115434   1.713   6.833   1.703
 5166TIP3    H215435   1.601   6.908   1.632
 5167TIP3   OH215436   0.766   7.246   2.388
 5167TIP3    H115437   0.819   7.243   2.305
 5167TIP3    H215438   0.830   7.209   2.452
 5168TIP3   OH215439   1.296   7.382   1.563
 5168TIP3    H115440   1.237   7.446   1.515
 5168TIP3    H215441   1.228   7.338   1.618
 5169TIP3   OH215442   0.670   7.208   3.011
 5169TIP3    H115443   0.685   7.193   3.107
 5169TIP3    H215444   0.600   7.142   2.994
 5170TIP3   OH215445   1.397   7.317   3.036
 5170TIP3    H115446   1.335   7.270   2.977
 5170TIP3    H215447   1.483   7.283   3.003
 5171TIP3   OH215448   2.276   7.772   2.607
 5171TIP3    H115449   2.179   7.779   2.590
 5171TIP3    H215450   2.305   7.756   2.514
 5172TIP3   OH215451   1.764   7.381   2.245
 5172TIP3    H115452   1.686   7.353   2.295
 5172TIP3    H215453   1.796   7.292   2.218
 5173TIP3   OH215454   1.018   7.382   1.976
 5173TIP3    H115455   1.007   7.465   2.023
 5173TIP3    H215456   0.989   7.316   2.042
 5174TIP3   OH215457   1.545   7.581   2.445
 5174TIP3    H115458   1.532   7.590   2.542
 5174TIP3    H215459   1.625   7.529   2.440
 5175TIP3   OH215460   1.516   7.426   1.338
 5175TIP3    H115461   1.578   7.411   1.413
 5175TIP3    H215462   1.432   7.406   1.383
 5176TIP3   OH215463   0.876   6.718   3.016
 5176TIP3    H115464   0.780   6.720   3.032
 5176TIP3    H215465   0.907   6.663   3.091
 5177TIP3   OH215466   1.679   7.379   1.550
 5177TIP3    H115467   1.676   7.305   1.614
 5177TIP3    H215468   1.776   7.383   1.531
 5178TIP3   OH215469   1.719   6.787   2.702
 5178TIP3    H115470   1.792   6.815   2.759
 5178TIP3    H215471   1.691   6.705   2.746
 5179TIP3   OH215472   1.598   6.529   1.868
 5179TIP3    H115473   1.583   6.556   1.775
 5179TIP3    H215474   1.638   6.610   1.906
 5180TIP3   OH215475   1.281   6.714   1.969
 5180TIP3    H115476   1.347   6.785   1.952
 5180TIP3    H215477   1.289   6.704   2.067
 5181TIP3   OH215478   1.522   7.007   2.790
 5181TIP3    H115479   1.567   7.079   2.837
 5181TIP3    H215480   1.595   6.957   2.751
 5182TIP3   OH215481   1.426   6.433   2.068
 5182TIP3    H115482   1.422   6.507   2.132
 5182TIP3    H215483   1.488   6.470   2.001
 5183TIP3   OH215484   0.943   6.437   1.863
 5183TIP3    H115485   0.940   6.530   1.892
 5183TIP3    H215486   1.040   6.422   1.864
 5184TIP3   OH215487   2.193   6.946   2.659
 5184TIP3    H115488   2.109   6.938   2.715
 5184TIP3    H215489   2.185   6.847   2.618
 5185TIP3   OH215490   1.836   7.113   2.144
 5185TIP3    H115491   1.747   7.078   2.166
 5185TIP3    H215492   1.890   7.055   2.199
 5186TIP3   OH215493   0.888   6.350   2.619
 5186TIP3    H115494   0.858   6.317   2.531
 5186TIP3    H215495   0.877   6.271   2.676
 5187TIP3   OH215496   0.715   7.497   3.257
 5187TIP3    H115497   0.738   7.402   3.268
 5187TIP3    H215498   0.624   7.490   3.221
 5188TIP3   OH215499   1.339   7.582   3.074
 5188TIP3    H115500   1.303   7.595   2.984
 5188TIP3    H215501   1.372   7.490   3.067
 5189TIP3   OH215502   1.811   7.602   2.657
 5189TIP3    H115503   1.876   7.659   2.611
 5189TIP3    H215504   1.733   7.661   2.658
 5190TIP3   OH215505   0.842   7.248   3.257
 5190TIP3    H115506   0.918   7.193   3.236
 5190TIP3    H215507   0.866   7.281   3.346
 5191TIP3   OH215508   0.943   7.065   1.736
 5191TIP3    H115509   0.899   7.023   1.811
 5191TIP3    H215510   0.948   6.992   1.672
 5192TIP3   OH215511   1.163   7.132   2.914
 5192TIP3    H115512   1.089   7.196   2.917
 5192TIP3    H215513   1.218   7.169   2.840
 5193TIP3   OH215514   1.026   6.858   1.516
 5193TIP3    H115515   1.039   6.817   1.429
 5193TIP3    H215516   1.119   6.885   1.534
 5194TIP3   OH215517   1.692   7.542   3.053
 5194TIP3    H115518   1.760   7.507   2.994
 5194TIP3    H215519   1.683   7.471   3.120
 5195TIP3   OH215520   1.776   7.207   1.198
 5195TIP3    H115521   1.804   7.157   1.119
 5195TIP3    H215522   1.770   7.299   1.165
 5196TIP3   OH215523   1.293   6.926   3.041
 5196TIP3    H115524   1.298   6.848   2.983
 5196TIP3    H215525   1.252   6.993   2.982
 5197TIP3   OH215526   1.295   6.708   2.854
 5197TIP3    H115527   1.323   6.753   2.772
 5197TIP3    H215528   1.201   6.687   2.834
 5198TIP3   OH215529   1.317   7.253   2.731
 5198TIP3    H115530   1.393   7.237   2.673
 5198TIP3    H215531   1.264   7.318   2.680
 5199TIP3   OH215532   1.898   7.213   3.104
 5199TIP3    H115533   1.944   7.129   3.117
 5199TIP3    H215534   1.969   7.275   3.083
 5200TIP3   OH215535   1.952   7.481   2.853
 5200TIP3    H115536   1.890   7.526   2.790
 5200TIP3    H215537   2.035   7.491   2.803
 5201TIP3   OH215538   1.173   7.031   3.274
 5201TIP3    H115539   1.103   6.965   3.290
 5201TIP3    H215540   1.205   7.006   3.185
 5202TIP3   OH215541   1.427   6.474   2.921
 5202TIP3    H115542   1.379   6.556   2.897
 5202TIP3    H215543   1.358   6.406   2.908
 5203TIP3   OH215544   1.554   6.978   3.131
 5203TIP3    H115545   1.531   6.964   3.225
 5203TIP3    H215546   1.468   6.956   3.090
 5204TIP3   OH215547   1.798   6.929   2.987
 5204TIP3    H115548   1.714   6.933   3.038
 5204TIP3    H215549   1.860   6.894   3.054
 5205TIP3   OH215550   2.039   6.874   3.141
 5205TIP3    H115551   2.043   6.777   3.156
 5205TIP3    H215552   2.024   6.908   3.231
 5206TIP3   OH215553   1.007   6.813   3.328
 5206TIP3    H115554   1.014   6.721   3.296
 5206TIP3    H215555   1.044   6.804   3.419
 5207TIP3   OH215556   1.519   6.484   3.179
 5207TIP3    H115557   1.585   6.412   3.171
 5207TIP3    H215558   1.480   6.481   3.089
 5208TIP3   OH215559   1.587   6.699   3.335
 5208TIP3    H115560   1.564   6.629   3.271
 5208TIP3    H215561   1.509   6.759   3.328
 5209TIP3   OH215562   2.161   7.892   2.962
 5209TIP3    H115563   2.074   7.906   2.916
 5209TIP3    H215564   2.207   7.972   2.927
 5210TIP3   OH215565   1.946   7.395   1.545
 5210TIP3    H115566   2.023   7.439   1.505
 5210TIP3    H215567   1.991   7.328   1.600
 5211TIP3   OH215568   2.084   7.240   1.727
 5211TIP3    H115569   2.017   7.202   1.788
 5211TIP3    H215570   2.147   7.283   1.788
 5212TIP3   OH215571   2.136   7.643   2.167
 5212TIP3    H115572   2.189   7.585   2.110
 5212TIP3    H215573   2.123   7.722   2.112
 5213TIP3   OH215574   1.829   6.837   1.360
 5213TIP3    H115575   1.899   6.899   1.331
 5213TIP3    H215576   1.845   6.761   1.303
 5214TIP3   OH215577   1.898   7.104   1.879
 5214TIP3    H115578   1.899   7.008   1.869
 5214TIP3    H215579   1.878   7.115   1.975
 5215TIP3   OH215580   0.523   7.190   2.622
 5215TIP3    H115581   0.522   7.152   2.532
 5215TIP3    H215582   0.620   7.188   2.640
 5216TIP3   OH215583   2.207   7.524   2.733
 5216TIP3    H115584   2.270   7.471   2.683
 5216TIP3    H215585   2.199   7.602   2.675
 5217TIP3   OH215586   1.852   6.545   1.291
 5217TIP3    H115587   1.917   6.536   1.363
 5217TIP3    H215588   1.770   6.512   1.331
 5218TIP3   OH215589   1.890   6.824   1.775
 5218TIP3    H115590   1.934   6.736   1.789
 5218TIP3    H215591   1.932   6.850   1.691
 5219TIP3   OH215592   2.063   6.982   2.277
 5219TIP3    H115593   2.138   7.030   2.237
 5219TIP3    H215594   2.020   7.050   2.332
 5220TIP3   OH215595   0.741   6.861   3.284
 5220TIP3    H115596   0.838   6.860   3.296
 5220TIP3    H215597   0.717   6.778   3.330
 5221TIP3   OH215598   2.579   6.737   3.051
 5221TIP3    H115599   2.639   6.671   3.010
 5221TIP3    H215600   2.549   6.788   2.972
 5222TIP3   OH215601   2.005   6.576   1.808
 5222TIP3    H115602   2.052   6.557   1.892
 5222TIP3    H215603   1.943   6.499   1.803
 5223TIP3   OH215604   0.705   6.559   2.629
 5223TIP3    H115605   0.768   6.484   2.637
 5223TIP3    H215606   0.767   6.633   2.621
 5224TIP3   OH215607   0.505   6.831   2.699
 5224TIP3    H115608   0.555   6.827   2.616
 5224TIP3    H215609   0.537   6.914   2.738
 5225TIP3   OH215610   2.448   6.861   2.853
 5225TIP3    H115611   2.377   6.916   2.890
 5225TIP3    H215612   2.399   6.798   2.796
 5226TIP3   OH215613   2.085   6.506   1.449
 5226TIP3    H115614   2.123   6.439   1.388
 5226TIP3    H215615   2.144   6.583   1.437
 5227TIP3   OH215616   0.483   6.376   2.210
 5227TIP3    H115617   0.397   6.339   2.235
 5227TIP3    H215618   0.470   6.386   2.114
 5228TIP3   OH215619   0.709   6.412   3.014
 5228TIP3    H115620   0.659   6.413   3.098
 5228TIP3    H215621   0.645   6.453   2.954
 5229TIP3   OH215622   2.337   6.629   2.735
 5229TIP3    H115623   2.248   6.605   2.703
 5229TIP3    H215624   2.381   6.541   2.727
 5230TIP3   OH215625   1.546   6.544   2.347
 5230TIP3    H115626   1.507   6.476   2.404
 5230TIP3    H215627   1.626   6.501   2.313
 5231TIP3   OH215628   2.071   6.437   2.264
 5231TIP3    H115629   2.106   6.486   2.186
 5231TIP3    H215630   1.975   6.454   2.256
 5232TIP3   OH215631   2.169   6.527   2.025
 5232TIP3    H115632   2.242   6.475   1.985
 5232TIP3    H215633   2.203   6.618   2.009
 5233TIP3   OH215634   0.800   6.258   2.371
 5233TIP3    H115635   0.708   6.224   2.371
 5233TIP3    H215636   0.850   6.173   2.365
 5234TIP3   OH215637   0.622   6.122   2.034
 5234TIP3    H115638   0.641   6.176   1.955
 5234TIP3    H215639   0.547   6.171   2.072
 5235TIP3   OH215640   1.246   6.289   2.254
 5235TIP3    H115641   1.300   6.338   2.190
 5235TIP3    H215642   1.273   6.330   2.337
 5236TIP3   OH215643   1.789   6.437   2.236
 5236TIP3    H115644   1.786   6.400   2.147
 5236TIP3    H215645   1.778   6.357   2.292
 5237TIP3   OH215646   1.821   6.364   1.800
 5237TIP3    H115647   1.736   6.408   1.816
 5237TIP3    H215648   1.805   6.277   1.843
 5238TIP3   OH215649   0.704   6.290   1.816
 5238TIP3    H115650   0.739   6.232   1.746
 5238TIP3    H215651   0.786   6.339   1.841
 5239TIP3   OH215652   1.220   6.465   1.878
 5239TIP3    H115653   1.279   6.418   1.940
 5239TIP3    H215654   1.240   6.558   1.906
 5240TIP3   OH215655   1.008   6.537   3.260
 5240TIP3    H115656   0.972   6.467   3.319
 5240TIP3    H215657   1.102   6.538   3.289
 5241TIP3   OH215658   1.257   6.535   3.381
 5241TIP3    H115659   1.342   6.511   3.341
 5241TIP3    H215660   1.245   6.464   3.447
 5242TIP3   OH215661   2.084   6.599   3.169
 5242TIP3    H115662   2.102   6.569   3.261
 5242TIP3    H215663   2.173   6.594   3.129
 5243TIP3   OH215664   3.290   7.507   1.434
 5243TIP3    H115665   3.254   7.594   1.405
 5243TIP3    H215666   3.219   7.450   1.398
 5244TIP3   OH215667   3.293   7.524   1.810
 5244TIP3    H115668   3.324   7.495   1.898
 5244TIP3    H215669   3.250   7.443   1.777
 5245TIP3   OH215670   2.586   7.422   2.190
 5245TIP3    H115671   2.623   7.352   2.246
 5245TIP3    H215672   2.666   7.464   2.154
 5246TIP3   OH215673   3.507   7.822   1.499
 5246TIP3    H115674   3.505   7.750   1.566
 5246TIP3    H215675   3.557   7.890   1.546
 5247TIP3   OH215676   2.616   7.765   1.983
 5247TIP3    H115677   2.585   7.679   1.947
 5247TIP3    H215678   2.698   7.779   1.929
 5248TIP3   OH215679   2.269   7.033   1.684
 5248TIP3    H115680   2.223   7.119   1.684
 5248TIP3    H215681   2.194   6.975   1.667
 5249TIP3   OH215682   2.315   7.318   1.865
 5249TIP3    H115683   2.366   7.239   1.892
 5249TIP3    H215684   2.379   7.364   1.807
 5250TIP3   OH215685   3.103   7.737   1.855
 5250TIP3    H115686   3.151   7.662   1.817
 5250TIP3    H215687   3.180   7.792   1.881
 5251TIP3   OH215688   4.102   7.068   1.855
 5251TIP3    H115689   4.130   7.152   1.896
 5251TIP3    H215690   4.124   7.083   1.762
 5252TIP3   OH215691   3.498   7.249   1.887
 5252TIP3    H115692   3.541   7.163   1.907
 5252TIP3    H215693   3.465   7.232   1.796
 5253TIP3   OH215694   2.840   6.909   1.852
 5253TIP3    H115695   2.819   6.981   1.789
 5253TIP3    H215696   2.791   6.835   1.809
 5254TIP3   OH215697   3.532   7.002   1.474
 5254TIP3    H115698   3.605   6.988   1.539
 5254TIP3    H215699   3.584   7.036   1.398
 5255TIP3   OH215700   2.465   7.107   1.968
 5255TIP3    H115701   2.551   7.089   2.010
 5255TIP3    H215702   2.477   7.055   1.885
 5256TIP3   OH215703   2.907   7.308   1.763
 5256TIP3    H115704   3.002   7.284   1.771
 5256TIP3    H215705   2.869   7.225   1.727
 5257TIP3   OH215706   4.175   7.278   2.024
 5257TIP3    H115707   4.090   7.323   2.006
 5257TIP3    H215708   4.190   7.305   2.116
 5258TIP3   OH215709   2.835   6.892   2.286
 5258TIP3    H115710   2.775   6.928   2.218
 5258TIP3    H215711   2.782   6.909   2.367
 5259TIP3   OH215712   3.174   7.710   1.292
 5259TIP3    H115713   3.127   7.704   1.208
 5259TIP3    H215714   3.190   7.805   1.302
 5260TIP3   OH215715   2.936   7.673   2.080
 5260TIP3    H115716   2.871   7.740   2.109
 5260TIP3    H215717   2.973   7.716   2.000
 5261TIP3   OH215718   3.737   7.007   1.652
 5261TIP3    H115719   3.726   6.959   1.735
 5261TIP3    H215720   3.790   7.084   1.679
 5262TIP3   OH215721   2.705   7.006   2.071
 5262TIP3    H115722   2.766   7.080   2.093
 5262TIP3    H215723   2.753   6.966   1.995
 5263TIP3   OH215724   2.766   7.886   2.190
 5263TIP3    H115725   2.721   7.881   2.103
 5263TIP3    H215726   2.686   7.885   2.248
 5264TIP3   OH215727   2.162   7.515   1.424
 5264TIP3    H115728   2.118   7.511   1.338
 5264TIP3    H215729   2.174   7.612   1.431
 5265TIP3   OH215730   3.894   6.968   2.021
 5265TIP3    H115731   3.806   6.994   1.989
 5265TIP3    H215732   3.953   7.000   1.950
 5266TIP3   OH215733   3.186   6.609   2.004
 5266TIP3    H115734   3.171   6.514   2.021
 5266TIP3    H215735   3.109   6.647   2.050
 5267TIP3   OH215736   3.537   7.839   1.216
 5267TIP3    H115737   3.502   7.759   1.171
 5267TIP3    H215738   3.541   7.810   1.310
 5268TIP3   OH215739   3.820   7.977   2.003
 5268TIP3    H115740   3.807   7.899   1.946
 5268TIP3    H215741   3.843   8.047   1.937
 5269TIP3   OH215742   3.123   7.369   1.263
 5269TIP3    H115743   3.040   7.420   1.248
 5269TIP3    H215744   3.161   7.368   1.174
 5270TIP3   OH215745   3.079   7.153   0.976
 5270TIP3    H115746   3.145   7.211   1.019
 5270TIP3    H215747   3.138   7.092   0.928
 5271TIP3   OH215748   4.025   7.621   1.848
 5271TIP3    H115749   3.939   7.670   1.854
 5271TIP3    H215750   4.052   7.645   1.757
 5272TIP3   OH215751   3.467   7.448   1.235
 5272TIP3    H115752   3.411   7.470   1.313
 5272TIP3    H215753   3.551   7.422   1.279
 5273TIP3   OH215754   3.700   7.494   2.146
 5273TIP3    H115755   3.699   7.578   2.195
 5273TIP3    H215756   3.614   7.498   2.101
 5274TIP3   OH215757   2.703   7.452   1.640
 5274TIP3    H115758   2.660   7.391   1.575
 5274TIP3    H215759   2.778   7.399   1.672
 5275TIP3   OH215760   2.837   7.818   1.843
 5275TIP3    H115761   2.797   7.818   1.753
 5275TIP3    H215762   2.933   7.816   1.824
 5276TIP3   OH215763   2.823   7.431   2.002
 5276TIP3    H115764   2.859   7.404   1.915
 5276TIP3    H215765   2.870   7.516   2.018
 5277TIP3   OH215766   3.016   7.888   2.322
 5277TIP3    H115767   2.980   7.977   2.344
 5277TIP3    H215768   2.941   7.855   2.269
 5278TIP3   OH215769   3.304   7.313   1.053
 5278TIP3    H115770   3.363   7.373   1.102
 5278TIP3    H215771   3.330   7.331   0.959
 5279TIP3   OH215772   2.733   7.537   2.438
 5279TIP3    H115773   2.739   7.626   2.478
 5279TIP3    H215774   2.638   7.531   2.420
 5280TIP3   OH215775   3.824   6.554   1.108
 5280TIP3    H115776   3.741   6.578   1.155
 5280TIP3    H215777   3.837   6.635   1.053
 5281TIP3   OH215778   2.570   7.290   1.459
 5281TIP3    H115779   2.512   7.347   1.403
 5281TIP3    H215780   2.517   7.209   1.462
 5282TIP3   OH215781   2.357   7.694   2.358
 5282TIP3    H115782   2.283   7.679   2.295
 5282TIP3    H215783   2.380   7.603   2.385
 5283TIP3   OH215784   3.954   7.456   2.322
 5283TIP3    H115785   3.870   7.467   2.274
 5283TIP3    H215786   3.970   7.360   2.313
 5284TIP3   OH215787   2.552   7.889   2.367
 5284TIP3    H115788   2.607   7.844   2.435
 5284TIP3    H215789   2.480   7.824   2.353
 5285TIP3   OH215790   2.949   6.685   2.134
 5285TIP3    H115791   2.860   6.656   2.104
 5285TIP3    H215792   2.923   6.767   2.181
 5286TIP3   OH215793   3.485   6.802   2.327
 5286TIP3    H115794   3.554   6.774   2.391
 5286TIP3    H215795   3.402   6.782   2.376
 5287TIP3   OH215796   3.720   7.231   2.245
 5287TIP3    H115797   3.670   7.229   2.330
 5287TIP3    H215798   3.697   7.319   2.209
 5288TIP3   OH215799   3.386   7.343   0.795
 5288TIP3    H115800   3.337   7.358   0.713
 5288TIP3    H215801   3.466   7.395   0.775
 5289TIP3   OH215802   3.095   6.732   1.105
 5289TIP3    H115803   3.059   6.731   1.195
 5289TIP3    H215804   3.054   6.652   1.069
 5290TIP3   OH215805   2.879   7.206   2.147
 5290TIP3    H115806   2.835   7.228   2.232
 5290TIP3    H215807   2.862   7.287   2.095
 5291TIP3   OH215808   2.767   7.090   1.665
 5291TIP3    H115809   2.673   7.067   1.682
 5291TIP3    H215810   2.778   7.051   1.576
 5292TIP3   OH215811   3.257   7.173   1.396
 5292TIP3    H115812   3.205   7.242   1.350
 5292TIP3    H215813   3.313   7.139   1.323
 5293TIP3   OH215814   3.434   7.447   2.475
 5293TIP3    H115815   3.411   7.376   2.538
 5293TIP3    H215816   3.527   7.463   2.499
 5294TIP3   OH215817   3.412   7.202   1.630
 5294TIP3    H115818   3.349   7.229   1.559
 5294TIP3    H215819   3.447   7.122   1.586
 5295TIP3   OH215820   2.703   7.233   2.367
 5295TIP3    H115821   2.756   7.291   2.424
 5295TIP3    H215822   2.699   7.150   2.419
 5296TIP3   OH215823   2.754   6.711   1.070
 5296TIP3    H115824   2.738   6.710   1.167
 5296TIP3    H215825   2.676   6.764   1.040
 5297TIP3   OH215826   2.294   6.751   1.942
 5297TIP3    H115827   2.372   6.784   1.991
 5297TIP3    H215828   2.331   6.723   1.857
 5298TIP3   OH215829   2.247   6.755   1.457
 5298TIP3    H115830   2.312   6.762   1.385
 5298TIP3    H215831   2.194   6.835   1.437
 5299TIP3   OH215832   3.424   7.447   2.053
 5299TIP3    H115833   3.457   7.376   1.993
 5299TIP3    H215834   3.393   7.393   2.129
 5300TIP3   OH215835   3.098   6.910   1.725
 5300TIP3    H115836   3.016   6.909   1.779
 5300TIP3    H215837   3.167   6.905   1.794
 5301TIP3   OH215838   2.528   6.969   1.737
 5301TIP3    H115839   2.435   6.979   1.705
 5301TIP3    H215840   2.551   6.879   1.709
 5302TIP3   OH215841   2.792   6.962   1.424
 5302TIP3    H115842   2.885   6.979   1.399
 5302TIP3    H215843   2.743   6.986   1.342
 5303TIP3   OH215844   3.585   6.987   1.931
 5303TIP3    H115845   3.550   7.000   2.022
 5303TIP3    H215846   3.518   6.927   1.895
 5304TIP3   OH215847   2.640   6.995   1.202
 5304TIP3    H115848   2.571   6.946   1.153
 5304TIP3    H215849   2.692   7.032   1.127
 5305TIP3   OH215850   2.716   7.781   2.569
 5305TIP3    H115851   2.795   7.811   2.619
 5305TIP3    H215852   2.651   7.775   2.641
 5306TIP3   OH215853   3.175   7.242   1.823
 5306TIP3    H115854   3.246   7.202   1.771
 5306TIP3    H215855   3.183   7.195   1.908
 5307TIP3   OH215856   2.696   6.726   1.705
 5307TIP3    H115857   2.660   6.647   1.752
 5307TIP3    H215858   2.736   6.686   1.627
 5308TIP3   OH215859   3.150   7.138   2.114
 5308TIP3    H115860   3.060   7.175   2.127
 5308TIP3    H215861   3.207   7.200   2.164
 5309TIP3   OH215862   2.892   7.512   1.219
 5309TIP3    H115863   2.815   7.453   1.203
 5309TIP3    H215864   2.865   7.557   1.302
 5310TIP3   OH215865   3.787   7.758   1.839
 5310TIP3    H115866   3.815   7.807   1.759
 5310TIP3    H215867   3.702   7.718   1.809
 5311TIP3   OH215868   3.345   6.838   1.080
 5311TIP3    H115869   3.248   6.819   1.086
 5311TIP3    H215870   3.351   6.933   1.101
 5312TIP3   OH215871   3.298   7.869   2.205
 5312TIP3    H115872   3.330   7.820   2.282
 5312TIP3    H215873   3.212   7.901   2.237
 5313TIP3   OH215874   3.413   7.089   1.179
 5313TIP3    H115875   3.510   7.095   1.189
 5313TIP3    H215876   3.392   7.167   1.123
 5314TIP3   OH215877   2.569   7.512   1.873
 5314TIP3    H115878   2.611   7.503   1.785
 5314TIP3    H215879   2.632   7.464   1.929
 5315TIP3   OH215880   3.003   7.697   1.054
 5315TIP3    H115881   2.960   7.769   1.106
 5315TIP3    H215882   2.965   7.619   1.100
 5316TIP3   OH215883   2.449   7.481   2.513
 5316TIP3    H115884   2.503   7.446   2.586
 5316TIP3    H215885   2.401   7.404   2.477
 5317TIP3   OH215886   3.195   7.574   2.521
 5317TIP3    H115887   3.136   7.530   2.458
 5317TIP3    H215888   3.282   7.540   2.492
 5318TIP3   OH215889   3.856   7.183   1.008
 5318TIP3    H115890   3.792   7.137   0.948
 5318TIP3    H215891   3.850   7.271   0.966
 5319TIP3   OH215892   4.076   8.019   2.092
 5319TIP3    H115893   3.978   8.029   2.082
 5319TIP3    H215894   4.101   8.004   1.998
 5320TIP3   OH215895   3.552   7.631   1.740
 5320TIP3    H115896   3.460   7.604   1.762
 5320TIP3    H215897   3.586   7.547   1.703
 5321TIP3   OH215898   2.815   7.633   1.457
 5321TIP3    H115899   2.768   7.711   1.491
 5321TIP3    H215900   2.788   7.568   1.525
 5322TIP3   OH215901   3.345   7.833   1.934
 5322TIP3    H115902   3.332   7.844   2.031
 5322TIP3    H215903   3.427   7.782   1.929
 5323TIP3   OH215904   3.351   7.663   0.789
 5323TIP3    H115905   3.379   7.652   0.882
 5323TIP3    H215906   3.267   7.713   0.800
 5324TIP3   OH215907   2.689   6.965   2.512
 5324TIP3    H115908   2.599   6.932   2.526
 5324TIP3    H215909   2.736   6.920   2.585
 5325TIP3   OH215910   3.472   7.635   1.039
 5325TIP3    H115911   3.467   7.563   1.105
 5325TIP3    H215912   3.568   7.635   1.018
 5326TIP3   OH215913   2.648   7.653   0.875
 5326TIP3    H115914   2.690   7.574   0.834
 5326TIP3    H215915   2.703   7.665   0.953
 5327TIP3   OH215916   2.396   7.427   1.306
 5327TIP3    H115917   2.313   7.440   1.357
 5327TIP3    H215918   2.383   7.490   1.233
 5328TIP3   OH215919   3.509   7.042   2.190
 5328TIP3    H115920   3.592   7.079   2.226
 5328TIP3    H215921   3.498   6.960   2.243
 5329TIP3   OH215922   3.392   6.787   1.356
 5329TIP3    H115923   3.377   6.808   1.262
 5329TIP3    H215924   3.431   6.870   1.390
 5330TIP3   OH215925   3.078   6.971   1.455
 5330TIP3    H115926   3.142   7.043   1.437
 5330TIP3    H215927   3.084   6.964   1.553
 5331TIP3   OH215928   3.347   7.286   2.260
 5331TIP3    H115929   3.375   7.337   2.338
 5331TIP3    H215930   3.401   7.205   2.267
 5332TIP3   OH215931   3.220   6.692   1.555
 5332TIP3    H115932   3.208   6.771   1.611
 5332TIP3    H215933   3.283   6.726   1.487
 5333TIP3   OH215934   2.733   6.697   1.348
 5333TIP3    H115935   2.731   6.788   1.382
 5333TIP3    H215936   2.830   6.680   1.353
 5334TIP3   OH215937   3.986   7.189   2.242
 5334TIP3    H115938   3.888   7.188   2.250
 5334TIP3    H215939   3.996   7.142   2.158
 5335TIP3   OH215940   3.638   7.383   1.633
 5335TIP3    H115941   3.562   7.323   1.643
 5335TIP3    H215942   3.709   7.334   1.681
 5336TIP3   OH215943   2.350   7.616   1.098
 5336TIP3    H115944   2.389   7.705   1.087
 5336TIP3    H215945   2.407   7.562   1.039
 5337TIP3   OH215946   2.344   6.855   1.217
 5337TIP3    H115947   2.335   6.947   1.248
 5337TIP3    H215948   2.250   6.842   1.195
 5338TIP3   OH215949   2.682   6.608   2.105
 5338TIP3    H115950   2.653   6.575   2.017
 5338TIP3    H215951   2.672   6.529   2.161
 5339TIP3   OH215952   2.509   7.748   2.744
 5339TIP3    H115953   2.524   7.651   2.750
 5339TIP3    H215954   2.422   7.752   2.700
 5340TIP3   OH215955   2.484   7.417   0.960
 5340TIP3    H115956   2.539   7.381   1.033
 5340TIP3    H215957   2.551   7.424   0.890
 5341TIP3   OH215958   3.134   7.838   2.562
 5341TIP3    H115959   3.099   7.852   2.471
 5341TIP3    H215960   3.170   7.747   2.553
 5342TIP3   OH215961   2.922   7.610   0.783
 5342TIP3    H115962   2.969   7.617   0.867
 5342TIP3    H215963   2.954   7.522   0.753
 5343TIP3   OH215964   3.608   7.861   2.139
 5343TIP3    H115965   3.675   7.919   2.096
 5343TIP3    H215966   3.530   7.917   2.135
 5344TIP3   OH215967   2.612   7.476   2.750
 5344TIP3    H115968   2.699   7.448   2.717
 5344TIP3    H215969   2.639   7.520   2.834
 5345TIP3   OH215970   2.691   7.327   1.171
 5345TIP3    H115971   2.656   7.283   1.251
 5345TIP3    H215972   2.730   7.252   1.121
 5346TIP3   OH215973   2.955   7.382   2.395
 5346TIP3    H115974   2.886   7.451   2.406
 5346TIP3    H215975   3.010   7.423   2.324
 5347TIP3   OH215976   2.800   7.123   1.018
 5347TIP3    H115977   2.773   7.125   0.923
 5347TIP3    H215978   2.897   7.127   1.009
 5348TIP3   OH215979   3.485   7.784   2.534
 5348TIP3    H115980   3.568   7.762   2.488
 5348TIP3    H215981   3.485   7.722   2.608
 5349TIP3   OH215982   3.617   7.447   0.665
 5349TIP3    H115983   3.645   7.393   0.588
 5349TIP3    H215984   3.588   7.530   0.621
 5350TIP3   OH215985   3.089   7.184   2.527
 5350TIP3    H115986   3.091   7.104   2.471
 5350TIP3    H215987   3.044   7.249   2.469
 5351TIP3   OH215988   3.092   6.970   2.338
 5351TIP3    H115989   3.121   7.011   2.254
 5351TIP3    H215990   2.999   6.946   2.317
 5352TIP3   OH215991   3.110   7.511   2.217
 5352TIP3    H115992   3.193   7.513   2.167
 5352TIP3    H215993   3.055   7.576   2.168
 5353TIP3   OH215994   3.698   7.471   2.588
 5353TIP3    H115995   3.747   7.387   2.597
 5353TIP3    H215996   3.767   7.531   2.555
 5354TIP3   OH215997   3.740   7.721   2.327
 5354TIP3    H115998   3.683   7.775   2.267
 5354TIP3    H215999   3.828   7.741   2.288
 5355TIP3   OH216000   2.966   7.294   2.759
 5355TIP3    H116001   2.900   7.222   2.775
 5355TIP3    H216002   3.001   7.268   2.672
 5356TIP3   OH216003   3.223   6.732   2.408
 5356TIP3    H116004   3.175   6.814   2.383
 5356TIP3    H216005   3.154   6.664   2.394
 5357TIP3   OH216006   3.349   7.234   2.621
 5357TIP3    H116007   3.335   7.220   2.716
 5357TIP3    H216008   3.259   7.211   2.588
 5358TIP3   OH216009   3.588   7.186   2.476
 5358TIP3    H116010   3.513   7.186   2.538
 5358TIP3    H216011   3.662   7.156   2.533
 5359TIP3   OH216012   3.816   7.127   2.626
 5359TIP3    H116013   3.830   7.031   2.642
 5359TIP3    H216014   3.812   7.163   2.717
 5360TIP3   OH216015   2.812   7.075   2.817
 5360TIP3    H116016   2.798   6.984   2.785
 5360TIP3    H216017   2.839   7.059   2.909
 5361TIP3   OH216018   3.313   6.740   2.667
 5361TIP3    H116019   3.382   6.670   2.659
 5361TIP3    H216020   3.275   6.737   2.576
 5362TIP3   OH216021   3.382   6.956   2.823
 5362TIP3    H116022   3.360   6.884   2.758
 5362TIP3    H216023   3.304   7.014   2.815
 5363TIP3   OH216024   2.082   7.538   1.114
 5363TIP3    H116025   2.175   7.568   1.101
 5363TIP3    H216026   2.085   7.447   1.077
 5364TIP3   OH216027   3.968   8.148   2.368
 5364TIP3    H116028   3.892   8.129   2.428
 5364TIP3    H216029   4.009   8.223   2.412
 5365TIP3   OH216030   3.746   7.630   1.020
 5365TIP3    H116031   3.818   7.690   0.991
 5365TIP3    H216032   3.789   7.588   1.097
 5366TIP3   OH216033   3.881   7.504   1.218
 5366TIP3    H116034   3.817   7.460   1.279
 5366TIP3    H216035   3.948   7.539   1.280
 5367TIP3   OH216036   3.924   7.895   1.648
 5367TIP3    H116037   3.987   7.837   1.601
 5367TIP3    H216038   3.924   7.975   1.594
 5368TIP3   OH216039   3.813   7.416   0.858
 5368TIP3    H116040   3.743   7.415   0.789
 5368TIP3    H216041   3.781   7.491   0.913
 5369TIP3   OH216042   3.687   7.090   0.821
 5369TIP3    H116043   3.673   7.128   0.732
 5369TIP3    H216044   3.661   6.996   0.806
 5370TIP3   OH216045   3.696   7.362   1.364
 5370TIP3    H116046   3.703   7.265   1.354
 5370TIP3    H216047   3.681   7.373   1.460
 5371TIP3   OH216048   2.319   7.418   2.125
 5371TIP3    H116049   2.314   7.394   2.030
 5371TIP3    H216050   2.416   7.434   2.134
 5372TIP3   OH216051   3.983   7.786   2.222
 5372TIP3    H116052   4.056   7.721   2.210
 5372TIP3    H216053   4.008   7.857   2.161
 5373TIP3   OH216054   4.170   7.591   2.228
 5373TIP3    H116055   4.094   7.543   2.268
 5373TIP3    H216056   4.242   7.527   2.247
 5374TIP3   OH216057   3.633   6.823   0.802
 5374TIP3    H116058   3.707   6.788   0.856
 5374TIP3    H216059   3.559   6.763   0.821
 5375TIP3   OH216060   3.694   7.084   1.255
 5375TIP3    H116061   3.734   6.995   1.270
 5375TIP3    H216062   3.749   7.114   1.181
 5376TIP3   OH216063   3.851   7.251   1.752
 5376TIP3    H116064   3.937   7.276   1.710
 5376TIP3    H216065   3.866   7.289   1.841
 5377TIP3   OH216066   3.924   7.399   1.982
 5377TIP3    H116067   3.847   7.432   2.032
 5377TIP3    H216068   3.956   7.480   1.938
 5378TIP3   OH216069   4.371   6.990   2.537
 5378TIP3    H116070   4.432   6.926   2.495
 5378TIP3    H216071   4.343   7.044   2.460
 5379TIP3   OH216072   3.799   6.833   1.295
 5379TIP3    H116073   3.847   6.814   1.379
 5379TIP3    H216074   3.738   6.756   1.291
 5380TIP3   OH216075   2.499   6.816   2.124
 5380TIP3    H116076   2.562   6.740   2.125
 5380TIP3    H216077   2.561   6.890   2.108
 5381TIP3   OH216078   2.306   7.094   2.204
 5381TIP3    H116079   2.351   7.071   2.120
 5381TIP3    H216080   2.323   7.189   2.206
 5382TIP3   OH216081   4.242   7.127   2.340
 5382TIP3    H116082   4.156   7.169   2.361
 5382TIP3    H216083   4.211   7.053   2.284
 5383TIP3   OH216084   3.881   6.761   0.931
 5383TIP3    H116085   3.920   6.693   0.872
 5383TIP3    H216086   3.945   6.834   0.923
 5384TIP3   OH216087   2.285   6.603   1.682
 5384TIP3    H116088   2.193   6.588   1.710
 5384TIP3    H216089   2.273   6.664   1.606
 5385TIP3   OH216090   2.509   6.685   2.508
 5385TIP3    H116091   2.453   6.668   2.586
 5385TIP3    H216092   2.443   6.726   2.447
 5386TIP3   OH216093   4.143   6.890   2.223
 5386TIP3    H116094   4.052   6.879   2.189
 5386TIP3    H216095   4.177   6.798   2.213
 5387TIP3   OH216096   3.350   6.807   1.847
 5387TIP3    H116097   3.307   6.734   1.895
 5387TIP3    H216098   3.421   6.761   1.799
 5388TIP3   OH216099   3.867   6.691   1.750
 5388TIP3    H116100   3.904   6.740   1.672
 5388TIP3    H216101   3.772   6.707   1.740
 5389TIP3   OH216102   3.964   6.784   1.512
 5389TIP3    H116103   4.037   6.733   1.473
 5389TIP3    H216104   3.998   6.876   1.497
 5390TIP3   OH216105   2.596   6.513   1.859
 5390TIP3    H116106   2.503   6.480   1.860
 5390TIP3    H216107   2.644   6.428   1.854
 5391TIP3   OH216108   2.391   6.385   1.510
 5391TIP3    H116109   2.419   6.439   1.433
 5391TIP3    H216110   2.359   6.454   1.572
 5392TIP3   OH216111   3.044   6.545   1.740
 5392TIP3    H116112   3.099   6.592   1.675
 5392TIP3    H216113   3.072   6.585   1.823
 5393TIP3   OH216114   3.584   6.694   1.723
 5393TIP3    H116115   3.585   6.654   1.635
 5393TIP3    H216116   3.573   6.615   1.780
 5394TIP3   OH216117   3.617   6.620   1.286
 5394TIP3    H116118   3.531   6.663   1.302
 5394TIP3    H216119   3.602   6.533   1.331
 5395TIP3   OH216120   2.501   6.538   1.278
 5395TIP3    H116121   2.547   6.479   1.215
 5395TIP3    H216122   2.575   6.596   1.307
 5396TIP3   OH216123   3.010   6.721   1.368
 5396TIP3    H116124   3.071   6.675   1.428
 5396TIP3    H216125   3.031   6.814   1.393
 5397TIP3   OH216126   2.805   6.798   2.742
 5397TIP3    H116127   2.767   6.731   2.802
 5397TIP3    H216128   2.898   6.800   2.773
 5398TIP3   OH216129   3.052   6.792   2.868
 5398TIP3    H116130   3.138   6.771   2.826
 5398TIP3    H216131   3.043   6.718   2.932
 5399TIP3   OH216132   3.880   6.857   2.656
 5399TIP3    H116133   3.899   6.826   2.747
 5399TIP3    H216134   3.969   6.852   2.615
 5400TIP3   OH216135   5.079   7.779   0.918
 5400TIP3    H116136   5.050   7.867   0.888
 5400TIP3    H216137   5.013   7.722   0.875
 5401TIP3   OH216138   5.086   7.782   1.300
 5401TIP3    H116139   5.120   7.750   1.386
 5401TIP3    H216140   5.045   7.701   1.264
 5402TIP3   OH216141   4.379   7.671   1.662
 5402TIP3    H116142   4.410   7.603   1.725
 5402TIP3    H216143   4.457   7.728   1.657
 5403TIP3   OH216144   5.304   8.082   0.987
 5403TIP3    H116145   5.307   7.996   1.034
 5403TIP3    H216146   5.360   8.137   1.043
 5404TIP3   OH216147   4.413   8.030   1.464
 5404TIP3    H116148   4.384   7.940   1.434
 5404TIP3    H216149   4.496   8.040   1.412
 5405TIP3   OH216150   4.060   7.285   1.166
 5405TIP3    H116151   4.011   7.368   1.183
 5405TIP3    H216152   3.991   7.233   1.122
 5406TIP3   OH216153   4.114   7.573   1.349
 5406TIP3    H116154   4.164   7.494   1.381
 5406TIP3    H216155   4.181   7.617   1.294
 5407TIP3   OH216156   4.900   7.997   1.337
 5407TIP3    H116157   4.948   7.918   1.306
 5407TIP3    H216158   4.978   8.052   1.362
 5408TIP3   OH216159   5.898   7.325   1.344
 5408TIP3    H116160   5.927   7.410   1.383
 5408TIP3    H216161   5.913   7.342   1.250
 5409TIP3   OH216162   5.294   7.505   1.375
 5409TIP3    H116163   5.337   7.419   1.394
 5409TIP3    H216164   5.264   7.490   1.283
 5410TIP3   OH216165   4.637   7.166   1.339
 5410TIP3    H116166   4.614   7.238   1.276
 5410TIP3    H216167   4.589   7.091   1.296
 5411TIP3   OH216168   5.326   7.261   0.962
 5411TIP3    H116169   5.398   7.241   1.026
 5411TIP3    H216170   5.380   7.293   0.887
 5412TIP3   OH216171   4.266   7.367   1.449
 5412TIP3    H116172   4.349   7.346   1.496
 5412TIP3    H216173   4.278   7.312   1.368
 5413TIP3   OH216174   4.705   7.566   1.245
 5413TIP3    H116175   4.799   7.540   1.257
 5413TIP3    H216176   4.665   7.481   1.213
 5414TIP3   OH216177   5.973   7.538   1.509
 5414TIP3    H116178   5.886   7.580   1.491
 5414TIP3    H216179   5.978   7.552   1.605
 5415TIP3   OH216180   4.629   7.150   1.776
 5415TIP3    H116181   4.570   7.185   1.707
 5415TIP3    H216182   4.576   7.167   1.856
 5416TIP3   OH216183   4.961   7.976   0.727
 5416TIP3    H116184   4.884   7.916   0.721
 5416TIP3    H216185   4.917   8.052   0.772
 5417TIP3   OH216186   4.733   7.932   1.567
 5417TIP3    H116187   4.665   7.994   1.598
 5417TIP3    H216188   4.765   7.978   1.486
 5418TIP3   OH216189   5.531   7.261   1.143
 5418TIP3    H116190   5.519   7.215   1.226
 5418TIP3    H216191   5.584   7.339   1.168
 5419TIP3   OH216192   4.502   7.264   1.558
 5419TIP3    H116193   4.564   7.337   1.580
 5419TIP3    H216194   4.551   7.223   1.483
 5420TIP3   OH216195   4.561   8.140   1.677
 5420TIP3    H116196   4.514   8.133   1.591
 5420TIP3    H216197   4.482   8.138   1.737
 5421TIP3   OH216198   3.956   7.776   0.914
 5421TIP3    H116199   3.912   7.789   0.829
 5421TIP3    H216200   3.969   7.869   0.938
 5422TIP3   OH216201   5.689   7.226   1.510
 5422TIP3    H116202   5.601   7.249   1.477
 5422TIP3    H216203   5.747   7.257   1.437
 5423TIP3   OH216204   4.983   6.865   1.494
 5423TIP3    H116205   4.966   6.770   1.510
 5423TIP3    H216206   4.905   6.905   1.539
 5424TIP3   OH216207   5.616   8.235   1.488
 5424TIP3    H116208   5.604   8.154   1.435
 5424TIP3    H216209   5.641   8.301   1.420
 5425TIP3   OH216210   4.924   7.633   0.736
 5425TIP3    H116211   4.838   7.681   0.733
 5425TIP3    H216212   4.940   7.621   0.641
 5426TIP3   OH216213   5.816   7.875   1.332
 5426TIP3    H116214   5.731   7.925   1.340
 5426TIP3    H216215   5.841   7.899   1.240
 5427TIP3   OH216216   5.261   7.720   0.719
 5427TIP3    H116217   5.207   7.739   0.799
 5427TIP3    H216218   5.344   7.687   0.761
 5428TIP3   OH216219   5.497   7.751   1.632
 5428TIP3    H116220   5.493   7.835   1.681
 5428TIP3    H216221   5.410   7.753   1.587
 5429TIP3   OH216222   4.497   7.708   1.128
 5429TIP3    H116223   4.457   7.648   1.061
 5429TIP3    H216224   4.574   7.655   1.159
 5430TIP3   OH216225   4.636   8.077   1.327
 5430TIP3    H116226   4.594   8.072   1.238
 5430TIP3    H216227   4.731   8.067   1.306
 5431TIP3   OH216228   4.627   7.685   1.487
 5431TIP3    H116229   4.661   7.659   1.398
 5431TIP3    H216230   4.672   7.771   1.502
 5432TIP3   OH216231   4.818   8.148   1.802
 5432TIP3    H116232   4.774   8.233   1.827
 5432TIP3    H216233   4.744   8.108   1.753
 5433TIP3   OH216234   4.524   7.793   1.914
 5433TIP3    H116235   4.529   7.881   1.958
 5433TIP3    H216236   4.430   7.771   1.929
 5434TIP3   OH216237   4.364   7.550   0.938
 5434TIP3    H116238   4.294   7.591   0.884
 5434TIP3    H216239   4.329   7.461   0.950
 5435TIP3   OH216240   4.160   7.938   1.845
 5435TIP3    H116241   4.087   7.920   1.782
 5435TIP3    H216242   4.191   7.849   1.869
 5436TIP3   OH216243   5.752   7.714   1.807
 5436TIP3    H116244   5.666   7.724   1.762
 5436TIP3    H216245   5.767   7.618   1.799
 5437TIP3   OH216246   4.347   8.143   1.852
 5437TIP3    H116247   4.401   8.101   1.922
 5437TIP3    H216248   4.276   8.075   1.841
 5438TIP3   OH216249   4.745   6.944   1.621
 5438TIP3    H116250   4.657   6.913   1.592
 5438TIP3    H216251   4.717   7.025   1.670
 5439TIP3   OH216252   5.280   7.058   1.815
 5439TIP3    H116253   5.348   7.032   1.879
 5439TIP3    H216254   5.196   7.039   1.862
 5440TIP3   OH216255   5.519   7.490   1.736
 5440TIP3    H116256   5.467   7.486   1.819
 5440TIP3    H216257   5.492   7.576   1.698
 5441TIP3   OH216258   4.890   7.005   0.587
 5441TIP3    H116259   4.857   6.988   0.678
 5441TIP3    H216260   4.863   6.922   0.543
 5442TIP3   OH216261   4.678   7.463   1.636
 5442TIP3    H116262   4.626   7.480   1.718
 5442TIP3    H216263   4.659   7.544   1.585
 5443TIP3   OH216264   4.560   7.348   1.152
 5443TIP3    H116265   4.467   7.320   1.170
 5443TIP3    H216266   4.572   7.307   1.063
 5444TIP3   OH216267   5.048   7.438   0.884
 5444TIP3    H116268   4.996   7.506   0.837
 5444TIP3    H216269   5.118   7.420   0.819
 5445TIP3   OH216270   5.229   7.705   1.963
 5445TIP3    H116271   5.205   7.633   2.026
 5445TIP3    H216272   5.323   7.719   1.987
 5446TIP3   OH216273   5.211   7.460   1.116
 5446TIP3    H116274   5.146   7.485   1.047
 5446TIP3    H216275   5.249   7.381   1.072
 5447TIP3   OH216276   4.498   7.487   1.845
 5447TIP3    H116277   4.521   7.550   1.915
 5447TIP3    H216278   4.484   7.405   1.896
 5448TIP3   OH216279   4.529   6.936   0.577
 5448TIP3    H116280   4.524   6.949   0.673
 5448TIP3    H216281   4.489   7.018   0.543
 5449TIP3   OH216282   4.087   7.010   1.431
 5449TIP3    H116283   4.166   7.040   1.481
 5449TIP3    H216284   4.124   6.978   1.347
 5450TIP3   OH216285   4.056   6.992   0.945
 5450TIP3    H116286   4.102   7.026   0.866
 5450TIP3    H216287   3.995   7.066   0.963
 5451TIP3   OH216288   5.222   7.705   1.539
 5451TIP3    H116289   5.254   7.633   1.480
 5451TIP3    H216290   5.191   7.652   1.615
 5452TIP3   OH216291   4.895   7.168   1.213
 5452TIP3    H116292   4.812   7.166   1.266
 5452TIP3    H216293   4.963   7.161   1.282
 5453TIP3   OH216294   4.322   7.225   1.219
 5453TIP3    H116295   4.228   7.233   1.191
 5453TIP3    H216296   4.344   7.133   1.197
 5454TIP3   OH216297   4.589   7.223   0.911
 5454TIP3    H116298   4.684   7.233   0.890
 5454TIP3    H216299   4.544   7.253   0.829
 5455TIP3   OH216300   5.383   7.243   1.420
 5455TIP3    H116301   5.347   7.257   1.510
 5455TIP3    H216302   5.316   7.184   1.382
 5456TIP3   OH216303   4.417   7.275   0.697
 5456TIP3    H116304   4.339   7.226   0.667
 5456TIP3    H216305   4.483   7.250   0.627
 5457TIP3   OH216306   4.512   8.042   2.054
 5457TIP3    H116307   4.590   8.070   2.107
 5457TIP3    H216308   4.446   8.030   2.125
 5458TIP3   OH216309   4.971   7.500   1.311
 5458TIP3    H116310   5.042   7.456   1.261
 5458TIP3    H216311   4.975   7.454   1.397
 5459TIP3   OH216312   4.493   6.982   1.193
 5459TIP3    H116313   4.456   6.905   1.241
 5459TIP3    H216314   4.528   6.940   1.113
 5460TIP3   OH216315   4.946   7.398   1.596
 5460TIP3    H116316   4.855   7.431   1.613
 5460TIP3    H216317   5.002   7.458   1.649
 5461TIP3   OH216318   4.703   7.784   0.705
 5461TIP3    H116319   4.630   7.720   0.689
 5461TIP3    H216320   4.669   7.826   0.788
 5462TIP3   OH216321   5.581   8.014   1.327
 5462TIP3    H116322   5.609   8.061   1.246
 5462TIP3    H216323   5.496   7.972   1.299
 5463TIP3   OH216324   5.094   8.127   1.692
 5463TIP3    H116325   5.128   8.072   1.764
 5463TIP3    H216326   5.004   8.149   1.726
 5464TIP3   OH216327   4.366   7.775   1.362
 5464TIP3    H116328   4.412   7.758   1.277
 5464TIP3    H216329   4.416   7.719   1.423
 5465TIP3   OH216330   4.263   7.717   1.983
 5465TIP3    H116331   4.273   7.700   2.079
 5465TIP3    H216332   4.190   7.656   1.962
 5466TIP3   OH216333   4.988   7.833   2.008
 5466TIP3    H116334   4.924   7.779   1.959
 5466TIP3    H216335   5.073   7.797   1.975
 5467TIP3   OH216336   5.873   8.277   1.579
 5467TIP3    H116337   5.775   8.284   1.567
 5467TIP3    H216338   5.899   8.259   1.485
 5468TIP3   OH216339   5.349   7.887   1.233
 5468TIP3    H116340   5.257   7.860   1.250
 5468TIP3    H216341   5.385   7.803   1.195
 5469TIP3   OH216342   4.047   7.404   0.714
 5469TIP3    H116343   4.090   7.490   0.730
 5469TIP3    H216344   3.963   7.414   0.765
 5470TIP3   OH216345   4.616   7.880   0.944
 5470TIP3    H116346   4.581   7.965   0.973
 5470TIP3    H216347   4.582   7.823   1.016
 5471TIP3   OH216348   5.142   8.095   1.420
 5471TIP3    H116349   5.128   8.100   1.517
 5471TIP3    H216350   5.216   8.033   1.413
 5472TIP3   OH216351   4.466   7.232   1.988
 5472TIP3    H116352   4.369   7.235   2.000
 5472TIP3    H216353   4.493   7.175   2.062
 5473TIP3   OH216354   4.163   7.652   0.783
 5473TIP3    H116355   4.095   7.691   0.842
 5473TIP3    H216356   4.178   7.725   0.720
 5474TIP3   OH216357   5.306   7.298   1.678
 5474TIP3    H116358   5.388   7.333   1.717
 5474TIP3    H216359   5.292   7.216   1.730
 5475TIP3   OH216360   5.170   7.057   0.844
 5475TIP3    H116361   5.156   7.080   0.751
 5475TIP3    H216362   5.227   7.130   0.875
 5476TIP3   OH216363   4.870   7.230   0.944
 5476TIP3    H116364   4.936   7.300   0.925
 5476TIP3    H216365   4.878   7.220   1.041
 5477TIP3   OH216366   5.144   7.544   1.745
 5477TIP3    H116367   5.170   7.594   1.826
 5477TIP3    H216368   5.196   7.462   1.754
 5478TIP3   OH216369   5.016   6.950   1.044
 5478TIP3    H116370   5.006   7.030   1.098
 5478TIP3    H216371   5.075   6.986   0.972
 5479TIP3   OH216372   4.529   6.956   0.852
 5479TIP3    H116373   4.532   7.049   0.883
 5479TIP3    H216374   4.625   6.936   0.850
 5480TIP3   OH216375   5.784   7.445   1.724
 5480TIP3    H116376   5.686   7.448   1.737
 5480TIP3    H216377   5.786   7.391   1.643
 5481TIP3   OH216378   5.436   7.643   1.129
 5481TIP3    H116379   5.361   7.581   1.127
 5481TIP3    H216380   5.506   7.589   1.172
 5482TIP3   OH216381   4.163   7.864   0.595
 5482TIP3    H116382   4.191   7.953   0.621
 5482TIP3    H216383   4.145   7.879   0.501
 5483TIP3   OH216384   4.096   7.137   0.713
 5483TIP3    H116385   4.088   7.234   0.720
 5483TIP3    H216386   4.010   7.111   0.678
 5484TIP3   OH216387   4.481   6.864   1.591
 5484TIP3    H116388   4.450   6.830   1.505
 5484TIP3    H216389   4.469   6.785   1.649
 5485TIP3   OH216390   4.308   8.014   2.232
 5485TIP3    H116391   4.329   7.919   2.241
 5485TIP3    H216392   4.218   8.010   2.193
 5486TIP3   OH216393   4.929   8.098   2.046
 5486TIP3    H116394   4.896   8.110   1.955
 5486TIP3    H216395   4.964   8.007   2.040
 5487TIP3   OH216396   5.406   8.115   1.628
 5487TIP3    H116397   5.470   8.176   1.584
 5487TIP3    H216398   5.323   8.165   1.621
 5488TIP3   OH216399   4.432   7.764   2.230
 5488TIP3    H116400   4.506   7.706   2.209
 5488TIP3    H216401   4.458   7.796   2.320
 5489TIP3   OH216402   4.517   7.581   0.681
 5489TIP3    H116403   4.467   7.549   0.757
 5489TIP3    H216404   4.526   7.500   0.628
 5490TIP3   OH216405   4.763   7.653   1.891
 5490TIP3    H116406   4.683   7.709   1.892
 5490TIP3    H216407   4.811   7.688   1.813
 5491TIP3   OH216408   5.282   8.041   2.020
 5491TIP3    H116409   5.364   8.015   1.977
 5491TIP3    H216410   5.279   7.979   2.095
 5492TIP3   OH216411   4.886   7.440   2.014
 5492TIP3    H116412   4.885   7.361   1.956
 5492TIP3    H216413   4.841   7.507   1.957
 5493TIP3   OH216414   4.888   7.227   1.823
 5493TIP3    H116415   4.915   7.266   1.737
 5493TIP3    H216416   4.795   7.203   1.805
 5494TIP3   OH216417   4.909   7.767   1.698
 5494TIP3    H116418   4.990   7.767   1.645
 5494TIP3    H216419   4.852   7.832   1.650
 5495TIP3   OH216420   5.493   7.726   2.075
 5495TIP3    H116421   5.540   7.643   2.091
 5495TIP3    H216422   5.564   7.784   2.042
 5496TIP3   OH216423   5.539   7.978   1.816
 5496TIP3    H116424   5.482   8.032   1.755
 5496TIP3    H216425   5.627   7.997   1.776
 5497TIP3   OH216426   4.764   7.546   2.248
 5497TIP3    H116427   4.696   7.478   2.264
 5497TIP3    H216428   4.797   7.520   2.159
 5498TIP3   OH216429   5.019   6.988   1.892
 5498TIP3    H116430   4.970   7.070   1.869
 5498TIP3    H216431   4.949   6.920   1.881
 5499TIP3   OH216432   5.144   7.491   2.107
 5499TIP3    H116433   5.129   7.476   2.202
 5499TIP3    H216434   5.055   7.467   2.073
 5500TIP3   OH216435   5.384   7.441   1.963
 5500TIP3    H116436   5.308   7.442   2.025
 5500TIP3    H216437   5.457   7.411   2.020
 5501TIP3   OH216438   5.615   7.384   2.111
 5501TIP3    H116439   5.627   7.288   2.128
 5501TIP3    H216440   5.609   7.421   2.202
 5502TIP3   OH216441   4.603   7.327   2.302
 5502TIP3    H116442   4.606   7.235   2.269
 5502TIP3    H216443   4.640   7.315   2.392
 5503TIP3   OH216444   5.113   6.998   2.150
 5503TIP3    H116445   5.179   6.926   2.144
 5503TIP3    H216446   5.072   6.994   2.062
 5504TIP3   OH216447   5.180   7.214   2.307
 5504TIP3    H116448   5.158   7.142   2.244
 5504TIP3    H216449   5.101   7.271   2.301
 5505TIP3   OH216450   3.889   7.792   0.606
 5505TIP3    H116451   3.986   7.802   0.606
 5505TIP3    H216452   3.878   7.700   0.573
 5506TIP3   OH216453   5.748   8.409   1.841
 5506TIP3    H116454   5.680   8.390   1.909
 5506TIP3    H216455   5.810   8.465   1.889
 5507TIP3   OH216456   5.720   8.145   1.134
 5507TIP3    H116457   5.782   8.087   1.086
 5507TIP3    H216458   5.720   8.227   1.082
 5508TIP3   OH216459   5.470   7.612   0.850
 5508TIP3    H116460   5.493   7.518   0.832
 5508TIP3    H216461   5.478   7.619   0.947
 5509TIP3   OH216462   4.115   7.699   1.597
 5509TIP3    H116463   4.111   7.661   1.507
 5509TIP3    H216464   4.213   7.698   1.612
 5510TIP3   OH216465   5.781   8.043   1.708
 5510TIP3    H116466   5.854   7.979   1.698
 5510TIP3    H216467   5.809   8.115   1.647
 5511TIP3   OH216468   5.970   7.849   1.719
 5511TIP3    H116469   5.892   7.801   1.757
 5511TIP3    H216470   6.040   7.782   1.737
 5512TIP3   OH216471   5.495   7.345   0.764
 5512TIP3    H116472   5.535   7.255   0.775
 5512TIP3    H216473   5.510   7.357   0.669
 5513TIP3   OH216474   5.648   7.504   1.241
 5513TIP3    H116475   5.733   7.531   1.199
 5513TIP3    H216476   5.662   7.543   1.330
 5514TIP3   OH216477   5.720   7.654   1.469
 5514TIP3    H116478   5.642   7.686   1.520
 5514TIP3    H216479   5.749   7.736   1.423
 5515TIP3   OH216480   4.336   7.380   2.272
 5515TIP3    H116481   4.434   7.374   2.276
 5515TIP3    H216482   4.312   7.293   2.310
 5516TIP3   OH216483   6.167   7.248   2.024
 5516TIP3    H116484   6.229   7.183   1.983
 5516TIP3    H216485   6.140   7.301   1.946
 5517TIP3   OH216486   5.581   7.092   0.802
 5517TIP3    H116487   5.636   7.063   0.876
 5517TIP3    H216488   5.534   7.009   0.779
 5518TIP3   OH216489   4.297   7.073   1.603
 5518TIP3    H116490   4.359   6.997   1.610
 5518TIP3    H216491   4.360   7.147   1.594
 5519TIP3   OH216492   4.096   7.346   1.673
 5519TIP3    H116493   4.146   7.339   1.589
 5519TIP3    H216494   4.127   7.430   1.707
 5520TIP3   OH216495   6.040   7.385   1.825
 5520TIP3    H116496   5.954   7.426   1.850
 5520TIP3    H216497   6.007   7.311   1.771
 5521TIP3   OH216498   4.083   6.857   1.179
 5521TIP3    H116499   3.989   6.846   1.201
 5521TIP3    H216500   4.078   6.911   1.097
 5522TIP3   OH216501   4.304   6.929   1.989
 5522TIP3    H116502   4.252   6.924   2.071
 5522TIP3    H216503   4.237   6.967   1.928
 5523TIP3   OH216504   5.939   7.146   1.710
 5523TIP3    H116505   5.849   7.136   1.676
 5523TIP3    H216506   5.973   7.054   1.700
 5524TIP3   OH216507   5.145   7.063   1.336
 5524TIP3    H116508   5.102   6.991   1.384
 5524TIP3    H216509   5.215   7.017   1.286
 5525TIP3   OH216510   5.662   6.949   1.245
 5525TIP3    H116511   5.700   6.998   1.168
 5525TIP3    H216512   5.567   6.963   1.232
 5526TIP3   OH216513   5.761   7.041   1.009
 5526TIP3    H116514   5.834   6.993   0.965
 5526TIP3    H216515   5.786   7.133   0.986
 5527TIP3   OH216516   4.391   6.771   1.345
 5527TIP3    H116517   4.299   6.738   1.346
 5527TIP3    H216518   4.439   6.685   1.340
 5528TIP3   OH216519   4.195   6.643   1.002
 5528TIP3    H116520   4.212   6.695   0.921
 5528TIP3    H216521   4.158   6.710   1.063
 5529TIP3   OH216522   4.840   6.800   1.226
 5529TIP3    H116523   4.896   6.848   1.162
 5529TIP3    H216524   4.865   6.843   1.310
 5530TIP3   OH216525   5.383   6.952   1.208
 5530TIP3    H116526   5.378   6.918   1.117
 5530TIP3    H216527   5.369   6.871   1.261
 5531TIP3   OH216528   5.427   6.865   0.793
 5531TIP3    H116529   5.342   6.895   0.760
 5531TIP3    H216530   5.404   6.781   0.838
 5532TIP3   OH216531   4.296   6.802   0.759
 5532TIP3    H116532   4.343   6.740   0.700
 5532TIP3    H216533   4.370   6.853   0.797
 5533TIP3   OH216534   4.806   6.977   0.855
 5533TIP3    H116535   4.868   6.929   0.913
 5533TIP3    H216536   4.830   7.069   0.878
 5534TIP3   OH216537   4.599   7.052   2.237
 5534TIP3    H116538   4.565   6.981   2.294
 5534TIP3    H216539   4.694   7.052   2.265
 5535TIP3   OH216540   4.850   7.049   2.355
 5535TIP3    H116541   4.935   7.022   2.318
 5535TIP3    H216542   4.836   6.979   2.423
 5536TIP3   OH216543   5.676   7.113   2.143
 5536TIP3    H116544   5.694   7.083   2.235
 5536TIP3    H216545   5.765   7.108   2.103
 5537TIP3   OH216546   6.172   7.926   1.141
 5537TIP3    H116547   6.225   7.881   1.208
 5537TIP3    H216548   6.241   7.957   1.077
 5538TIP3   OH216549   6.054   7.624   0.949
 5538TIP3    H116550   6.143   7.594   0.972
 5538TIP3    H216551   6.035   7.576   0.867
 5539TIP3   OH216552   6.413   7.402   1.270
 5539TIP3    H116553   6.355   7.438   1.200
 5539TIP3    H216554   6.357   7.419   1.349
 5540TIP3   OH216555   6.301   7.510   1.032
 5540TIP3    H116556   6.353   7.589   1.060
 5540TIP3    H216557   6.361   7.473   0.966
 5541TIP3   OH216558   6.774   7.128   0.988
 5541TIP3    H116559   6.762   7.032   0.996
 5541TIP3    H216560   6.690   7.160   1.025
 5542TIP3   OH216561   6.282   8.058   1.405
 5542TIP3    H116562   6.267   8.140   1.455
 5542TIP3    H216563   6.192   8.020   1.413
 5543TIP3   OH216564   5.943   8.188   1.335
 5543TIP3    H116565   5.874   8.172   1.268
 5543TIP3    H216566   5.975   8.098   1.356
 5544TIP3   OH216567   6.532   7.207   1.112
 5544TIP3    H116568   6.445   7.171   1.084
 5544TIP3    H216569   6.501   7.279   1.170
 5545TIP3   OH216570   7.050   7.281   1.330
 5545TIP3    H116571   7.084   7.315   1.415
 5545TIP3    H216572   6.954   7.270   1.351
 5546TIP3   OH216573   6.455   7.712   1.121
 5546TIP3    H116574   6.410   7.741   1.203
 5546TIP3    H216575   6.491   7.795   1.087
 5547TIP3   OH216576   6.311   7.752   1.350
 5547TIP3    H116577   6.287   7.816   1.419
 5547TIP3    H216578   6.289   7.667   1.394
 5548TIP3   OH216579   5.888   7.263   0.921
 5548TIP3    H116580   5.961   7.294   0.978
 5548TIP3    H216581   5.927   7.260   0.833
 5549TIP3   OH216582   6.039   7.962   1.476
 5549TIP3    H116583   6.042   7.940   1.572
 5549TIP3    H216584   5.962   7.909   1.447
 5550TIP3   OH216585   6.260   7.490   1.480
 5550TIP3    H116586   6.163   7.494   1.491
 5550TIP3    H216587   6.286   7.434   1.554
 5551TIP3   OH216588   6.274   7.123   1.088
 5551TIP3    H116589   6.240   7.091   1.001
 5551TIP3    H216590   6.264   7.043   1.143
 5552TIP3   OH216591   6.116   8.271   1.703
 5552TIP3    H116592   6.147   8.179   1.701
 5552TIP3    H216593   6.026   8.263   1.665
 5553TIP3   OH216594   6.238   8.025   1.712
 5553TIP3    H116595   6.297   7.949   1.706
 5553TIP3    H216596   6.252   8.053   1.804
 5554TIP3   OH216597   6.650   7.713   1.497
 5554TIP3    H116598   6.687   7.625   1.481
 5554TIP3    H216599   6.591   7.724   1.423
 5555TIP3   OH216600   6.662   7.505   1.280
 5555TIP3    H116601   6.638   7.538   1.192
 5555TIP3    H216602   6.576   7.464   1.304
 5556TIP3   OH216603   6.550   7.803   1.738
 5556TIP3    H116604   6.485   7.730   1.751
 5556TIP3    H216605   6.589   7.779   1.651
 5557TIP3   OH216606   6.783   7.250   1.387
 5557TIP3    H116607   6.729   7.322   1.352
 5557TIP3    H216608   6.724   7.172   1.373
 5558TIP3   OH216609   6.399   7.579   1.787
 5558TIP3    H116610   6.402   7.486   1.755
 5558TIP3    H216611   6.434   7.567   1.878
 5559TIP3   OH216612   6.907   7.248   1.633
 5559TIP3    H116613   6.979   7.182   1.623
 5559TIP3    H216614   6.858   7.237   1.549
 5560TIP3   OH216615   6.970   7.453   1.803
 5560TIP3    H116616   6.950   7.388   1.733
 5560TIP3    H216617   6.903   7.523   1.788
 5561TIP3   OH216618   5.912   7.951   1.077
 5561TIP3    H116619   5.918   7.898   0.997
 5561TIP3    H216620   6.007   7.953   1.104
 5562TIP3   OH216621   6.135   7.639   1.762
 5562TIP3    H116622   6.233   7.630   1.766
 5562TIP3    H216623   6.109   7.551   1.797
 5563TIP3   OH216624   6.093   7.331   1.091
 5563TIP3    H116625   6.151   7.253   1.102
 5563TIP3    H216626   6.158   7.402   1.079
 5564TIP3   OH216627   5.893   7.603   1.169
 5564TIP3    H116628   5.943   7.602   1.085
 5564TIP3    H216629   5.923   7.686   1.207
 5565TIP3   OH216630   6.098   7.186   1.476
 5565TIP3    H116631   6.047   7.181   1.558
 5565TIP3    H216632   6.031   7.225   1.416
 5566TIP3   OH216633   6.181   7.029   0.853
 5566TIP3    H116634   6.089   6.995   0.850
 5566TIP3    H216635   6.230   6.949   0.827
 5567TIP3   OH216636   6.395   7.308   1.721
 5567TIP3    H116637   6.360   7.238   1.779
 5567TIP3    H216638   6.490   7.307   1.750
 5568TIP3   OH216639   6.643   7.303   1.840
 5568TIP3    H116640   6.734   7.288   1.808
 5568TIP3    H216641   6.634   7.232   1.907
 5569TIP3   OH216642   1.828   0.512   5.755
 5569TIP3    H116643   1.819   0.433   5.811
 5569TIP3    H216644   1.876   0.573   5.814
 5570TIP3   OH216645   1.524   0.939   5.768
 5570TIP3    H116646   1.535   0.851   5.807
 5570TIP3    H216647   1.494   0.987   5.847
 5571TIP3   OH216648   2.419  -0.047   6.303
 5571TIP3    H116649   2.363   0.019   6.256
 5571TIP3    H216650   2.486   0.009   6.343
 5572TIP3   OH216651   1.527   0.441   5.509
 5572TIP3    H116652   1.468   0.366   5.488
 5572TIP3    H216653   1.470   0.487   5.572
 5573TIP3   OH216654   1.896   0.750   5.916
 5573TIP3    H116655   1.801   0.745   5.939
 5573TIP3    H216656   1.900   0.838   5.874
 5574TIP3   OH216657   1.735   0.619   5.518
 5574TIP3    H116658   1.690   0.541   5.480
 5574TIP3    H216659   1.788   0.572   5.588
 5575TIP3   OH216660   2.126   0.638   6.237
 5575TIP3    H116661   2.153   0.576   6.167
 5575TIP3    H216662   2.117   0.721   6.186
 5576TIP3   OH216663   1.764   0.154   5.494
 5576TIP3    H116664   1.711   0.155   5.575
 5576TIP3    H216665   1.845   0.110   5.525
 5577TIP3   OH216666   1.633   0.761   5.995
 5577TIP3    H116667   1.635   0.842   6.051
 5577TIP3    H216668   1.640   0.691   6.063
 5578TIP3   OH216669   1.441   0.740   5.561
 5578TIP3    H116670   1.390   0.675   5.614
 5578TIP3    H216671   1.371   0.774   5.502
 5579TIP3   OH216672   1.926   0.597   4.914
 5579TIP3    H116673   1.935   0.693   4.896
 5579TIP3    H216674   2.018   0.566   4.899
 5580TIP3   OH216675   2.365   1.002   6.302
 5580TIP3    H116676   2.369   0.906   6.320
 5580TIP3    H216677   2.283   1.025   6.351
 5581TIP3   OH216678   1.498   0.817   6.401
 5581TIP3    H116679   1.488   0.900   6.453
 5581TIP3    H216680   1.427   0.762   6.440
 5582TIP3   OH216681   1.236   0.917   5.382
 5582TIP3    H116682   1.193   0.910   5.295
 5582TIP3    H216683   1.205   1.005   5.412
 5583TIP3   OH216684   1.450   0.806   5.039
 5583TIP3    H116685   1.500   0.745   4.980
 5583TIP3    H216686   1.484   0.775   5.124
 5584TIP3   OH216687   2.261   0.116   6.577
 5584TIP3    H116688   2.192   0.166   6.532
 5584TIP3    H216689   2.241   0.026   6.549
 5585TIP3   OH216690   1.664   0.060   5.041
 5585TIP3    H116691   1.650   0.007   4.961
 5585TIP3    H216692   1.757   0.085   5.033
 5586TIP3   OH216693   2.060   1.351   6.405
 5586TIP3    H116694   2.061   1.375   6.311
 5586TIP3    H216695   2.142   1.396   6.436
 5587TIP3   OH216696   1.379   0.406   5.216
 5587TIP3    H116697   1.322   0.479   5.247
 5587TIP3    H216698   1.381   0.350   5.297
 5588TIP3   OH216699   1.770   0.785   6.374
 5588TIP3    H116700   1.672   0.793   6.367
 5588TIP3    H216701   1.786   0.842   6.452
 5589TIP3   OH216702   2.175  -0.139   5.250
 5589TIP3    H116703   2.110  -0.196   5.202
 5589TIP3    H216704   2.150  -0.052   5.211
 5590TIP3   OH216705   2.375   0.720   6.340
 5590TIP3    H116706   2.279   0.705   6.335
 5590TIP3    H216707   2.403   0.687   6.251
 5591TIP3   OH216708   1.843   0.666   5.176
 5591TIP3    H116709   1.839   0.586   5.230
 5591TIP3    H216710   1.871   0.630   5.089
 5592TIP3   OH216711   1.837   0.293   5.958
 5592TIP3    H116712   1.793   0.239   6.026
 5592TIP3    H216713   1.930   0.276   5.980
 5593TIP3   OH216714   1.277   0.888   6.243
 5593TIP3    H116715   1.306   0.958   6.183
 5593TIP3    H216716   1.358   0.870   6.294
 5594TIP3   OH216717   1.695   0.558   6.174
 5594TIP3    H116718   1.676   0.531   6.265
 5594TIP3    H216719   1.791   0.551   6.173
 5595TIP3   OH216720   1.616   0.411   5.073
 5595TIP3    H116721   1.676   0.376   5.144
 5595TIP3    H216722   1.531   0.403   5.121
 5596TIP3   OH216723   1.886   1.042   6.246
 5596TIP3    H116724   1.808   0.986   6.233
 5596TIP3    H216725   1.878   1.104   6.170
 5597TIP3   OH216726   1.955   0.873   4.894
 5597TIP3    H116727   1.998   0.948   4.848
 5597TIP3    H216728   1.875   0.918   4.928
 5598TIP3   OH216729   1.783   0.340   5.281
 5598TIP3    H116730   1.761   0.276   5.353
 5598TIP3    H216731   1.880   0.327   5.276
 5599TIP3   OH216732   1.209   0.606   5.296
 5599TIP3    H116733   1.133   0.601   5.356
 5599TIP3    H216734   1.196   0.693   5.253
 5600TIP3   OH216735   1.913   1.011   5.831
 5600TIP3    H116736   1.872   1.058   5.755
 5600TIP3    H216737   2.008   1.034   5.814
 5601TIP3   OH216738   1.149   0.557   4.999
 5601TIP3    H116739   1.153   0.506   5.083
 5601TIP3    H216740   1.225   0.518   4.950
 5602TIP3   OH216741   1.808   0.910   6.624
 5602TIP3    H116742   1.851   0.835   6.667
 5602TIP3    H216743   1.878   0.978   6.633
 5603TIP3   OH216744   1.582   0.621   4.894
 5603TIP3    H116745   1.621   0.555   4.956
 5603TIP3    H216746   1.643   0.616   4.818
 5604TIP3   OH216747   1.914   0.550   6.395
 5604TIP3    H116748   1.996   0.576   6.347
 5604TIP3    H216749   1.867   0.636   6.392
 5605TIP3   OH216750   1.918   0.125   4.933
 5605TIP3    H116751   1.902   0.084   4.846
 5605TIP3    H216752   1.882   0.215   4.914
 5606TIP3   OH216753   2.074   0.388   6.566
 5606TIP3    H116754   2.023   0.443   6.504
 5606TIP3    H216755   2.164   0.407   6.534
 5607TIP3   OH216756   0.917   0.876   5.159
 5607TIP3    H116757   1.013   0.859   5.146
 5607TIP3    H216758   0.898   0.926   5.077
 5608TIP3   OH216759   2.163   1.111   5.796
 5608TIP3    H116760   2.194   1.138   5.885
 5608TIP3    H216761   2.234   1.142   5.739
 5609TIP3   OH216762   2.195   1.123   6.080
 5609TIP3    H116763   2.153   1.034   6.076
 5609TIP3    H216764   2.272   1.102   6.136
 5610TIP3   OH216765   2.236   0.801   6.647
 5610TIP3    H116766   2.167   0.809   6.716
 5610TIP3    H216767   2.282   0.887   6.654
 5611TIP3   OH216768   2.060   0.317   5.265
 5611TIP3    H116769   2.130   0.379   5.237
 5611TIP3    H216770   2.101   0.276   5.344
 5612TIP3   OH216771   2.178   0.184   5.469
 5612TIP3    H116772   2.115   0.145   5.533
 5612TIP3    H216773   2.248   0.221   5.527
 5613TIP3   OH216774   2.246   0.588   5.917
 5613TIP3    H116775   2.297   0.512   5.880
 5613TIP3    H216776   2.237   0.645   5.838
 5614TIP3   OH216777   2.070   0.872   6.099
 5614TIP3    H116778   1.997   0.911   6.152
 5614TIP3    H216779   2.021   0.824   6.029
 5615TIP3   OH216780   2.116   0.093   5.115
 5615TIP3    H116781   2.044   0.099   5.048
 5615TIP3    H216782   2.091   0.168   5.173
 5616TIP3   OH216783   1.998  -0.247   5.064
 5616TIP3    H116784   1.952  -0.181   5.010
 5616TIP3    H216785   1.947  -0.326   5.046
 5617TIP3   OH216786   1.997   0.040   5.627
 5617TIP3    H116787   2.020  -0.053   5.616
 5617TIP3    H216788   2.006   0.053   5.722
 5618TIP3   OH216789   2.311   0.473   6.470
 5618TIP3    H116790   2.374   0.399   6.458
 5618TIP3    H216791   2.342   0.537   6.404
 5619TIP3   OH216792   2.474   0.262   6.488
 5619TIP3    H116793   2.399   0.208   6.522
 5619TIP3    H216794   2.548   0.199   6.503
 5620TIP3   OH216795   2.148  -0.068   6.018
 5620TIP3    H116796   2.239  -0.059   5.981
 5620TIP3    H216797   2.150   0.011   6.076
 5621TIP3   OH216798   1.475   1.063   6.526
 5621TIP3    H116799   1.514   1.052   6.616
 5621TIP3    H216800   1.544   1.114   6.479
 5622TIP3   OH216801   1.661   1.203   6.382
 5622TIP3    H116802   1.735   1.155   6.341
 5622TIP3    H216803   1.711   1.263   6.442
 5623TIP3   OH216804   1.376   1.078   6.044
 5623TIP3    H116805   1.292   1.097   5.998
 5623TIP3    H216806   1.392   1.163   6.091
 5624TIP3   OH216807   1.639   1.012   6.109
 5624TIP3    H116808   1.545   1.035   6.096
 5624TIP3    H216809   1.685   1.091   6.076
 5625TIP3   OH216810   1.839   1.198   6.026
 5625TIP3    H116811   1.827   1.285   5.980
 5625TIP3    H216812   1.869   1.141   5.952
 5626TIP3   OH216813   1.181   0.814   5.113
 5626TIP3    H116814   1.272   0.831   5.079
 5626TIP3    H216815   1.159   0.735   5.059
 5627TIP3   OH216816   1.888   0.936   5.223
 5627TIP3    H116817   1.875   0.839   5.212
 5627TIP3    H216818   1.844   0.971   5.143
 5628TIP3   OH216819   2.118   1.081   6.402
 5628TIP3    H116820   2.039   1.054   6.352
 5628TIP3    H216821   2.102   1.177   6.410
 5629TIP3   OH216822   3.388   0.450   5.169
 5629TIP3    H116823   3.360   0.542   5.150
 5629TIP3    H216824   3.311   0.402   5.133
 5630TIP3   OH216825   3.389   0.454   5.554
 5630TIP3    H116826   3.420   0.433   5.644
 5630TIP3    H216827   3.343   0.373   5.529
 5631TIP3   OH216828   2.681   0.347   5.909
 5631TIP3    H116829   2.708   0.275   5.969
 5631TIP3    H216830   2.760   0.403   5.913
 5632TIP3   OH216831   3.633   0.757   5.236
 5632TIP3    H116832   3.616   0.692   5.306
 5632TIP3    H216833   3.662   0.834   5.288
 5633TIP3   OH216834   2.656   0.759   5.636
 5633TIP3    H116835   2.649   0.661   5.638
 5633TIP3    H216836   2.753   0.768   5.638
 5634TIP3   OH216837   2.350  -0.032   5.440
 5634TIP3    H116838   2.299   0.051   5.446
 5634TIP3    H216839   2.290  -0.085   5.383
 5635TIP3   OH216840   2.414   0.255   5.589
 5635TIP3    H116841   2.457   0.176   5.629
 5635TIP3    H216842   2.487   0.292   5.537
 5636TIP3   OH216843   3.282   1.217   5.251
 5636TIP3    H116844   3.325   1.145   5.201
 5636TIP3    H216845   3.275   1.178   5.340
 5637TIP3   OH216846   3.184   0.680   5.600
 5637TIP3    H116847   3.224   0.605   5.555
 5637TIP3    H216848   3.266   0.727   5.626
 5638TIP3   OH216849   3.608   0.180   5.646
 5638TIP3    H116850   3.617   0.088   5.675
 5638TIP3    H216851   3.565   0.171   5.558
 5639TIP3   OH216852   2.930  -0.201   5.557
 5639TIP3    H116853   2.904  -0.110   5.531
 5639TIP3    H216854   2.842  -0.244   5.559
 5640TIP3   OH216855   3.597  -0.035   5.274
 5640TIP3    H116856   3.665  -0.082   5.326
 5640TIP3    H216857   3.639  -0.027   5.187
 5641TIP3   OH216858   2.549   0.045   5.695
 5641TIP3    H116859   2.641   0.046   5.729
 5641TIP3    H216860   2.560  -0.020   5.623
 5642TIP3   OH216861   3.006   0.243   5.498
 5642TIP3    H116862   3.099   0.216   5.516
 5642TIP3    H216863   2.965   0.157   5.474
 5643TIP3   OH216864   4.231   0.188   5.801
 5643TIP3    H116865   4.160   0.245   5.765
 5643TIP3    H216866   4.296   0.253   5.834
 5644TIP3   OH216867   3.276   0.671   5.039
 5644TIP3    H116868   3.237   0.658   4.951
 5644TIP3    H216869   3.231   0.755   5.066
 5645TIP3   OH216870   3.039   0.599   5.824
 5645TIP3    H116871   2.978   0.667   5.861
 5645TIP3    H216872   3.081   0.649   5.751
 5646TIP3   OH216873   2.807   0.004   5.758
 5646TIP3    H116874   2.872   0.053   5.810
 5646TIP3    H216875   2.831  -0.087   5.783
 5647TIP3   OH216876   2.867   0.795   5.922
 5647TIP3    H116877   2.842   0.883   5.888
 5647TIP3    H216878   2.788   0.776   5.978
 5648TIP3   OH216879   2.260   0.486   5.159
 5648TIP3    H116880   2.221   0.515   5.075
 5648TIP3    H216881   2.294   0.571   5.196
 5649TIP3   OH216882   3.698   0.999   5.396
 5649TIP3    H116883   3.609   0.991   5.437
 5649TIP3    H216884   3.691   1.087   5.354
 5650TIP3   OH216885   3.398   1.044   5.069
 5650TIP3    H116886   3.449   0.962   5.051
 5650TIP3    H216887   3.459   1.110   5.030
 5651TIP3   OH216888   3.543   0.829   4.985
 5651TIP3    H116889   3.509   0.747   4.946
 5651TIP3    H216890   3.582   0.796   5.069
 5652TIP3   OH216891   3.925   0.910   5.744
 5652TIP3    H116892   3.913   0.833   5.684
 5652TIP3    H216893   3.907   0.986   5.685
 5653TIP3   OH216894   3.218   0.309   4.999
 5653TIP3    H116895   3.137   0.360   4.979
 5653TIP3    H216896   3.260   0.303   4.912
 5654TIP3   OH216897   3.177   0.088   4.715
 5654TIP3    H116898   3.250   0.142   4.752
 5654TIP3    H216899   3.222   0.004   4.701
 5655TIP3   OH216900   4.122   0.552   5.589
 5655TIP3    H116901   4.039   0.603   5.593
 5655TIP3    H216902   4.153   0.575   5.499
 5656TIP3   OH216903   3.562   0.387   4.968
 5656TIP3    H116904   3.508   0.410   5.046
 5656TIP3    H216905   3.648   0.366   5.012
 5657TIP3   OH216906   3.798   0.426   5.891
 5657TIP3    H116907   3.795   0.508   5.943
 5657TIP3    H216908   3.711   0.431   5.846
 5658TIP3   OH216909   2.798   0.383   5.387
 5658TIP3    H116910   2.759   0.323   5.321
 5658TIP3    H216911   2.875   0.331   5.420
 5659TIP3   OH216912   2.930   0.801   5.535
 5659TIP3    H116913   2.910   0.758   5.450
 5659TIP3    H216914   3.019   0.765   5.555
 5660TIP3   OH216915   2.942   0.351   5.751
 5660TIP3    H116916   2.968   0.328   5.659
 5660TIP3    H216917   2.981   0.439   5.765
 5661TIP3   OH216918   3.459   0.994   5.521
 5661TIP3    H116919   3.446   1.075   5.574
 5661TIP3    H216920   3.443   0.922   5.586
 5662TIP3   OH216921   3.073   0.910   6.067
 5662TIP3    H116922   3.015   0.972   6.117
 5662TIP3    H216923   3.006   0.858   6.019
 5663TIP3   OH216924   3.403   0.237   4.797
 5663TIP3    H116925   3.463   0.294   4.850
 5663TIP3    H216926   3.430   0.263   4.705
 5664TIP3   OH216927   2.815   0.472   6.166
 5664TIP3    H116928   2.822   0.558   6.212
 5664TIP3    H216929   2.720   0.452   6.181
 5665TIP3   OH216930   3.151   0.921   5.072
 5665TIP3    H116931   3.234   0.973   5.083
 5665TIP3    H216932   3.091   0.987   5.035
 5666TIP3   OH216933   2.866   1.076   6.154
 5666TIP3    H116934   2.828   1.076   6.064
 5666TIP3    H216935   2.787   1.058   6.210
 5667TIP3   OH216936   2.666   0.225   5.188
 5667TIP3    H116937   2.596   0.270   5.137
 5667TIP3    H216938   2.626   0.140   5.208
 5668TIP3   OH216939   3.719   0.852   4.397
 5668TIP3    H116940   3.729   0.949   4.382
 5668TIP3    H216941   3.812   0.822   4.385
 5669TIP3   OH216942   2.445   0.609   6.105
 5669TIP3    H116943   2.379   0.594   6.034
 5669TIP3    H216944   2.478   0.518   6.121
 5670TIP3   OH216945   2.301   0.812   5.719
 5670TIP3    H116946   2.394   0.787   5.715
 5670TIP3    H216947   2.303   0.881   5.788
 5671TIP3   OH216948   4.167   1.253   5.798
 5671TIP3    H116949   4.162   1.157   5.815
 5671TIP3    H216950   4.083   1.283   5.840
 5672TIP3   OH216951   3.267   1.042   5.924
 5672TIP3    H116952   3.265   1.134   5.958
 5672TIP3    H216953   3.197   1.001   5.980
 5673TIP3   OH216954   3.031   1.168   4.878
 5673TIP3    H116955   2.986   1.152   4.793
 5673TIP3    H216956   2.999   1.257   4.903
 5674TIP3   OH216957   2.469   1.018   5.263
 5674TIP3    H116958   2.517   1.011   5.349
 5674TIP3    H216959   2.420   0.933   5.263
 5675TIP3   OH216960   3.230   1.072   4.515
 5675TIP3    H116961   3.287   1.001   4.478
 5675TIP3    H216962   3.267   1.081   4.605
 5676TIP3   OH216963   3.283   1.121   4.785
 5676TIP3    H116964   3.196   1.129   4.828
 5676TIP3    H216965   3.337   1.085   4.857
 5677TIP3   OH216966   4.052   0.371   6.071
 5677TIP3    H116967   3.974   0.409   6.027
 5677TIP3    H216968   4.037   0.277   6.054
 5678TIP3   OH216969   2.647   0.793   6.084
 5678TIP3    H116970   2.698   0.779   6.167
 5678TIP3    H216971   2.575   0.728   6.094
 5679TIP3   OH216972   3.829   0.171   6.014
 5679TIP3    H116973   3.791   0.203   6.097
 5679TIP3    H216974   3.807   0.243   5.952
 5680TIP3   OH216975   3.479   0.293   4.544
 5680TIP3    H116976   3.447   0.259   4.459
 5680TIP3    H216977   3.561   0.339   4.515
 5681TIP3   OH216978   3.001   0.136   5.909
 5681TIP3    H116979   2.939   0.155   5.983
 5681TIP3    H216980   2.986   0.216   5.853
 5682TIP3   OH216981   2.861   0.024   5.413
 5682TIP3    H116982   2.768  -0.002   5.426
 5682TIP3    H216983   2.877  -0.010   5.321
 5683TIP3   OH216984   3.351   0.110   5.134
 5683TIP3    H116985   3.303   0.183   5.089
 5683TIP3    H216986   3.413   0.080   5.064
 5684TIP3   OH216987   3.537   0.406   6.204
 5684TIP3    H116988   3.511   0.327   6.257
 5684TIP3    H216989   3.631   0.415   6.231
 5685TIP3   OH216990   3.489   0.177   5.398
 5685TIP3    H116991   3.436   0.223   5.330
 5685TIP3    H216992   3.514   0.096   5.346
 5686TIP3   OH216993   2.803   0.168   6.101
 5686TIP3    H116994   2.812   0.236   6.170
 5686TIP3    H216995   2.777   0.089   6.151
 5687TIP3   OH216996   2.438  -0.223   5.234
 5687TIP3    H116997   2.447  -0.233   5.138
 5687TIP3    H216998   2.343  -0.198   5.240
 5688TIP3   OH216999   3.517   0.384   5.795
 5688TIP3    H117000   3.557   0.314   5.739
 5688TIP3    H217001   3.493   0.330   5.873
 5689TIP3   OH217002   2.611  -0.105   5.456
 5689TIP3    H117003   2.518  -0.073   5.446
 5689TIP3    H217004   2.606  -0.183   5.399
 5690TIP3   OH217005   2.907  -0.083   5.166
 5690TIP3    H117006   2.997  -0.099   5.132
 5690TIP3    H217007   2.851  -0.092   5.086
 5691TIP3   OH217008   2.741  -0.103   4.939
 5691TIP3    H117009   2.664  -0.114   4.879
 5691TIP3    H217010   2.800  -0.055   4.877
 5692TIP3   OH217011   3.861   1.606   5.890
 5692TIP3    H117012   3.858   1.631   5.796
 5692TIP3    H217013   3.942   1.653   5.919
 5693TIP3   OH217014   2.808   0.715   6.305
 5693TIP3    H117015   2.892   0.738   6.352
 5693TIP3    H217016   2.746   0.717   6.381
 5694TIP3   OH217017   3.260   0.173   5.567
 5694TIP3    H117018   3.345   0.146   5.529
 5694TIP3    H217019   3.267   0.138   5.660
 5695TIP3   OH217020   3.272   0.098   5.827
 5695TIP3    H117021   3.182   0.097   5.865
 5695TIP3    H217022   3.323   0.143   5.898
 5696TIP3   OH217023   2.985   0.457   4.947
 5696TIP3    H117024   2.912   0.392   4.937
 5696TIP3    H217025   2.968   0.491   5.039
 5697TIP3   OH217026   3.887   0.693   5.576
 5697TIP3    H117027   3.912   0.744   5.496
 5697TIP3    H217028   3.801   0.653   5.550
 5698TIP3   OH217029   3.385   0.777   5.949
 5698TIP3    H117030   3.412   0.759   6.040
 5698TIP3    H217031   3.346   0.866   5.955
 5699TIP3   OH217032   3.516   0.017   4.935
 5699TIP3    H117033   3.613   0.028   4.934
 5699TIP3    H217034   3.487   0.078   4.865
 5700TIP3   OH217035   2.683   0.482   5.622
 5700TIP3    H117036   2.726   0.450   5.541
 5700TIP3    H217037   2.718   0.421   5.689
 5701TIP3   OH217038   3.134   0.606   4.773
 5701TIP3    H117039   3.085   0.692   4.777
 5701TIP3    H217040   3.080   0.551   4.833
 5702TIP3   OH217041   2.552   0.389   6.242
 5702TIP3    H117042   2.580   0.379   6.335
 5702TIP3    H217043   2.478   0.326   6.238
 5703TIP3   OH217044   3.288   0.519   6.264
 5703TIP3    H117045   3.224   0.464   6.215
 5703TIP3    H217046   3.373   0.488   6.228
 5704TIP3   OH217047   3.545   1.033   5.844
 5704TIP3    H117048   3.448   1.034   5.858
 5704TIP3    H217049   3.575   1.086   5.922
 5705TIP3   OH217050   3.955   0.107   4.741
 5705TIP3    H117051   3.896   0.057   4.680
 5705TIP3    H217052   3.941   0.198   4.703
 5706TIP3   OH217053   4.174   0.963   5.835
 5706TIP3    H117054   4.077   0.960   5.824
 5706TIP3    H217055   4.202   0.936   5.744
 5707TIP3   OH217056   3.656   0.928   4.662
 5707TIP3    H117057   3.631   0.857   4.722
 5707TIP3    H217058   3.671   0.881   4.577
 5708TIP3   OH217059   3.652   0.560   5.492
 5708TIP3    H117060   3.559   0.534   5.508
 5708TIP3    H217061   3.687   0.480   5.448
 5709TIP3   OH217062   2.783   0.784   5.248
 5709TIP3    H117063   2.780   0.865   5.195
 5709TIP3    H217064   2.689   0.770   5.267
 5710TIP3   OH217065   2.341   0.088   4.957
 5710TIP3    H117066   2.389   0.170   4.979
 5710TIP3    H217067   2.265   0.094   5.019
 5711TIP3   OH217068   2.914   0.547   5.191
 5711TIP3    H117069   2.881   0.637   5.211
 5711TIP3    H217070   2.880   0.497   5.268
 5712TIP3   OH217071   3.053   1.126   5.719
 5712TIP3    H117072   3.096   1.199   5.670
 5712TIP3    H217073   3.128   1.091   5.770
 5713TIP3   OH217074   2.698   1.025   5.101
 5713TIP3    H117075   2.614   1.033   5.150
 5713TIP3    H217076   2.731   1.118   5.107
 5714TIP3   OH217077   3.435   0.762   5.681
 5714TIP3    H117078   3.424   0.762   5.779
 5714TIP3    H217079   3.518   0.712   5.672
 5715TIP3   OH217080   3.414   0.660   4.565
 5715TIP3    H117081   3.469   0.633   4.643
 5715TIP3    H217082   3.327   0.629   4.594
 5716TIP3   OH217083   3.687   1.292   5.728
 5716TIP3    H117084   3.607   1.237   5.722
 5716TIP3    H217085   3.671   1.357   5.656
 5717TIP3   OH217086   3.751   1.126   4.381
 5717TIP3    H117087   3.782   1.190   4.314
 5717TIP3    H217088   3.675   1.177   4.418
 5718TIP3   OH217089   3.576   0.589   4.777
 5718TIP3    H117090   3.564   0.521   4.846
 5718TIP3    H217091   3.673   0.585   4.765
 5719TIP3   OH217092   2.485   0.987   5.880
 5719TIP3    H117093   2.540   0.915   5.915
 5719TIP3    H217094   2.514   1.060   5.936
 5720TIP3   OH217095   2.775   0.635   4.562
 5720TIP3    H117096   2.792   0.543   4.537
 5720TIP3    H217097   2.757   0.626   4.658
 5721TIP3   OH217098   2.721   0.641   4.835
 5721TIP3    H117099   2.795   0.612   4.890
 5721TIP3    H217100   2.726   0.738   4.844
 5722TIP3   OH217101   2.456   0.331   5.039
 5722TIP3    H117102   2.391   0.377   5.096
 5722TIP3    H217103   2.473   0.400   4.972
 5723TIP3   OH217104   2.988   0.835   4.780
 5723TIP3    H117105   2.902   0.861   4.818
 5723TIP3    H217106   3.008   0.913   4.726
 5724TIP3   OH217107   3.202  -0.114   5.161
 5724TIP3    H117108   3.251  -0.029   5.155
 5724TIP3    H217109   3.188  -0.121   5.256
 5725TIP3   OH217110   3.462   0.221   6.006
 5725TIP3    H117111   3.459   0.289   6.076
 5725TIP3    H217112   3.507   0.150   6.054
 5726TIP3   OH217113   2.734   0.913   4.852
 5726TIP3    H117114   2.706   0.984   4.790
 5726TIP3    H217115   2.719   0.956   4.939
 5727TIP3   OH217116   3.740   0.315   5.374
 5727TIP3    H117117   3.659   0.266   5.399
 5727TIP3    H217118   3.810   0.267   5.425
 5728TIP3   OH217119   2.453   0.539   4.842
 5728TIP3    H117120   2.526   0.603   4.852
 5728TIP3    H217121   2.496   0.480   4.776
 5729TIP3   OH217122   2.396  -0.184   4.952
 5729TIP3    H117123   2.385  -0.086   4.955
 5729TIP3    H217124   2.306  -0.216   4.963
 5730TIP3   OH217125   3.709   1.270   5.320
 5730TIP3    H117126   3.667   1.317   5.245
 5730TIP3    H217127   3.803   1.289   5.301
 5731TIP3   OH217128   2.320   0.755   5.227
 5731TIP3    H117129   2.259   0.788   5.295
 5731TIP3    H217130   2.285   0.800   5.146
 5732TIP3   OH217131   2.485   1.306   6.303
 5732TIP3    H117132   2.570   1.308   6.352
 5732TIP3    H217133   2.469   1.210   6.301
 5733TIP3   OH217134   2.958   1.272   6.329
 5733TIP3    H117135   3.046   1.244   6.358
 5733TIP3    H217136   2.937   1.204   6.262
 5734TIP3   OH217137   2.939   0.838   4.469
 5734TIP3    H117138   2.887   0.765   4.511
 5734TIP3    H217139   3.016   0.788   4.436
 5735TIP3   OH217140   3.602   1.168   6.076
 5735TIP3    H117141   3.594   1.100   6.147
 5735TIP3    H217142   3.677   1.222   6.108
 5736TIP3   OH217143   3.375   0.877   4.384
 5736TIP3    H117144   3.415   0.812   4.446
 5736TIP3    H217145   3.445   0.890   4.318
 5737TIP3   OH217146   2.611   0.700   6.497
 5737TIP3    H117147   2.626   0.603   6.499
 5737TIP3    H217148   2.522   0.707   6.456
 5738TIP3   OH217149   2.588   0.352   4.698
 5738TIP3    H117150   2.645   0.321   4.771
 5738TIP3    H217151   2.655   0.357   4.626
 5739TIP3   OH217152   3.229   0.797   6.270
 5739TIP3    H117153   3.179   0.813   6.187
 5739TIP3    H217154   3.252   0.702   6.263
 5740TIP3   OH217155   3.098   0.554   4.505
 5740TIP3    H117156   3.102   0.567   4.602
 5740TIP3    H217157   3.102   0.456   4.499
 5741TIP3   OH217158   3.709   0.802   5.882
 5741TIP3    H117159   3.784   0.847   5.838
 5741TIP3    H217160   3.639   0.869   5.869
 5742TIP3   OH217161   2.734   0.439   6.484
 5742TIP3    H117162   2.819   0.399   6.460
 5742TIP3    H217163   2.756   0.474   6.572
 5743TIP3   OH217164   2.788   0.262   4.915
 5743TIP3    H117165   2.768   0.225   5.003
 5743TIP3    H217166   2.828   0.185   4.868
 5744TIP3   OH217167   3.068   0.356   6.146
 5744TIP3    H117168   2.982   0.405   6.142
 5744TIP3    H217169   3.111   0.382   6.062
 5745TIP3   OH217170   2.895   0.054   4.764
 5745TIP3    H117171   2.867   0.059   4.670
 5745TIP3    H217172   2.993   0.061   4.753
 5746TIP3   OH217173   3.583   0.728   6.278
 5746TIP3    H117174   3.657   0.692   6.227
 5746TIP3    H217175   3.571   0.661   6.347
 5747TIP3   OH217176   3.717   0.379   4.422
 5747TIP3    H117177   3.694   0.336   4.337
 5747TIP3    H217178   3.685   0.470   4.402
 5748TIP3   OH217179   3.151   0.132   6.266
 5748TIP3    H117180   3.102   0.070   6.209
 5748TIP3    H217181   3.125   0.218   6.225
 5749TIP3   OH217182   3.227   0.440   5.945
 5749TIP3    H117183   3.309   0.453   5.896
 5749TIP3    H217184   3.166   0.504   5.901
 5750TIP3   OH217185   3.791   0.403   6.312
 5750TIP3    H117186   3.826   0.345   6.383
 5750TIP3    H217187   3.867   0.459   6.291
 5751TIP3   OH217188   3.840   0.653   6.064
 5751TIP3    H117189   3.780   0.708   6.008
 5751TIP3    H217190   3.927   0.679   6.025
 5752TIP3   OH217191   3.035   0.256   6.498
 5752TIP3    H117192   2.988   0.179   6.533
 5752TIP3    H217193   3.091   0.217   6.429
 5753TIP3   OH217194   3.430   0.181   6.302
 5753TIP3    H117195   3.451   0.155   6.394
 5753TIP3    H217196   3.333   0.175   6.303
 5754TIP3   OH217197   2.706   1.116   4.663
 5754TIP3    H117198   2.801   1.106   4.645
 5754TIP3    H217199   2.680   1.169   4.585
 5755TIP3   OH217200   2.183   0.500   4.875
 5755TIP3    H117201   2.279   0.521   4.863
 5755TIP3    H217202   2.179   0.410   4.835
 5756TIP3   OH217203   2.097   1.104   5.297
 5756TIP3    H117204   2.025   1.044   5.266
 5756TIP3    H217205   2.142   1.046   5.362
 5757TIP3   OH217206   2.235   0.953   5.482
 5757TIP3    H117207   2.232   0.885   5.553
 5757TIP3    H217208   2.286   1.021   5.530
 5758TIP3   OH217209   3.964   1.356   5.282
 5758TIP3    H117210   3.984   1.391   5.371
 5758TIP3    H217211   4.025   1.408   5.227
 5759TIP3   OH217212   3.988   1.382   5.562
 5759TIP3    H117213   3.950   1.291   5.564
 5759TIP3    H217214   4.066   1.369   5.619
 5760TIP3   OH217215   4.039   1.055   6.138
 5760TIP3    H117216   3.966   1.066   6.202
 5760TIP3    H217217   4.081   1.144   6.141
 5761TIP3   OH217218   3.855   0.568   4.751
 5761TIP3    H117219   3.920   0.635   4.722
 5761TIP3    H217220   3.899   0.532   4.831
 5762TIP3   OH217221   3.980   0.441   4.956
 5762TIP3    H117222   3.913   0.403   5.018
 5762TIP3    H217223   4.045   0.482   5.017
 5763TIP3   OH217224   4.038   0.832   5.390
 5763TIP3    H117225   4.091   0.766   5.341
 5763TIP3    H217226   4.034   0.906   5.327
 5764TIP3   OH217227   3.865   1.128   5.586
 5764TIP3    H117228   3.795   1.173   5.637
 5764TIP3    H217229   3.814   1.084   5.515
 5765TIP3   OH217230   3.913   0.342   4.604
 5765TIP3    H117231   3.843   0.351   4.535
 5765TIP3    H217232   3.890   0.420   4.660
 5766TIP3   OH217233   3.780  -0.000   4.553
 5766TIP3    H117234   3.769   0.071   4.489
 5766TIP3    H217235   3.691  -0.043   4.546
 5767TIP3   OH217236   3.793   0.307   5.102
 5767TIP3    H117237   3.792   0.211   5.085
 5767TIP3    H217238   3.779   0.312   5.200
 5768TIP3   OH217239   2.422   0.404   5.828
 5768TIP3    H117240   2.421   0.358   5.741
 5768TIP3    H217241   2.514   0.387   5.857
 5769TIP3   OH217242   4.084   0.720   5.961
 5769TIP3    H117243   4.156   0.654   5.949
 5769TIP3    H217244   4.110   0.792   5.901
 5770TIP3   OH217245   4.262   0.519   5.973
 5770TIP3    H117246   4.190   0.464   6.011
 5770TIP3    H217247   4.338   0.459   5.990
 5771TIP3   OH217248   3.791   0.043   4.971
 5771TIP3    H117249   3.829  -0.033   5.021
 5771TIP3    H217250   3.856   0.056   4.899
 5772TIP3   OH217251   3.949   0.185   5.501
 5772TIP3    H117252   4.034   0.210   5.459
 5772TIP3    H217253   3.962   0.224   5.589
 5773TIP3   OH217254   4.015   0.338   5.726
 5773TIP3    H117255   3.938   0.373   5.775
 5773TIP3    H217256   4.048   0.418   5.680
 5774TIP3   OH217257   2.637   0.049   6.518
 5774TIP3    H117258   2.733   0.040   6.524
 5774TIP3    H217259   2.607  -0.038   6.551
 5775TIP3   OH217260   2.398   0.007   5.931
 5775TIP3    H117261   2.452   0.026   5.851
 5775TIP3    H217262   2.389   0.095   5.972
 5776TIP3   OH217263   3.541   1.229   4.935
 5776TIP3    H117264   3.597   1.218   4.855
 5776TIP3    H217265   3.593   1.292   4.987
 5777TIP3   OH217266   2.645   1.036   6.319
 5777TIP3    H117267   2.552   1.008   6.310
 5777TIP3    H217268   2.663   1.018   6.412
 5778TIP3   OH217269   2.824   1.064   5.866
 5778TIP3    H117270   2.779   1.143   5.829
 5778TIP3    H217271   2.911   1.077   5.823
 5779TIP3   OH217272   3.266   1.308   6.005
 5779TIP3    H117273   3.307   1.306   6.094
 5779TIP3    H217274   3.333   1.360   5.956
 5780TIP3   OH217275   3.447   1.463   5.867
 5780TIP3    H117276   3.519   1.411   5.828
 5780TIP3    H217277   3.498   1.521   5.928
 5781TIP3   OH217278   2.500   1.321   5.893
 5781TIP3    H117279   2.409   1.354   5.874
 5781TIP3    H217280   2.517   1.365   5.977
 5782TIP3   OH217281   2.736   1.300   5.752
 5782TIP3    H117282   2.649   1.311   5.796
 5782TIP3    H217283   2.716   1.332   5.662
 5783TIP3   OH217284   3.163   1.327   5.549
 5783TIP3    H117285   3.092   1.347   5.485
 5783TIP3    H217286   3.175   1.414   5.593
 5784TIP3   OH217287   3.432   1.264   5.600
 5784TIP3    H117288   3.338   1.284   5.582
 5784TIP3    H217289   3.477   1.339   5.559
 5785TIP3   OH217290   3.632   1.455   5.513
 5785TIP3    H117291   3.621   1.541   5.467
 5785TIP3    H217292   3.662   1.396   5.440
 5786TIP3   OH217293   2.410   1.113   5.638
 5786TIP3    H117294   2.437   1.085   5.728
 5786TIP3    H217295   2.482   1.071   5.587
 5787TIP3   OH217296   2.607   0.988   5.497
 5787TIP3    H117297   2.620   0.903   5.546
 5787TIP3    H217298   2.699   1.023   5.496
 5788TIP3   OH217299   2.874   1.078   5.503
 5788TIP3    H117300   2.903   0.985   5.494
 5788TIP3    H217301   2.923   1.102   5.584
 5789TIP3   OH217302   2.199   0.889   5.025
 5789TIP3    H117303   2.113   0.858   4.991
 5789TIP3    H217304   2.191   0.984   5.008
 5790TIP3   OH217305   2.972   1.070   4.611
 5790TIP3    H117306   3.060   1.093   4.574
 5790TIP3    H217307   2.950   0.995   4.551
 5791TIP3   OH217308   3.692   1.195   4.705
 5791TIP3    H117309   3.684   1.097   4.693
 5791TIP3    H217310   3.648   1.227   4.624
 5792TIP3   OH217311   2.276   0.909   4.666
 5792TIP3    H117312   2.282   0.928   4.761
 5792TIP3    H217313   2.363   0.866   4.649
 5793TIP3   OH217314   3.917   1.335   5.890
 5793TIP3    H117315   3.837   1.308   5.841
 5793TIP3    H217316   3.901   1.432   5.896
 5794TIP3   OH217317   5.184   0.707   4.656
 5794TIP3    H117318   5.157   0.800   4.637
 5794TIP3    H217319   5.107   0.660   4.620
 5795TIP3   OH217320   5.183   0.708   5.035
 5795TIP3    H117321   5.221   0.682   5.120
 5795TIP3    H217322   5.138   0.627   5.007
 5796TIP3   OH217323   4.480   0.603   5.401
 5796TIP3    H117324   4.512   0.533   5.460
 5796TIP3    H217325   4.554   0.666   5.407
 5797TIP3   OH217326   5.430   1.013   4.723
 5797TIP3    H117327   5.413   0.947   4.792
 5797TIP3    H217328   5.457   1.090   4.775
 5798TIP3   OH217329   4.454   1.014   5.122
 5798TIP3    H117330   4.446   0.916   5.125
 5798TIP3    H217331   4.551   1.024   5.123
 5799TIP3   OH217332   4.147   0.226   4.926
 5799TIP3    H117333   4.095   0.308   4.938
 5799TIP3    H217334   4.087   0.176   4.868
 5800TIP3   OH217335   4.211   0.517   5.084
 5800TIP3    H117336   4.254   0.434   5.116
 5800TIP3    H217337   4.280   0.553   5.026
 5801TIP3   OH217338   5.079   1.476   4.736
 5801TIP3    H117339   5.123   1.401   4.690
 5801TIP3    H217340   5.064   1.438   4.824
 5802TIP3   OH217341   4.981   0.934   5.088
 5802TIP3    H117342   5.022   0.859   5.042
 5802TIP3    H217343   5.062   0.982   5.113
 5803TIP3   OH217344   5.400   0.440   5.126
 5803TIP3    H117345   5.408   0.351   5.162
 5803TIP3    H217346   5.364   0.427   5.037
 5804TIP3   OH217347   4.696   0.049   5.072
 5804TIP3    H117348   4.692   0.137   5.030
 5804TIP3    H217349   4.620   0.005   5.032
 5805TIP3   OH217350   5.386   0.209   4.745
 5805TIP3    H117351   5.453   0.166   4.802
 5805TIP3    H217352   5.434   0.212   4.660
 5806TIP3   OH217353   4.338   0.297   5.181
 5806TIP3    H117354   4.429   0.298   5.219
 5806TIP3    H217355   4.354   0.236   5.107
 5807TIP3   OH217356   4.800   0.497   4.980
 5807TIP3    H117357   4.895   0.475   4.989
 5807TIP3    H217358   4.761   0.408   4.962
 5808TIP3   OH217359   6.034   0.454   5.287
 5808TIP3    H117360   5.960   0.508   5.252
 5808TIP3    H217361   6.091   0.521   5.328
 5809TIP3   OH217362   5.080   0.933   4.520
 5809TIP3    H117363   5.032   0.914   4.438
 5809TIP3    H217364   5.032   1.013   4.550
 5810TIP3   OH217365   4.826   0.859   5.309
 5810TIP3    H117366   4.765   0.928   5.345
 5810TIP3    H217367   4.869   0.908   5.236
 5811TIP3   OH217368   4.591   0.262   5.253
 5811TIP3    H117369   4.664   0.302   5.304
 5811TIP3    H217370   4.632   0.177   5.229
 5812TIP3   OH217371   4.662   1.054   5.407
 5812TIP3    H117372   4.638   1.144   5.375
 5812TIP3    H217373   4.583   1.037   5.464
 5813TIP3   OH217374   4.055   0.740   4.646
 5813TIP3    H117375   4.015   0.765   4.561
 5813TIP3    H217376   4.085   0.827   4.680
 5814TIP3   OH217377   5.497   1.257   4.883
 5814TIP3    H117378   5.408   1.247   4.925
 5814TIP3    H217379   5.487   1.344   4.840
 5815TIP3   OH217380   5.198   1.299   4.559
 5815TIP3    H117381   5.249   1.218   4.539
 5815TIP3    H217382   5.258   1.366   4.518
 5816TIP3   OH217383   5.343   1.083   4.469
 5816TIP3    H117384   5.286   1.008   4.445
 5816TIP3    H217385   5.382   1.051   4.554
 5817TIP3   OH217386   5.723   1.167   5.230
 5817TIP3    H117387   5.708   1.090   5.172
 5817TIP3    H217388   5.702   1.242   5.170
 5818TIP3   OH217389   5.014   0.566   4.487
 5818TIP3    H117390   4.931   0.616   4.469
 5818TIP3    H217391   5.054   0.562   4.398
 5819TIP3   OH217392   4.970   0.345   4.205
 5819TIP3    H117393   5.042   0.396   4.247
 5819TIP3    H217394   5.021   0.279   4.155
 5820TIP3   OH217395   5.921   0.813   5.078
 5820TIP3    H117396   5.835   0.861   5.082
 5820TIP3    H217397   5.947   0.834   4.985
 5821TIP3   OH217398   5.360   0.646   4.456
 5821TIP3    H117399   5.304   0.670   4.534
 5821TIP3    H217400   5.445   0.625   4.501
 5822TIP3   OH217401   5.611   0.691   5.379
 5822TIP3    H117402   5.602   0.770   5.436
 5822TIP3    H217403   5.524   0.693   5.334
 5823TIP3   OH217404   4.592   0.641   4.875
 5823TIP3    H117405   4.552   0.582   4.807
 5823TIP3    H217406   4.669   0.588   4.905
 5824TIP3   OH217407   4.726   1.056   5.022
 5824TIP3    H117408   4.704   1.017   4.936
 5824TIP3    H217409   4.815   1.018   5.040
 5825TIP3   OH217410   4.740   0.607   5.235
 5825TIP3    H117411   4.765   0.586   5.143
 5825TIP3    H217412   4.774   0.698   5.247
 5826TIP3   OH217413   5.260   1.249   5.009
 5826TIP3    H117414   5.242   1.330   5.060
 5826TIP3    H217415   5.241   1.178   5.073
 5827TIP3   OH217416   4.868   1.166   5.554
 5827TIP3    H117417   4.809   1.230   5.600
 5827TIP3    H217418   4.801   1.116   5.504
 5828TIP3   OH217419   5.202   0.498   4.285
 5828TIP3    H117420   5.258   0.562   4.335
 5828TIP3    H217421   5.228   0.520   4.192
 5829TIP3   OH217422   4.617   0.732   5.653
 5829TIP3    H117423   4.622   0.818   5.699
 5829TIP3    H217424   4.523   0.709   5.671
 5830TIP3   OH217425   4.950   1.176   4.560
 5830TIP3    H117426   5.029   1.232   4.572
 5830TIP3    H217427   4.886   1.237   4.521
 5831TIP3   OH217428   4.665   1.332   5.642
 5831TIP3    H117429   4.626   1.339   5.553
 5831TIP3    H217430   4.586   1.308   5.697
 5832TIP3   OH217431   4.462   0.483   4.676
 5832TIP3    H117432   4.394   0.531   4.625
 5832TIP3    H217433   4.417   0.399   4.692
 5833TIP3   OH217434   5.517   1.109   3.882
 5833TIP3    H117435   5.523   1.206   3.869
 5833TIP3    H217436   5.610   1.082   3.868
 5834TIP3   OH217437   4.239   0.868   5.590
 5834TIP3    H117438   4.172   0.849   5.521
 5834TIP3    H217439   4.277   0.779   5.608
 5835TIP3   OH217440   4.096   1.062   5.222
 5835TIP3    H117441   4.193   1.060   5.216
 5835TIP3    H217442   4.082   1.141   5.276
 5836TIP3   OH217443   5.961   1.515   5.279
 5836TIP3    H117444   5.959   1.419   5.295
 5836TIP3    H217445   5.877   1.541   5.324
 5837TIP3   OH217446   5.066   1.292   5.411
 5837TIP3    H117447   5.065   1.385   5.443
 5837TIP3    H217448   4.994   1.254   5.466
 5838TIP3   OH217449   4.831   1.427   4.363
 5838TIP3    H117450   4.780   1.409   4.282
 5838TIP3    H217451   4.795   1.514   4.391
 5839TIP3   OH217452   4.266   1.275   4.749
 5839TIP3    H117453   4.312   1.267   4.835
 5839TIP3    H217454   4.211   1.194   4.749
 5840TIP3   OH217455   5.029   1.331   4.002
 5840TIP3    H117456   5.086   1.259   3.967
 5840TIP3    H217457   5.062   1.340   4.093
 5841TIP3   OH217458   5.081   1.377   4.271
 5841TIP3    H117459   4.992   1.388   4.311
 5841TIP3    H217460   5.130   1.339   4.346
 5842TIP3   OH217461   5.844   0.632   5.544
 5842TIP3    H117462   5.765   0.662   5.495
 5842TIP3    H217463   5.818   0.540   5.560
 5843TIP3   OH217464   4.445   1.049   5.570
 5843TIP3    H117465   4.491   1.042   5.656
 5843TIP3    H217466   4.370   0.987   5.581
 5844TIP3   OH217467   5.647   0.428   5.505
 5844TIP3    H117468   5.598   0.427   5.591
 5844TIP3    H217469   5.602   0.499   5.457
 5845TIP3   OH217470   5.284   0.537   4.030
 5845TIP3    H117471   5.242   0.520   3.943
 5845TIP3    H217472   5.359   0.593   4.004
 5846TIP3   OH217473   4.791   0.391   5.394
 5846TIP3    H117474   4.730   0.410   5.467
 5846TIP3    H217475   4.778   0.469   5.336
 5847TIP3   OH217476   4.664   0.266   4.906
 5847TIP3    H117477   4.568   0.251   4.916
 5847TIP3    H217478   4.677   0.240   4.812
 5848TIP3   OH217479   5.145   0.368   4.624
 5848TIP3    H117480   5.097   0.440   4.578
 5848TIP3    H217481   5.210   0.341   4.556
 5849TIP3   OH217482   5.323   0.705   5.710
 5849TIP3    H117483   5.280   0.617   5.701
 5849TIP3    H217484   5.413   0.672   5.726
 5850TIP3   OH217485   5.302   0.434   4.868
 5850TIP3    H117486   5.250   0.482   4.802
 5850TIP3    H217487   5.321   0.352   4.817
 5851TIP3   OH217488   4.598   0.424   5.591
 5851TIP3    H117489   4.614   0.489   5.661
 5851TIP3    H217490   4.582   0.342   5.641
 5852TIP3   OH217491   4.228   0.038   4.722
 5852TIP3    H117492   4.240   0.041   4.625
 5852TIP3    H217493   4.132   0.056   4.727
 5853TIP3   OH217494   5.352   0.661   5.271
 5853TIP3    H117495   5.383   0.586   5.215
 5853TIP3    H217496   5.296   0.610   5.334
 5854TIP3   OH217497   4.407   0.152   4.942
 5854TIP3    H117498   4.314   0.186   4.932
 5854TIP3    H217499   4.401   0.078   4.880
 5855TIP3   OH217500   4.702   0.172   4.654
 5855TIP3    H117501   4.791   0.161   4.617
 5855TIP3    H217502   4.645   0.165   4.574
 5856TIP3   OH217503   4.538   0.154   4.427
 5856TIP3    H117504   4.466   0.134   4.363
 5856TIP3    H217505   4.597   0.204   4.366
 5857TIP3   OH217506   5.655   1.862   5.379
 5857TIP3    H117507   5.650   1.888   5.285
 5857TIP3    H217508   5.732   1.912   5.410
 5858TIP3   OH217509   4.608   0.971   5.799
 5858TIP3    H117510   4.688   1.003   5.846
 5858TIP3    H217511   4.542   0.979   5.870
 5859TIP3   OH217512   5.066   0.437   5.031
 5859TIP3    H117513   5.140   0.402   4.979
 5859TIP3    H217514   5.074   0.389   5.115
 5860TIP3   OH217515   5.045   0.252   5.432
 5860TIP3    H117516   4.957   0.281   5.402
 5860TIP3    H217517   5.099   0.330   5.411
 5861TIP3   OH217518   4.784   0.712   4.437
 5861TIP3    H117519   4.710   0.649   4.425
 5861TIP3    H217520   4.764   0.747   4.528
 5862TIP3   OH217521   5.684   0.950   5.064
 5862TIP3    H117522   5.706   1.001   4.984
 5862TIP3    H217523   5.597   0.910   5.039
 5863TIP3   OH217524   5.220   0.096   4.258
 5863TIP3    H117525   5.158   0.047   4.316
 5863TIP3    H217526   5.256   0.162   4.322
 5864TIP3   OH217527   5.180   1.030   5.435
 5864TIP3    H117528   5.210   1.016   5.526
 5864TIP3    H217529   5.143   1.120   5.439
 5865TIP3   OH217530   5.320   0.290   4.422
 5865TIP3    H117531   5.418   0.303   4.428
 5865TIP3    H217532   5.293   0.366   4.367
 5866TIP3   OH217533   4.478   0.735   5.112
 5866TIP3    H117534   4.518   0.706   5.028
 5866TIP3    H217535   4.517   0.674   5.177
 5867TIP3   OH217536   4.930   0.864   4.263
 5867TIP3    H117537   4.881   0.950   4.266
 5867TIP3    H217538   4.874   0.809   4.322
 5868TIP3   OH217539   4.361   0.653   5.727
 5868TIP3    H117540   4.380   0.640   5.822
 5868TIP3    H217541   4.287   0.592   5.712
 5869TIP3   OH217542   5.065   0.786   5.753
 5869TIP3    H117543   5.010   0.720   5.707
 5869TIP3    H217544   5.155   0.763   5.722
 5870TIP3   OH217545   5.342   1.290   5.329
 5870TIP3    H117546   5.245   1.291   5.344
 5870TIP3    H217547   5.372   1.342   5.407
 5871TIP3   OH217548   5.753   0.363   4.226
 5871TIP3    H117549   5.693   0.313   4.166
 5871TIP3    H217550   5.738   0.454   4.189
 5872TIP3   OH217551   5.973   1.225   5.318
 5872TIP3    H117552   5.875   1.219   5.311
 5872TIP3    H217553   5.998   1.194   5.229
 5873TIP3   OH217554   5.462   1.184   4.151
 5873TIP3    H117555   5.425   1.120   4.214
 5873TIP3    H217556   5.465   1.134   4.068
 5874TIP3   OH217557   5.451   0.822   4.974
 5874TIP3    H117558   5.359   0.794   4.994
 5874TIP3    H217559   5.486   0.741   4.933
 5875TIP3   OH217560   4.578   1.040   4.735
 5875TIP3    H117561   4.575   1.123   4.682
 5875TIP3    H217562   4.485   1.026   4.754
 5876TIP3   OH217563   4.143   0.343   4.448
 5876TIP3    H117564   4.187   0.429   4.466
 5876TIP3    H217565   4.064   0.351   4.506
 5877TIP3   OH217566   4.712   0.805   4.681
 5877TIP3    H117567   4.677   0.895   4.698
 5877TIP3    H217568   4.675   0.755   4.756
 5878TIP3   OH217569   4.849   1.383   5.206
 5878TIP3    H117570   4.889   1.458   5.158
 5878TIP3    H217571   4.925   1.349   5.256
 5879TIP3   OH217572   4.497   1.279   4.590
 5879TIP3    H117573   4.410   1.288   4.636
 5879TIP3    H217574   4.528   1.372   4.594
 5880TIP3   OH217575   5.233   1.016   5.168
 5880TIP3    H117576   5.221   1.019   5.266
 5880TIP3    H217577   5.315   0.966   5.160
 5881TIP3   OH217578   5.211   0.913   4.047
 5881TIP3    H117579   5.263   0.887   4.127
 5881TIP3    H217580   5.122   0.885   4.074
 5882TIP3   OH217581   5.484   1.547   5.215
 5882TIP3    H117582   5.403   1.492   5.211
 5882TIP3    H217583   5.466   1.612   5.143
 5883TIP3   OH217584   5.548   1.385   3.867
 5883TIP3    H117585   5.578   1.457   3.810
 5883TIP3    H217586   5.469   1.428   3.906
 5884TIP3   OH217587   5.372   0.838   4.256
 5884TIP3    H117588   5.360   0.778   4.332
 5884TIP3    H217589   5.470   0.840   4.250
 5885TIP3   OH217590   4.285   1.248   5.365
 5885TIP3    H117591   4.341   1.182   5.410
 5885TIP3    H217592   4.304   1.328   5.417
 5886TIP3   OH217593   4.576   0.891   4.049
 5886TIP3    H117594   4.586   0.798   4.022
 5886TIP3    H217595   4.555   0.882   4.144
 5887TIP3   OH217596   4.520   0.897   4.319
 5887TIP3    H117597   4.590   0.872   4.382
 5887TIP3    H217598   4.521   0.995   4.327
 5888TIP3   OH217599   4.253   0.589   4.526
 5888TIP3    H117600   4.187   0.635   4.582
 5888TIP3    H217601   4.265   0.657   4.457
 5889TIP3   OH217602   4.788   1.094   4.269
 5889TIP3    H117603   4.700   1.117   4.305
 5889TIP3    H217604   4.801   1.170   4.210
 5890TIP3   OH217605   4.991   0.145   4.642
 5890TIP3    H117606   5.043   0.229   4.640
 5890TIP3    H217607   4.988   0.128   4.737
 5891TIP3   OH217608   5.183   0.492   5.405
 5891TIP3    H117609   5.113   0.560   5.416
 5891TIP3    H217610   5.205   0.474   5.501
 5892TIP3   OH217611   4.533   1.169   4.339
 5892TIP3    H117612   4.502   1.238   4.277
 5892TIP3    H217613   4.516   1.212   4.426
 5893TIP3   OH217614   5.546   0.578   4.861
 5893TIP3    H117615   5.465   0.527   4.879
 5893TIP3    H217616   5.614   0.527   4.911
 5894TIP3   OH217617   4.248   0.794   4.331
 5894TIP3    H117618   4.315   0.864   4.337
 5894TIP3    H217619   4.291   0.738   4.263
 5895TIP3   OH217620   4.186   0.071   4.454
 5895TIP3    H117621   4.187   0.169   4.447
 5895TIP3    H217622   4.098   0.049   4.422
 5896TIP3   OH217623   5.505   1.528   4.807
 5896TIP3    H117624   5.461   1.574   4.732
 5896TIP3    H217625   5.599   1.545   4.786
 5897TIP3   OH217626   4.113   1.009   4.712
 5897TIP3    H117627   4.053   1.042   4.781
 5897TIP3    H217628   4.079   1.056   4.632
 5898TIP3   OH217629   4.260   1.535   5.811
 5898TIP3    H117630   4.351   1.549   5.845
 5898TIP3    H217631   4.255   1.439   5.804
 5899TIP3   OH217632   4.758   1.507   5.843
 5899TIP3    H117633   4.852   1.488   5.841
 5899TIP3    H217634   4.727   1.458   5.764
 5900TIP3   OH217635   4.737   1.094   3.957
 5900TIP3    H117636   4.682   1.023   3.998
 5900TIP3    H217637   4.813   1.041   3.926
 5901TIP3   OH217638   5.404   1.424   5.558
 5901TIP3    H117639   5.391   1.358   5.631
 5901TIP3    H217640   5.475   1.480   5.595
 5902TIP3   OH217641   5.174   1.133   3.874
 5902TIP3    H117642   5.212   1.065   3.932
 5902TIP3    H217643   5.230   1.129   3.795
 5903TIP3   OH217644   4.405   0.961   5.990
 5903TIP3    H117645   4.421   0.865   5.992
 5903TIP3    H217646   4.319   0.967   5.944
 5904TIP3   OH217647   4.386   0.609   4.184
 5904TIP3    H117648   4.443   0.581   4.258
 5904TIP3    H217649   4.452   0.615   4.112
 5905TIP3   OH217650   5.014   1.058   5.762
 5905TIP3    H117651   4.968   1.077   5.677
 5905TIP3    H217652   5.034   0.962   5.754
 5906TIP3   OH217653   4.905   0.814   3.992
 5906TIP3    H117654   4.900   0.826   4.090
 5906TIP3    H217655   4.903   0.716   3.987
 5907TIP3   OH217656   5.507   1.059   5.372
 5907TIP3    H117657   5.581   1.105   5.328
 5907TIP3    H217658   5.435   1.124   5.358
 5908TIP3   OH217659   4.531   0.690   5.972
 5908TIP3    H117660   4.616   0.651   5.949
 5908TIP3    H217661   4.552   0.729   6.060
 5909TIP3   OH217662   4.589   0.519   4.403
 5909TIP3    H117663   4.564   0.481   4.489
 5909TIP3    H217664   4.625   0.441   4.356
 5910TIP3   OH217665   4.864   0.613   5.625
 5910TIP3    H117666   4.778   0.661   5.630
 5910TIP3    H217667   4.897   0.639   5.538
 5911TIP3   OH217668   4.692   0.308   4.252
 5911TIP3    H117669   4.664   0.315   4.158
 5911TIP3    H217670   4.789   0.314   4.242
 5912TIP3   OH217671   5.382   0.995   5.762
 5912TIP3    H117672   5.463   0.963   5.721
 5912TIP3    H217673   5.353   0.916   5.811
 5913TIP3   OH217674   5.516   0.638   3.907
 5913TIP3    H117675   5.492   0.596   3.822
 5913TIP3    H217676   5.483   0.729   3.888
 5914TIP3   OH217677   4.939   0.386   5.753
 5914TIP3    H117678   4.899   0.323   5.691
 5914TIP3    H217679   4.916   0.471   5.709
 5915TIP3   OH217680   5.026   0.715   5.417
 5915TIP3    H117681   5.098   0.765   5.372
 5915TIP3    H217682   4.950   0.771   5.390
 5916TIP3   OH217683   5.692   0.689   5.861
 5916TIP3    H117684   5.648   0.609   5.826
 5916TIP3    H217685   5.693   0.747   5.784
 5917TIP3   OH217686   5.637   0.912   5.558
 5917TIP3    H117687   5.577   0.965   5.500
 5917TIP3    H217688   5.723   0.935   5.516
 5918TIP3   OH217689   4.823   0.515   5.984
 5918TIP3    H117690   4.795   0.438   6.035
 5918TIP3    H217691   4.880   0.475   5.916
 5919TIP3   OH217692   5.220   0.454   5.668
 5919TIP3    H117693   5.305   0.428   5.711
 5919TIP3    H217694   5.153   0.411   5.723
 5920TIP3   OH217695   4.503   1.372   4.153
 5920TIP3    H117696   4.598   1.365   4.130
 5920TIP3    H217697   4.471   1.422   4.075
 5921TIP3   OH217698   3.979   0.752   4.368
 5921TIP3    H117699   4.073   0.774   4.351
 5921TIP3    H217700   3.972   0.665   4.323
 5922TIP3   OH217701   3.896   1.365   4.784
 5922TIP3    H117702   3.830   1.304   4.744
 5922TIP3    H217703   3.941   1.305   4.847
 5923TIP3   OH217704   4.033   1.210   4.967
 5923TIP3    H117705   4.019   1.142   5.036
 5923TIP3    H217706   4.083   1.276   5.019
 5924TIP3   OH217707   5.763   1.608   4.769
 5924TIP3    H117708   5.782   1.641   4.859
 5924TIP3    H217709   5.819   1.666   4.714
 5925TIP3   OH217710   5.787   1.635   5.049
 5925TIP3    H117711   5.741   1.548   5.046
 5925TIP3    H217712   5.858   1.613   5.111
 5926TIP3   OH217713   5.835   1.313   5.623
 5926TIP3    H117714   5.762   1.321   5.689
 5926TIP3    H217715   5.875   1.402   5.628
 5927TIP3   OH217716   5.652   0.824   4.239
 5927TIP3    H117717   5.718   0.892   4.213
 5927TIP3    H217718   5.694   0.788   4.320
 5928TIP3   OH217719   5.777   0.700   4.445
 5928TIP3    H117720   5.708   0.660   4.503
 5928TIP3    H217721   5.839   0.740   4.510
 5929TIP3   OH217722   5.836   1.090   4.880
 5929TIP3    H117723   5.887   1.022   4.831
 5929TIP3    H217724   5.827   1.161   4.813
 5930TIP3   OH217725   5.661   1.386   5.071
 5930TIP3    H117726   5.590   1.429   5.123
 5930TIP3    H217727   5.609   1.341   5.001
 5931TIP3   OH217728   5.709   0.600   4.091
 5931TIP3    H117729   5.639   0.609   4.022
 5931TIP3    H217730   5.685   0.676   4.148
 5932TIP3   OH217731   5.580   0.261   4.032
 5932TIP3    H117732   5.556   0.341   3.984
 5932TIP3    H217733   5.528   0.195   3.983
 5933TIP3   OH217734   5.590   0.566   4.587
 5933TIP3    H117735   5.592   0.470   4.567
 5933TIP3    H217736   5.580   0.569   4.685
 5934TIP3   OH217737   4.216   0.623   5.340
 5934TIP3    H117738   4.212   0.594   5.246
 5934TIP3    H217739   4.313   0.624   5.354
 5935TIP3   OH217740   5.879   0.977   5.448
 5935TIP3    H117741   5.950   0.909   5.436
 5935TIP3    H217742   5.905   1.046   5.384
 5936TIP3   OH217743   6.059   0.775   5.456
 5936TIP3    H117744   5.985   0.723   5.494
 5936TIP3    H217745   6.133   0.715   5.476
 5937TIP3   OH217746   5.592   0.314   4.460
 5937TIP3    H117747   5.621   0.234   4.511
 5937TIP3    H217748   5.655   0.314   4.386
 5938TIP3   OH217749   5.747   0.437   4.988
 5938TIP3    H117750   5.832   0.463   4.947
 5938TIP3    H217751   5.759   0.477   5.076
 5939TIP3   OH217752   5.814   0.593   5.208
 5939TIP3    H117753   5.741   0.626   5.266
 5939TIP3    H217754   5.845   0.676   5.167
 5940TIP3   OH217755   4.428   0.307   6.013
 5940TIP3    H117756   4.522   0.290   6.002
 5940TIP3    H217757   4.398   0.223   6.052
 5941TIP3   OH217758   4.193   0.274   5.417
 5941TIP3    H117759   4.239   0.279   5.330
 5941TIP3    H217760   4.219   0.358   5.456
 5942TIP3   OH217761   5.343   1.482   4.424
 5942TIP3    H117762   5.397   1.474   4.342
 5942TIP3    H217763   5.390   1.552   4.472
 5943TIP3   OH217764   4.447   1.271   5.803
 5943TIP3    H117765   4.352   1.255   5.795
 5943TIP3    H217766   4.455   1.303   5.894
 5944TIP3   OH217767   4.622   1.321   5.353
 5944TIP3    H117768   4.572   1.397   5.317
 5944TIP3    H217769   4.707   1.337   5.308
 5945TIP3   OH217770   5.069   1.554   5.489
 5945TIP3    H117771   5.107   1.558   5.580
 5945TIP3    H217772   5.131   1.613   5.441
 5946TIP3   OH217773   5.243   1.719   5.354
 5946TIP3    H117774   5.315   1.666   5.317
 5946TIP3    H217775   5.293   1.777   5.416
 5947TIP3   OH217776   4.300   1.578   5.388
 5947TIP3    H117777   4.207   1.606   5.369
 5947TIP3    H217778   4.320   1.634   5.465
 5948TIP3   OH217779   4.530   1.553   5.239
 5948TIP3    H117780   4.445   1.567   5.286
 5948TIP3    H217781   4.509   1.589   5.150
 5949TIP3   OH217782   4.959   1.583   5.035
 5949TIP3    H117783   4.886   1.602   4.973
 5949TIP3    H217784   4.969   1.670   5.080
 5950TIP3   OH217785   5.227   1.521   5.086
 5950TIP3    H117786   5.132   1.538   5.069
 5950TIP3    H217787   5.268   1.600   5.047
 5951TIP3   OH217788   5.437   1.715   5.002
 5951TIP3    H117789   5.420   1.799   4.954
 5951TIP3    H217790   5.459   1.654   4.928
 5952TIP3   OH217791   4.208   1.371   5.121
 5952TIP3    H117792   4.233   1.343   5.212
 5952TIP3    H217793   4.281   1.328   5.072
 5953TIP3   OH217794   4.404   1.243   4.982
 5953TIP3    H117795   4.418   1.159   5.032
 5953TIP3    H217796   4.495   1.279   4.981
 5954TIP3   OH217797   4.671   1.335   4.988
 5954TIP3    H117798   4.700   1.242   4.981
 5954TIP3    H217799   4.716   1.360   5.071
 5955TIP3   OH217800   3.995   1.148   4.511
 5955TIP3    H117801   3.909   1.116   4.479
 5955TIP3    H217802   3.987   1.241   4.485
 5956TIP3   OH217803   4.769   1.326   4.098
 5956TIP3    H117804   4.856   1.351   4.060
 5956TIP3    H217805   4.746   1.252   4.037
 5957TIP3   OH217806   5.493   1.452   4.191
 5957TIP3    H117807   5.485   1.354   4.180
 5957TIP3    H217808   5.442   1.483   4.113
 5958TIP3   OH217809   4.095   1.195   4.164
 5958TIP3    H117810   4.080   1.186   4.259
 5958TIP3    H217811   4.174   1.139   4.148
 5959TIP3   OH217812   5.713   1.592   5.374
 5959TIP3    H117813   5.633   1.561   5.328
 5959TIP3    H217814   5.692   1.687   5.384
 5960TIP3   OH217815   6.978   0.963   4.144
 5960TIP3    H117816   6.950   1.054   4.127
 5960TIP3    H217817   6.904   0.913   4.104
 5961TIP3   OH217818   6.969   0.968   4.531
 5961TIP3    H117819   7.010   0.947   4.618
 5961TIP3    H217820   6.933   0.881   4.506
 5962TIP3   OH217821   6.278   0.860   4.884
 5962TIP3    H117822   6.305   0.789   4.944
 5962TIP3    H217823   6.353   0.921   4.893
 5963TIP3   OH217824   7.222   1.270   4.212
 5963TIP3    H117825   7.216   1.204   4.283
 5963TIP3    H217826   7.255   1.348   4.260
 5964TIP3   OH217827   6.249   1.272   4.607
 5964TIP3    H117828   6.239   1.174   4.608
 5964TIP3    H217829   6.336   1.282   4.646
 5965TIP3   OH217830   5.948   0.489   4.411
 5965TIP3    H117831   5.889   0.566   4.423
 5965TIP3    H217832   5.891   0.430   4.359
 5966TIP3   OH217833   6.011   0.772   4.574
 5966TIP3    H117834   6.051   0.688   4.607
 5966TIP3    H217835   6.069   0.793   4.500
 5967TIP3   OH217836   6.872   1.728   4.221
 5967TIP3    H117837   6.915   1.654   4.174
 5967TIP3    H217838   6.869   1.696   4.312
 5968TIP3   OH217839   6.781   1.190   4.571
 5968TIP3    H117840   6.826   1.110   4.539
 5968TIP3    H217841   6.861   1.241   4.597
 5969TIP3   OH217842   7.196   0.691   4.621
 5969TIP3    H117843   7.218   0.599   4.644
 5969TIP3    H217844   7.158   0.682   4.531
 5970TIP3   OH217845   6.527   0.312   4.526
 5970TIP3    H117846   6.495   0.403   4.507
 5970TIP3    H217847   6.442   0.264   4.531
 5971TIP3   OH217848   7.186   0.470   4.250
 5971TIP3    H117849   7.243   0.424   4.315
 5971TIP3    H217850   7.243   0.461   4.171
 5972TIP3   OH217851   6.141   0.555   4.669
 5972TIP3    H117852   6.234   0.556   4.701
 5972TIP3    H217853   6.151   0.491   4.596
 5973TIP3   OH217854   6.597   0.759   4.471
 5973TIP3    H117855   6.690   0.731   4.488
 5973TIP3    H217856   6.555   0.673   4.449
 5974TIP3   OH217857   7.866   0.799   4.782
 5974TIP3    H117858   7.783   0.795   4.731
 5974TIP3    H217859   7.901   0.709   4.761
 5975TIP3   OH217860   6.851   1.180   4.015
 5975TIP3    H117861   6.833   1.175   3.920
 5975TIP3    H217862   6.824   1.272   4.036
 5976TIP3   OH217863   6.634   1.111   4.799
 5976TIP3    H117864   6.572   1.178   4.836
 5976TIP3    H217865   6.679   1.163   4.729
 5977TIP3   OH217866   6.399   0.518   4.733
 5977TIP3    H117867   6.467   0.568   4.780
 5977TIP3    H217868   6.417   0.428   4.769
 5978TIP3   OH217869   6.459   1.308   4.889
 5978TIP3    H117870   6.436   1.400   4.864
 5978TIP3    H217871   6.382   1.289   4.948
 5979TIP3   OH217872   5.854   0.997   4.132
 5979TIP3    H117873   5.804   1.026   4.053
 5979TIP3    H217874   5.881   1.084   4.169
 5980TIP3   OH217875   7.287   1.511   4.366
 5980TIP3    H117876   7.198   1.506   4.407
 5980TIP3    H217877   7.284   1.600   4.326
 5981TIP3   OH217878   6.984   1.551   4.039
 5981TIP3    H117879   7.039   1.471   4.019
 5981TIP3    H217880   7.045   1.620   4.004
 5982TIP3   OH217881   7.129   1.335   3.961
 5982TIP3    H117882   7.110   1.250   3.919
 5982TIP3    H217883   7.172   1.308   4.045
 5983TIP3   OH217884   7.518   1.422   4.720
 5983TIP3    H117885   7.507   1.346   4.658
 5983TIP3    H217886   7.500   1.498   4.660
 5984TIP3   OH217887   6.811   0.824   3.970
 5984TIP3    H117888   6.727   0.871   3.952
 5984TIP3    H217889   6.850   0.816   3.881
 5985TIP3   OH217890   6.766   0.600   3.697
 5985TIP3    H117891   6.843   0.642   3.740
 5985TIP3    H217892   6.811   0.529   3.647
 5986TIP3   OH217893   7.701   1.043   4.553
 5986TIP3    H117894   7.624   1.104   4.563
 5986TIP3    H217895   7.737   1.076   4.468
 5987TIP3   OH217896   7.158   0.899   3.950
 5987TIP3    H117897   7.105   0.922   4.030
 5987TIP3    H217898   7.243   0.875   3.993
 5988TIP3   OH217899   7.385   0.940   4.864
 5988TIP3    H117900   7.388   1.023   4.915
 5988TIP3    H217901   7.300   0.951   4.817
 5989TIP3   OH217902   6.407   0.911   4.336
 5989TIP3    H117903   6.356   0.842   4.287
 5989TIP3    H217904   6.475   0.855   4.381
 5990TIP3   OH217905   6.540   1.312   4.490
 5990TIP3    H117906   6.498   1.226   4.486
 5990TIP3    H217907   6.630   1.288   4.519
 5991TIP3   OH217908   6.536   0.863   4.724
 5991TIP3    H117909   6.563   0.839   4.633
 5991TIP3    H217910   6.576   0.952   4.737
 5992TIP3   OH217911   7.047   1.507   4.493
 5992TIP3    H117912   7.037   1.589   4.544
 5992TIP3    H217913   7.035   1.437   4.560
 5993TIP3   OH217914   6.664   1.423   5.043
 5993TIP3    H117915   6.604   1.486   5.089
 5993TIP3    H217916   6.599   1.371   4.992
 5994TIP3   OH217917   7.004   0.769   3.768
 5994TIP3    H117918   7.062   0.818   3.831
 5994TIP3    H217919   7.008   0.828   3.691
 5995TIP3   OH217920   6.411   0.990   5.136
 5995TIP3    H117921   6.417   1.075   5.186
 5995TIP3    H217922   6.319   0.965   5.157
 5996TIP3   OH217923   6.728   1.444   4.044
 5996TIP3    H117924   6.816   1.483   4.060
 5996TIP3    H217925   6.683   1.520   4.003
 5997TIP3   OH217926   6.459   1.589   5.130
 5997TIP3    H117927   6.422   1.594   5.040
 5997TIP3    H217928   6.379   1.569   5.184
 5998TIP3   OH217929   6.257   0.743   4.165
 5998TIP3    H117930   6.183   0.783   4.114
 5998TIP3    H217931   6.223   0.655   4.183
 5999TIP3   OH217932   7.308   1.362   3.373
 5999TIP3    H117933   7.316   1.459   3.356
 5999TIP3    H217934   7.401   1.333   3.360
 6000TIP3   OH217935   6.039   1.125   5.075
 6000TIP3    H117936   5.968   1.107   5.010
 6000TIP3    H217937   6.073   1.035   5.094
 6001TIP3   OH217938   5.889   1.321   4.704
 6001TIP3    H117939   5.986   1.324   4.705
 6001TIP3    H217940   5.867   1.399   4.758
 6002TIP3   OH217941   7.761   1.773   4.772
 6002TIP3    H117942   7.758   1.676   4.783
 6002TIP3    H217943   7.675   1.798   4.811
 6003TIP3   OH217944   6.860   1.554   4.899
 6003TIP3    H117945   6.858   1.647   4.931
 6003TIP3    H217946   6.789   1.514   4.954
 6004TIP3   OH217947   6.621   1.674   3.857
 6004TIP3    H117948   6.584   1.667   3.767
 6004TIP3    H217949   6.592   1.763   3.883
 6005TIP3   OH217950   6.065   1.530   4.232
 6005TIP3    H117951   6.111   1.522   4.319
 6005TIP3    H217952   6.003   1.455   4.237
 6006TIP3   OH217953   6.825   1.583   3.488
 6006TIP3    H117954   6.885   1.514   3.452
 6006TIP3    H217955   6.863   1.595   3.578
 6007TIP3   OH217956   6.875   1.635   3.759
 6007TIP3    H117957   6.788   1.641   3.804
 6007TIP3    H217958   6.933   1.609   3.832
 6008TIP3   OH217959   7.646   0.889   5.043
 6008TIP3    H117960   7.573   0.914   4.984
 6008TIP3    H217961   7.676   0.806   5.004
 6009TIP3   OH217962   6.244   1.306   5.057
 6009TIP3    H117963   6.291   1.294   5.142
 6009TIP3    H217964   6.169   1.244   5.067
 6010TIP3   OH217965   7.393   0.700   5.017
 6010TIP3    H117966   7.474   0.652   4.994
 6010TIP3    H217967   7.387   0.762   4.941
 6011TIP3   OH217968   6.591   0.653   4.886
 6011TIP3    H117969   6.528   0.668   4.959
 6011TIP3    H217970   6.575   0.732   4.829
 6012TIP3   OH217971   6.450   0.542   4.386
 6012TIP3    H117972   6.359   0.509   4.401
 6012TIP3    H217973   6.469   0.506   4.296
 6013TIP3   OH217974   6.939   0.626   4.115
 6013TIP3    H117975   6.892   0.696   4.065
 6013TIP3    H217976   7.007   0.597   4.051
 6014TIP3   OH217977   7.161   0.900   5.179
 6014TIP3    H117978   7.093   0.859   5.235
 6014TIP3    H217979   7.174   0.987   5.225
 6015TIP3   OH217980   7.084   0.688   4.370
 6015TIP3    H117981   7.028   0.730   4.302
 6015TIP3    H217982   7.110   0.607   4.320
 6016TIP3   OH217983   6.393   0.680   5.077
 6016TIP3    H117984   6.397   0.744   5.150
 6016TIP3    H217985   6.372   0.597   5.123
 6017TIP3   OH217986   6.025   0.292   4.212
 6017TIP3    H117987   6.040   0.285   4.116
 6017TIP3    H217988   5.929   0.310   4.212
 6018TIP3   OH217989   7.104   0.896   4.768
 6018TIP3    H117990   7.146   0.827   4.711
 6018TIP3    H217991   7.083   0.841   4.846
 6019TIP3   OH217992   6.206   0.410   4.430
 6019TIP3    H117993   6.114   0.443   4.416
 6019TIP3    H217994   6.200   0.327   4.380
 6020TIP3   OH217995   6.499   0.436   4.140
 6020TIP3    H117996   6.588   0.415   4.107
 6020TIP3    H217997   6.443   0.423   4.060
 6021TIP3   OH217998   6.334   0.414   3.914
 6021TIP3    H117999   6.259   0.395   3.854
 6021TIP3    H218000   6.393   0.460   3.851
 6022TIP3   OH218001   7.450   2.120   4.866
 6022TIP3    H118002   7.447   2.143   4.771
 6022TIP3    H218003   7.530   2.168   4.894
 6023TIP3   OH218004   6.404   1.231   5.283
 6023TIP3    H118005   6.483   1.261   5.333
 6023TIP3    H218006   6.338   1.229   5.355
 6024TIP3   OH218007   6.854   0.690   4.538
 6024TIP3    H118008   6.937   0.655   4.501
 6024TIP3    H218009   6.856   0.654   4.630
 6025TIP3   OH218010   6.857   0.614   4.796
 6025TIP3    H118011   6.768   0.605   4.835
 6025TIP3    H218012   6.907   0.661   4.865
 6026TIP3   OH218013   6.576   0.972   3.926
 6026TIP3    H118014   6.508   0.902   3.908
 6026TIP3    H218015   6.545   1.006   4.011
 6027TIP3   OH218016   7.478   1.208   4.551
 6027TIP3    H118017   7.506   1.258   4.471
 6027TIP3    H218018   7.394   1.168   4.522
 6028TIP3   OH218019   7.009   0.357   3.748
 6028TIP3    H118020   6.949   0.302   3.803
 6028TIP3    H218021   7.044   0.418   3.816
 6029TIP3   OH218022   6.971   1.287   4.924
 6029TIP3    H118023   7.013   1.280   5.011
 6029TIP3    H218024   6.939   1.379   4.924
 6030TIP3   OH218025   7.112   0.550   3.911
 6030TIP3    H118026   7.210   0.553   3.918
 6030TIP3    H218027   7.094   0.624   3.851
 6031TIP3   OH218028   6.287   0.999   4.598
 6031TIP3    H118029   6.320   0.958   4.516
 6031TIP3    H218030   6.310   0.933   4.666
 6032TIP3   OH218031   6.718   1.130   3.753
 6032TIP3    H118032   6.661   1.209   3.764
 6032TIP3    H218033   6.671   1.066   3.811
 6033TIP3   OH218034   6.158   0.907   5.212
 6033TIP3    H118035   6.170   0.894   5.308
 6033TIP3    H218036   6.081   0.849   5.194
 6034TIP3   OH218037   6.882   1.021   5.232
 6034TIP3    H118038   6.805   0.971   5.199
 6034TIP3    H218039   6.942   1.015   5.156
 6035TIP3   OH218040   7.136   1.542   4.823
 6035TIP3    H118041   7.040   1.549   4.834
 6035TIP3    H218042   7.167   1.598   4.897
 6036TIP3   OH218043   7.563   0.624   3.711
 6036TIP3    H118044   7.502   0.563   3.668
 6036TIP3    H218045   7.538   0.709   3.669
 6037TIP3   OH218046   7.769   1.483   4.805
 6037TIP3    H118047   7.672   1.474   4.794
 6037TIP3    H218048   7.799   1.455   4.715
 6038TIP3   OH218049   7.236   1.442   3.631
 6038TIP3    H118050   7.231   1.370   3.695
 6038TIP3    H218051   7.260   1.398   3.548
 6039TIP3   OH218052   7.242   1.075   4.464
 6039TIP3    H118053   7.150   1.048   4.478
 6039TIP3    H218054   7.279   0.995   4.422
 6040TIP3   OH218055   5.936   0.600   3.936
 6040TIP3    H118056   5.980   0.686   3.956
 6040TIP3    H218057   5.858   0.605   3.995
 6041TIP3   OH218058   6.472   1.130   4.163
 6041TIP3    H118059   6.553   1.142   4.218
 6041TIP3    H218060   6.432   1.055   4.214
 6042TIP3   OH218061   6.647   1.639   4.691
 6042TIP3    H118062   6.687   1.713   4.641
 6042TIP3    H218063   6.723   1.607   4.742
 6043TIP3   OH218064   6.305   1.506   4.086
 6043TIP3    H118065   6.216   1.523   4.126
 6043TIP3    H218066   6.330   1.603   4.077
 6044TIP3   OH218067   7.027   1.275   4.655
 6044TIP3    H118068   7.017   1.273   4.753
 6044TIP3    H218069   7.112   1.230   4.644
 6045TIP3   OH218070   7.007   1.157   3.539
 6045TIP3    H118071   7.059   1.137   3.620
 6045TIP3    H218072   6.916   1.146   3.571
 6046TIP3   OH218073   7.278   1.806   4.701
 6046TIP3    H118074   7.196   1.754   4.691
 6046TIP3    H218075   7.267   1.873   4.629
 6047TIP3   OH218076   7.341   1.642   3.354
 6047TIP3    H118077   7.381   1.718   3.308
 6047TIP3    H218078   7.261   1.686   3.388
 6048TIP3   OH218079   7.166   1.091   3.754
 6048TIP3    H118080   7.164   1.028   3.829
 6048TIP3    H218081   7.263   1.095   3.738
 6049TIP3   OH218082   6.086   1.500   4.849
 6049TIP3    H118083   6.136   1.432   4.897
 6049TIP3    H218084   6.099   1.577   4.906
 6050TIP3   OH218085   6.384   1.140   3.537
 6050TIP3    H118086   6.390   1.058   3.484
 6050TIP3    H218087   6.358   1.104   3.622
 6051TIP3   OH218088   6.051   0.849   4.013
 6051TIP3    H118089   5.982   0.891   4.069
 6051TIP3    H218090   6.064   0.920   3.947
 6052TIP3   OH218091   6.553   1.355   3.771
 6052TIP3    H118092   6.501   1.436   3.780
 6052TIP3    H218093   6.599   1.378   3.688
 6053TIP3   OH218094   6.787   0.398   4.129
 6053TIP3    H118095   6.837   0.483   4.133
 6053TIP3    H218096   6.786   0.372   4.223
 6054TIP3   OH218097   7.048   0.723   4.975
 6054TIP3    H118098   7.048   0.775   5.057
 6054TIP3    H218099   7.072   0.634   5.008
 6055TIP3   OH218100   7.327   0.836   4.347
 6055TIP3    H118101   7.251   0.779   4.370
 6055TIP3    H218102   7.402   0.791   4.393
 6056TIP3   OH218103   6.048   1.059   3.818
 6056TIP3    H118104   6.055   1.146   3.776
 6056TIP3    H218105   6.098   1.003   3.754
 6057TIP3   OH218106   5.992   0.328   3.933
 6057TIP3    H118107   5.980   0.426   3.933
 6057TIP3    H218108   5.903   0.295   3.919
 6058TIP3   OH218109   7.300   1.782   4.293
 6058TIP3    H118110   7.259   1.828   4.217
 6058TIP3    H218111   7.394   1.805   4.278
 6059TIP3   OH218112   5.905   1.262   4.199
 6059TIP3    H118113   5.851   1.296   4.273
 6059TIP3    H218114   5.867   1.312   4.123
 6060TIP3   OH218115   6.075   1.818   5.273
 6060TIP3    H118116   6.160   1.818   5.322
 6060TIP3    H218117   6.052   1.723   5.275
 6061TIP3   OH218118   6.551   1.772   5.321
 6061TIP3    H118119   6.646   1.757   5.326
 6061TIP3    H218120   6.526   1.710   5.249
 6062TIP3   OH218121   6.541   1.350   3.454
 6062TIP3    H118122   6.486   1.274   3.486
 6062TIP3    H218123   6.610   1.303   3.404
 6063TIP3   OH218124   7.190   1.682   5.054
 6063TIP3    H118125   7.187   1.612   5.123
 6063TIP3    H218126   7.269   1.734   5.082
 6064TIP3   OH218127   6.971   1.388   3.356
 6064TIP3    H118128   7.028   1.335   3.414
 6064TIP3    H218129   7.024   1.391   3.273
 6065TIP3   OH218130   6.203   1.220   5.474
 6065TIP3    H118131   6.217   1.124   5.482
 6065TIP3    H218132   6.115   1.224   5.430
 6066TIP3   OH218133   6.188   0.880   3.672
 6066TIP3    H118134   6.235   0.827   3.739
 6066TIP3    H218135   6.251   0.873   3.597
 6067TIP3   OH218136   6.812   1.305   5.249
 6067TIP3    H118137   6.768   1.325   5.164
 6067TIP3    H218138   6.841   1.213   5.239
 6068TIP3   OH218139   6.696   1.067   3.481
 6068TIP3    H118140   6.693   1.081   3.578
 6068TIP3    H218141   6.702   0.969   3.476
 6069TIP3   OH218142   7.300   1.317   4.855
 6069TIP3    H118143   7.378   1.357   4.812
 6069TIP3    H218144   7.234   1.388   4.841
 6070TIP3   OH218145   6.327   0.955   5.459
 6070TIP3    H118146   6.405   0.901   5.442
 6070TIP3    H218147   6.347   0.989   5.548
 6071TIP3   OH218148   6.389   0.775   3.894
 6071TIP3    H118149   6.359   0.733   3.976
 6071TIP3    H218150   6.423   0.697   3.843
 6072TIP3   OH218151   6.663   0.874   5.124
 6072TIP3    H118152   6.575   0.918   5.119
 6072TIP3    H218153   6.702   0.896   5.036
 6073TIP3   OH218154   6.485   0.570   3.737
 6073TIP3    H118155   6.459   0.571   3.642
 6073TIP3    H218156   6.583   0.570   3.728
 6074TIP3   OH218157   7.169   1.224   5.246
 6074TIP3    H118158   7.259   1.227   5.211
 6074TIP3    H218159   7.182   1.175   5.329
 6075TIP3   OH218160   6.746   0.643   5.237
 6075TIP3    H118161   6.693   0.582   5.181
 6075TIP3    H218162   6.717   0.730   5.199
 6076TIP3   OH218163   6.828   0.958   4.922
 6076TIP3    H118164   6.905   0.963   4.863
 6076TIP3    H218165   6.765   1.019   4.878
 6077TIP3   OH218166   7.428   0.872   5.270
 6077TIP3    H118167   7.447   0.852   5.365
 6077TIP3    H218168   7.489   0.944   5.251
 6078TIP3   OH218169   7.432   1.166   5.037
 6078TIP3    H118170   7.374   1.223   4.980
 6078TIP3    H218171   7.520   1.189   4.998
 6079TIP3   OH218172   6.628   0.772   5.466
 6079TIP3    H118173   6.579   0.704   5.515
 6079TIP3    H218174   6.679   0.720   5.401
 6080TIP3   OH218175   7.020   0.701   5.278
 6080TIP3    H118176   7.039   0.669   5.369
 6080TIP3    H218177   6.924   0.684   5.274
 6081TIP3   OH218178   6.297   1.615   3.629
 6081TIP3    H118179   6.393   1.617   3.617
 6081TIP3    H218180   6.269   1.674   3.557
 6082TIP3   OH218181   5.777   1.011   3.845
 6082TIP3    H118182   5.873   1.026   3.840
 6082TIP3    H218183   5.769   0.921   3.805
 6083TIP3   OH218184   5.697   1.620   4.268
 6083TIP3    H118185   5.628   1.562   4.230
 6083TIP3    H218186   5.738   1.559   4.332
 6084TIP3   OH218187   5.833   1.464   4.451
 6084TIP3    H118188   5.815   1.398   4.521
 6084TIP3    H218189   5.881   1.531   4.504
 6085TIP3   OH218190   7.550   1.877   4.257
 6085TIP3    H118191   7.579   1.932   4.331
 6085TIP3    H218192   7.620   1.896   4.191
 6086TIP3   OH218193   7.574   1.897   4.547
 6086TIP3    H118194   7.539   1.806   4.537
 6086TIP3    H218195   7.665   1.879   4.572
 6087TIP3   OH218196   7.629   1.568   5.111
 6087TIP3    H118197   7.557   1.579   5.177
 6087TIP3    H218198   7.670   1.657   5.113
 6088TIP3   OH218199   7.444   1.081   3.725
 6088TIP3    H118200   7.511   1.146   3.692
 6088TIP3    H218201   7.490   1.051   3.807
 6089TIP3   OH218202   7.567   0.963   3.936
 6089TIP3    H118203   7.503   0.919   3.995
 6089TIP3    H218204   7.632   1.000   4.000
 6090TIP3   OH218205   7.625   1.344   4.362
 6090TIP3    H118206   7.684   1.281   4.316
 6090TIP3    H218207   7.628   1.422   4.303
 6091TIP3   OH218208   7.456   1.638   4.560
 6091TIP3    H118209   7.386   1.686   4.608
 6091TIP3    H218210   7.406   1.595   4.487
 6092TIP3   OH218211   7.487   0.858   3.572
 6092TIP3    H118212   7.442   0.903   3.499
 6092TIP3    H218213   7.476   0.926   3.642
 6093TIP3   OH218214   7.385   0.818   4.078
 6093TIP3    H118215   7.393   0.722   4.066
 6093TIP3    H218216   7.372   0.826   4.175
 6094TIP3   OH218217   6.012   0.881   4.826
 6094TIP3    H118218   6.008   0.850   4.733
 6094TIP3    H218219   6.109   0.881   4.841
 6095TIP3   OH218220   7.676   1.230   4.933
 6095TIP3    H118221   7.752   1.167   4.929
 6095TIP3    H218222   7.704   1.298   4.869
 6096TIP3   OH218223   7.862   1.040   4.982
 6096TIP3    H118224   7.786   0.982   5.001
 6096TIP3    H218225   7.934   0.974   4.981
 6097TIP3   OH218226   7.385   0.559   3.933
 6097TIP3    H118227   7.407   0.484   3.993
 6097TIP3    H218228   7.467   0.567   3.880
 6098TIP3   OH218229   7.539   0.712   4.459
 6098TIP3    H118230   7.624   0.733   4.416
 6098TIP3    H218231   7.561   0.732   4.552
 6099TIP3   OH218232   7.595   0.839   4.703
 6099TIP3    H118233   7.517   0.880   4.744
 6099TIP3    H218234   7.635   0.914   4.655
 6100TIP3   OH218235   6.226   0.564   5.497
 6100TIP3    H118236   6.320   0.544   5.503
 6100TIP3    H218237   6.187   0.486   5.539
 6101TIP3   OH218238   5.988   0.532   4.901
 6101TIP3    H118239   6.037   0.536   4.816
 6101TIP3    H218240   6.015   0.615   4.943
 6102TIP3   OH218241   7.131   1.737   3.910
 6102TIP3    H118242   7.187   1.730   3.830
 6102TIP3    H218243   7.181   1.803   3.963
 6103TIP3   OH218244   6.239   1.541   5.293
 6103TIP3    H118245   6.144   1.522   5.279
 6103TIP3    H218246   6.247   1.527   5.389
 6104TIP3   OH218247   6.421   1.577   4.841
 6104TIP3    H118248   6.369   1.652   4.804
 6104TIP3    H218249   6.506   1.596   4.795
 6105TIP3   OH218250   6.858   1.820   4.977
 6105TIP3    H118251   6.899   1.820   5.067
 6105TIP3    H218252   6.925   1.872   4.927
 6106TIP3   OH218253   7.039   1.974   4.841
 6106TIP3    H118254   7.112   1.926   4.799
 6106TIP3    H218255   7.090   2.033   4.902
 6107TIP3   OH218256   6.093   1.833   4.869
 6107TIP3    H118257   6.002   1.863   4.846
 6107TIP3    H218258   6.106   1.880   4.952
 6108TIP3   OH218259   6.328   1.811   4.726
 6108TIP3    H118260   6.241   1.823   4.771
 6108TIP3    H218261   6.308   1.845   4.636
 6109TIP3   OH218262   6.755   1.840   4.523
 6109TIP3    H118263   6.684   1.859   4.459
 6109TIP3    H218264   6.768   1.927   4.565
 6110TIP3   OH218265   7.025   1.775   4.574
 6110TIP3    H118266   6.932   1.798   4.556
 6110TIP3    H218267   7.072   1.850   4.532
 6111TIP3   OH218268   7.221   1.967   4.486
 6111TIP3    H118269   7.212   2.053   4.440
 6111TIP3    H218270   7.255   1.910   4.413
 6112TIP3   OH218271   6.005   1.629   4.608
 6112TIP3    H118272   6.029   1.599   4.698
 6112TIP3    H218273   6.078   1.585   4.558
 6113TIP3   OH218274   6.200   1.501   4.468
 6113TIP3    H118275   6.213   1.416   4.516
 6113TIP3    H218276   6.292   1.537   4.468
 6114TIP3   OH218277   6.467   1.587   4.476
 6114TIP3    H118278   6.500   1.495   4.468
 6114TIP3    H218279   6.515   1.616   4.556
 6115TIP3   OH218280   5.793   1.403   3.996
 6115TIP3    H118281   5.706   1.373   3.965
 6115TIP3    H218282   5.786   1.498   3.971
 6116TIP3   OH218283   6.568   1.588   3.588
 6116TIP3    H118284   6.656   1.610   3.550
 6116TIP3    H218285   6.545   1.514   3.528
 6117TIP3   OH218286   7.280   1.707   3.679
 6117TIP3    H118287   7.269   1.610   3.664
 6117TIP3    H218288   7.238   1.742   3.598
 6118TIP3   OH218289   5.868   1.424   3.637
 6118TIP3    H118290   5.864   1.455   3.728
 6118TIP3    H218291   5.956   1.380   3.632
 6119TIP3   OH218292   7.507   1.849   4.867
 6119TIP3    H118293   7.431   1.820   4.812
 6119TIP3    H218294   7.491   1.945   4.869
 6120TIP3   OH218295   8.027   1.507   4.138
 6120TIP3    H118296   7.993   1.438   4.080
 6120TIP3    H218297   8.121   1.510   4.110
 6121TIP3   OH218298   7.755   0.761   3.909
 6121TIP3    H118299   7.684   0.828   3.904
 6121TIP3    H218300   7.718   0.689   3.856
 6122TIP3   OH218301   7.821   1.019   4.061
 6122TIP3    H118302   7.837   0.922   4.064
 6122TIP3    H218303   7.874   1.045   3.985
 6123TIP3   OH218304   7.641   1.245   3.618
 6123TIP3    H118305   7.605   1.278   3.534
 6123TIP3    H218306   7.667   1.331   3.660
 6124TIP3   OH218307   8.222   1.866   4.581
 6124TIP3    H118308   8.184   1.892   4.494
 6124TIP3    H218309   8.143   1.868   4.639
 6125TIP3   OH218310   7.839   1.386   4.560
 6125TIP3    H118311   7.770   1.359   4.497
 6125TIP3    H218312   7.869   1.300   4.598
 6126TIP3   OH218313   7.693   1.573   4.202
 6126TIP3    H118314   7.790   1.576   4.196
 6126TIP3    H218315   7.677   1.654   4.253
 6127TIP3   OH218316   7.819   1.776   3.717
 6127TIP3    H118317   7.907   1.793   3.754
 6127TIP3    H218318   7.773   1.741   3.796
 6128TIP3   OH218319   8.049   1.563   4.530
 6128TIP3    H118320   8.098   1.537   4.611
 6128TIP3    H218321   7.970   1.505   4.538
 6129TIP3   OH218322   7.825   0.528   3.679
 6129TIP3    H118323   7.841   0.556   3.586
 6129TIP3    H218324   7.735   0.563   3.694
 6130TIP3   OH218325   8.186   1.477   4.753
 6130TIP3    H118326   8.258   1.537   4.782
 6130TIP3    H218327   8.136   1.466   4.835
 6131TIP3   OH218328   7.923   1.174   4.710
 6131TIP3    H118329   7.977   1.171   4.791
 6131TIP3    H218330   7.884   1.085   4.707
 6132TIP3   OH218331   7.720   0.843   3.412
 6132TIP3    H118332   7.770   0.927   3.429
 6132TIP3    H218333   7.649   0.855   3.478
 6133TIP3   OH218334   7.870   1.760   4.353
 6133TIP3    H118335   7.937   1.703   4.395
 6133TIP3    H218336   7.896   1.850   4.381
 6134TIP3   OH218337   7.817   1.084   3.480
 6134TIP3    H118338   7.767   1.137   3.545
 6134TIP3    H218339   7.850   1.153   3.420
 6135TIP3   OH218340   7.830   1.297   3.288
 6135TIP3    H118341   7.900   1.359   3.317
 6135TIP3    H218342   7.854   1.287   3.192
 6136TIP3   OH218343   7.802   0.586   3.412
 6136TIP3    H118344   7.783   0.683   3.410
 6136TIP3    H218345   7.715   0.547   3.397
 6137TIP3   OH218346   7.692   1.498   3.696
 6137TIP3    H118347   7.646   1.554   3.760
 6137TIP3    H218348   7.712   1.564   3.627
 6138TIP3   OH218349   7.869   2.067   4.766
 6138TIP3    H118350   7.956   2.056   4.808
 6138TIP3    H218351   7.839   1.974   4.760
 6139TIP3   OH218352   7.994   1.473   4.966
 6139TIP3    H118353   8.014   1.377   4.963
 6139TIP3    H218354   7.910   1.477   4.915
 6140TIP3   OH218355   8.108   1.217   4.942
 6140TIP3    H118356   8.175   1.151   4.922
 6140TIP3    H218357   8.135   1.245   5.032
 6141TIP3   OH218358   7.564   1.261   3.338
 6141TIP3    H118359   7.659   1.280   3.324
 6141TIP3    H218360   7.558   1.170   3.301
 6142TIP3   OH218361   7.485   1.876   3.760
 6142TIP3    H118362   7.419   1.814   3.722
 6142TIP3    H218363   7.536   1.817   3.818
 6143TIP3   OH218364   7.635   1.716   3.930
 6143TIP3    H118365   7.619   1.652   4.002
 6143TIP3    H218366   7.679   1.787   3.983
 6144TIP3   OH218367   7.813   1.145   4.308
 6144TIP3    H118368   7.805   1.098   4.222
 6144TIP3    H218369   7.909   1.159   4.313
 6145TIP3   OH218370   8.045   0.835   5.035
 6145TIP3    H118371   8.113   0.807   4.973
 6145TIP3    H218372   7.997   0.751   5.048
 6146TIP3   OH218373   7.785   0.801   4.359
 6146TIP3    H118374   7.851   0.730   4.362
 6146TIP3    H218375   7.817   0.862   4.427
 6147TIP3   OH218376   8.037   1.806   4.788
 6147TIP3    H118377   7.947   1.781   4.760
 6147TIP3    H218378   8.036   1.775   4.880
 6148TIP3   OH218379   7.889   2.057   4.374
 6148TIP3    H118380   7.850   2.109   4.300
 6148TIP3    H218381   7.882   2.127   4.441
 6149TIP3   OH218382   8.127   2.059   4.218
 6149TIP3    H118383   8.049   2.063   4.275
 6149TIP3    H218384   8.100   2.126   4.153
 6150TIP3   OH218385   7.779   1.874   4.104
 6150TIP3    H118386   7.822   1.863   4.191
 6150TIP3    H218387   7.857   1.854   4.046
 6151TIP3   OH218388   7.977   1.755   3.958
 6151TIP3    H118389   7.990   1.667   3.997
 6151TIP3    H218390   8.069   1.775   3.928
 6152TIP3   OH218391   7.598   1.653   3.468
 6152TIP3    H118392   7.505   1.634   3.446
 6152TIP3    H218393   7.595   1.749   3.479
 6153TIP3   OH218394   7.660   1.682   3.137
 6153TIP3    H118395   7.630   1.719   3.222
 6153TIP3    H218396   7.744   1.641   3.163
 6154TIP3   OH218397   1.230   2.010   5.317
 6154TIP3    H118398   1.200   2.102   5.298
 6154TIP3    H218399   1.152   1.960   5.287
 6155TIP3   OH218400   1.226   2.011   5.707
 6155TIP3    H118401   1.263   1.989   5.795
 6155TIP3    H218402   1.186   1.927   5.681
 6156TIP3   OH218403   0.533   1.908   6.065
 6156TIP3    H118404   0.571   1.843   6.128
 6156TIP3    H218405   0.611   1.963   6.048
 6157TIP3   OH218406   1.472   2.316   5.387
 6157TIP3    H118407   1.460   2.248   5.454
 6157TIP3    H218408   1.504   2.391   5.439
 6158TIP3   OH218409   0.502   2.316   5.789
 6158TIP3    H118410   0.494   2.219   5.791
 6158TIP3    H218411   0.599   2.326   5.786
 6159TIP3   OH218412   0.261   1.817   5.757
 6159TIP3    H118413   0.317   1.750   5.801
 6159TIP3    H218414   0.317   1.847   5.685
 6160TIP3   OH218415   1.120   2.773   5.399
 6160TIP3    H118416   1.166   2.701   5.351
 6160TIP3    H218417   1.116   2.737   5.489
 6161TIP3   OH218418   1.026   2.238   5.749
 6161TIP3    H118419   1.067   2.160   5.708
 6161TIP3    H218420   1.108   2.285   5.776
 6162TIP3   OH218421   2.040   1.557   5.749
 6162TIP3    H118422   2.070   1.639   5.793
 6162TIP3    H218423   2.066   1.574   5.656
 6163TIP3   OH218424   1.438   1.737   5.780
 6163TIP3    H118425   1.480   1.652   5.802
 6163TIP3    H218426   1.407   1.719   5.689
 6164TIP3   OH218427   0.798   1.412   5.737
 6164TIP3    H118428   0.774   1.482   5.672
 6164TIP3    H218429   0.762   1.334   5.689
 6165TIP3   OH218430   1.473   1.487   5.366
 6165TIP3    H118431   1.544   1.476   5.435
 6165TIP3    H218432   1.527   1.524   5.294
 6166TIP3   OH218433   0.417   1.619   5.867
 6166TIP3    H118434   0.498   1.579   5.906
 6166TIP3    H218435   0.395   1.557   5.797
 6167TIP3   OH218436   0.853   1.801   5.650
 6167TIP3    H118437   0.947   1.776   5.663
 6167TIP3    H218438   0.815   1.718   5.613
 6168TIP3   OH218439   2.112   1.763   5.920
 6168TIP3    H118440   2.028   1.811   5.904
 6168TIP3    H218441   2.139   1.800   6.006
 6169TIP3   OH218442   0.793   1.374   6.168
 6169TIP3    H118443   0.738   1.419   6.101
 6169TIP3    H218444   0.733   1.374   6.245
 6170TIP3   OH218445   1.116   2.230   5.188
 6170TIP3    H118446   1.077   2.215   5.102
 6170TIP3    H218447   1.073   2.315   5.214
 6171TIP3   OH218448   0.879   2.159   5.973
 6171TIP3    H118449   0.819   2.227   6.010
 6171TIP3    H218450   0.923   2.208   5.901
 6172TIP3   OH218451   1.674   1.499   5.547
 6172TIP3    H118452   1.663   1.454   5.632
 6172TIP3    H218453   1.731   1.574   5.571
 6173TIP3   OH218454   0.661   1.497   5.956
 6173TIP3    H118455   0.711   1.576   5.987
 6173TIP3    H218456   0.719   1.471   5.881
 6174TIP3   OH218457   0.707   2.354   6.074
 6174TIP3    H118458   0.683   2.442   6.038
 6174TIP3    H218459   0.628   2.339   6.130
 6175TIP3   OH218460   0.117   2.040   5.309
 6175TIP3    H118461   0.061   2.065   5.233
 6175TIP3    H218462   0.139   2.127   5.347
 6176TIP3   OH218463   1.538   2.558   5.547
 6176TIP3    H118464   1.449   2.550   5.587
 6176TIP3    H218465   1.532   2.645   5.504
 6177TIP3   OH218466   1.835   1.451   5.911
 6177TIP3    H118467   1.749   1.485   5.881
 6177TIP3    H218468   1.897   1.485   5.843
 6178TIP3   OH218469   1.142   1.122   5.892
 6178TIP3    H118470   1.114   1.028   5.888
 6178TIP3    H218471   1.060   1.161   5.931
 6179TIP3   OH218472   1.239   2.600   5.220
 6179TIP3    H118473   1.292   2.519   5.201
 6179TIP3    H218474   1.300   2.667   5.181
 6180TIP3   OH218475   1.384   2.386   5.134
 6180TIP3    H118476   1.349   2.303   5.098
 6180TIP3    H218477   1.423   2.355   5.219
 6181TIP3   OH218478   1.765   2.468   5.894
 6181TIP3    H118479   1.755   2.391   5.834
 6181TIP3    H218480   1.749   2.543   5.833
 6182TIP3   OH218481   1.057   1.862   5.153
 6182TIP3    H118482   0.978   1.914   5.131
 6182TIP3    H218483   1.105   1.860   5.068
 6183TIP3   OH218484   1.017   1.652   4.863
 6183TIP3    H118485   1.084   1.701   4.914
 6183TIP3    H218486   1.074   1.588   4.816
 6184TIP3   OH218487   1.961   2.105   5.739
 6184TIP3    H118488   1.878   2.158   5.743
 6184TIP3    H218489   1.992   2.130   5.649
 6185TIP3   OH218490   1.407   1.946   5.120
 6185TIP3    H118491   1.353   1.969   5.199
 6185TIP3    H218492   1.491   1.920   5.164
 6186TIP3   OH218493   1.641   1.982   6.041
 6186TIP3    H118494   1.640   2.065   6.093
 6186TIP3    H218495   1.555   1.990   5.994
 6187TIP3   OH218496   0.640   1.942   5.540
 6187TIP3    H118497   0.601   1.883   5.472
 6187TIP3    H218498   0.717   1.890   5.571
 6188TIP3   OH218499   0.771   2.356   5.686
 6188TIP3    H118500   0.752   2.315   5.601
 6188TIP3    H218501   0.860   2.321   5.706
 6189TIP3   OH218502   0.775   1.916   5.894
 6189TIP3    H118503   0.810   1.893   5.805
 6189TIP3    H218504   0.820   2.002   5.912
 6190TIP3   OH218505   1.298   2.552   5.671
 6190TIP3    H118506   1.287   2.632   5.725
 6190TIP3    H218507   1.284   2.480   5.735
 6191TIP3   OH218508   0.914   2.470   6.217
 6191TIP3    H118509   0.854   2.532   6.264
 6191TIP3    H218510   0.849   2.417   6.168
 6192TIP3   OH218511   1.244   1.805   4.950
 6192TIP3    H118512   1.305   1.863   5.000
 6192TIP3    H218513   1.271   1.826   4.857
 6193TIP3   OH218514   0.686   2.033   6.313
 6193TIP3    H118515   0.683   2.120   6.357
 6193TIP3    H218516   0.593   2.004   6.322
 6194TIP3   OH218517   0.991   2.482   5.209
 6194TIP3    H118518   1.075   2.529   5.229
 6194TIP3    H218519   0.929   2.555   5.198
 6195TIP3   OH218520   0.707   2.636   6.306
 6195TIP3    H118521   0.672   2.640   6.215
 6195TIP3    H218522   0.625   2.621   6.358
 6196TIP3   OH218523   1.760   1.044   4.999
 6196TIP3    H118524   1.682   1.073   5.049
 6196TIP3    H218525   1.779   1.125   4.946
 6197TIP3   OH218526   0.510   1.787   5.341
 6197TIP3    H118527   0.438   1.826   5.287
 6197TIP3    H218528   0.477   1.698   5.357
 6198TIP3   OH218529   1.563   2.410   4.547
 6198TIP3    H118530   1.571   2.507   4.533
 6198TIP3    H218531   1.656   2.381   4.533
 6199TIP3   OH218532   0.306   2.156   6.246
 6199TIP3    H118533   0.242   2.140   6.175
 6199TIP3    H218534   0.326   2.066   6.275
 6200TIP3   OH218535   0.147   2.386   5.863
 6200TIP3    H118536   0.230   2.337   5.853
 6200TIP3    H218537   0.169   2.444   5.937
 6201TIP3   OH218538   2.003   2.815   5.942
 6201TIP3    H118539   2.003   2.719   5.958
 6201TIP3    H218540   1.920   2.841   5.988
 6202TIP3   OH218541   1.109   2.600   6.074
 6202TIP3    H118542   1.106   2.692   6.108
 6202TIP3    H218543   1.039   2.558   6.129
 6203TIP3   OH218544   0.870   2.726   5.028
 6203TIP3    H118545   0.823   2.725   4.943
 6203TIP3    H218546   0.844   2.815   5.063
 6204TIP3   OH218547   0.310   2.576   5.413
 6204TIP3    H118548   0.358   2.569   5.499
 6204TIP3    H218549   0.260   2.492   5.413
 6205TIP3   OH218550   1.068   2.616   4.670
 6205TIP3    H118551   1.134   2.552   4.635
 6205TIP3    H218552   1.106   2.637   4.758
 6206TIP3   OH218553   1.122   2.677   4.934
 6206TIP3    H118554   1.037   2.690   4.983
 6206TIP3    H218555   1.180   2.646   5.005
 6207TIP3   OH218556   1.894   1.944   6.218
 6207TIP3    H118557   1.811   1.953   6.168
 6207TIP3    H218558   1.910   1.848   6.211
 6208TIP3   OH218559   0.489   2.359   6.246
 6208TIP3    H118560   0.546   2.333   6.321
 6208TIP3    H218561   0.420   2.289   6.248
 6209TIP3   OH218562   0.893   1.179   5.997
 6209TIP3    H118563   0.806   1.140   5.977
 6209TIP3    H218564   0.868   1.252   6.057
 6210TIP3   OH218565   1.461   1.288   6.205
 6210TIP3    H118566   1.526   1.262   6.274
 6210TIP3    H218567   1.375   1.275   6.251
 6211TIP3   OH218568   1.655   1.717   6.134
 6211TIP3    H118569   1.610   1.716   6.222
 6211TIP3    H218570   1.637   1.807   6.102
 6212TIP3   OH218571   1.321   1.846   4.693
 6212TIP3    H118572   1.289   1.823   4.604
 6212TIP3    H218573   1.406   1.890   4.671
 6213TIP3   OH218574   1.036   1.221   4.993
 6213TIP3    H118575   1.005   1.216   5.085
 6213TIP3    H218576   0.991   1.143   4.955
 6214TIP3   OH218577   0.830   1.695   6.041
 6214TIP3    H118578   0.784   1.716   6.125
 6214TIP3    H218579   0.813   1.777   5.989
 6215TIP3   OH218580   0.719   1.584   5.544
 6215TIP3    H118581   0.628   1.549   5.558
 6215TIP3    H218582   0.736   1.542   5.457
 6216TIP3   OH218583   1.197   1.663   5.286
 6216TIP3    H118584   1.145   1.735   5.242
 6216TIP3    H218585   1.252   1.631   5.212
 6217TIP3   OH218586   1.370   1.938   6.369
 6217TIP3    H118587   1.347   1.866   6.432
 6217TIP3    H218588   1.464   1.953   6.393
 6218TIP3   OH218589   1.351   1.688   5.524
 6218TIP3    H118590   1.290   1.718   5.453
 6218TIP3    H218591   1.387   1.608   5.479
 6219TIP3   OH218592   0.651   1.732   6.243
 6219TIP3    H118593   0.676   1.790   6.318
 6219TIP3    H218594   0.585   1.674   6.283
 6220TIP3   OH218595   0.701   1.191   4.969
 6220TIP3    H118596   0.679   1.183   5.064
 6220TIP3    H218597   0.625   1.246   4.938
 6221TIP3   OH218598   1.358   1.935   5.944
 6221TIP3    H118599   1.394   1.864   5.886
 6221TIP3    H218600   1.331   1.882   6.021
 6222TIP3   OH218601   1.050   1.394   5.613
 6222TIP3    H118602   0.968   1.399   5.666
 6222TIP3    H218603   1.118   1.399   5.683
 6223TIP3   OH218604   0.493   1.441   5.582
 6223TIP3    H118605   0.399   1.437   5.607
 6223TIP3    H218606   0.526   1.355   5.614
 6224TIP3   OH218607   0.742   1.456   5.306
 6224TIP3    H118608   0.834   1.471   5.279
 6224TIP3    H218609   0.690   1.479   5.226
 6225TIP3   OH218610   1.519   1.474   5.819
 6225TIP3    H118611   1.492   1.489   5.912
 6225TIP3    H218612   1.446   1.417   5.788
 6226TIP3   OH218613   0.574   1.497   5.094
 6226TIP3    H118614   0.508   1.441   5.049
 6226TIP3    H218615   0.629   1.524   5.018
 6227TIP3   OH218616   1.698   3.165   6.042
 6227TIP3    H118617   1.696   3.189   5.947
 6227TIP3    H218618   1.779   3.211   6.072
 6228TIP3   OH218619   0.653   2.276   6.458
 6228TIP3    H118620   0.735   2.303   6.506
 6228TIP3    H218621   0.589   2.275   6.532
 6229TIP3   OH218622   1.115   1.728   5.716
 6229TIP3    H118623   1.192   1.691   5.671
 6229TIP3    H218624   1.120   1.687   5.805
 6230TIP3   OH218625   0.716   1.221   5.560
 6230TIP3    H118626   0.662   1.145   5.583
 6230TIP3    H218627   0.797   1.178   5.527
 6231TIP3   OH218628   1.096   1.633   5.997
 6231TIP3    H118629   1.005   1.666   6.016
 6231TIP3    H218630   1.152   1.692   6.051
 6232TIP3   OH218631   0.828   2.016   5.096
 6232TIP3    H118632   0.756   1.950   5.086
 6232TIP3    H218633   0.809   2.049   5.188
 6233TIP3   OH218634   1.728   2.252   5.727
 6233TIP3    H118635   1.754   2.302   5.646
 6233TIP3    H218636   1.643   2.211   5.699
 6234TIP3   OH218637   1.287   1.323   4.969
 6234TIP3    H118638   1.190   1.306   4.975
 6234TIP3    H218639   1.295   1.419   4.990
 6235TIP3   OH218640   1.223   2.331   6.099
 6235TIP3    H118641   1.261   2.316   6.187
 6235TIP3    H218642   1.189   2.422   6.106
 6236TIP3   OH218643   1.354   1.575   5.068
 6236TIP3    H118644   1.451   1.581   5.084
 6236TIP3    H218645   1.336   1.655   5.016
 6237TIP3   OH218646   0.524   2.041   5.774
 6237TIP3    H118647   0.564   2.012   5.690
 6237TIP3    H218648   0.563   1.978   5.837
 6238TIP3   OH218649   0.969   2.164   4.913
 6238TIP3    H118650   0.919   2.249   4.916
 6238TIP3    H218651   0.919   2.109   4.977
 6239TIP3   OH218652   0.444   1.921   6.398
 6239TIP3    H118653   0.477   1.946   6.487
 6239TIP3    H218654   0.348   1.918   6.414
 6240TIP3   OH218655   1.130   2.075   6.409
 6240TIP3    H118656   1.069   2.012   6.368
 6240TIP3    H218657   1.217   2.040   6.381
 6241TIP3   OH218658   1.386   2.592   5.996
 6241TIP3    H118659   1.289   2.593   6.009
 6241TIP3    H218660   1.415   2.645   6.074
 6242TIP3   OH218661   1.794   1.669   4.903
 6242TIP3    H118662   1.732   1.624   4.840
 6242TIP3    H218663   1.791   1.758   4.863
 6243TIP3   OH218664   2.016   2.525   5.983
 6243TIP3    H118665   1.918   2.518   5.974
 6243TIP3    H218666   2.043   2.496   5.893
 6244TIP3   OH218667   1.489   2.486   4.809
 6244TIP3    H118668   1.475   2.416   4.874
 6244TIP3    H218669   1.511   2.437   4.728
 6245TIP3   OH218670   1.493   2.116   5.641
 6245TIP3    H118671   1.400   2.091   5.657
 6245TIP3    H218672   1.527   2.035   5.599
 6246TIP3   OH218673   0.623   2.342   5.397
 6246TIP3    H118674   0.619   2.425   5.346
 6246TIP3    H218675   0.530   2.329   5.420
 6247TIP3   OH218676   0.162   1.651   5.131
 6247TIP3    H118677   0.229   1.723   5.126
 6247TIP3    H218678   0.112   1.683   5.208
 6248TIP3   OH218679   0.755   2.105   5.341
 6248TIP3    H118680   0.720   2.195   5.360
 6248TIP3    H218681   0.722   2.055   5.418
 6249TIP3   OH218682   0.894   2.684   5.869
 6249TIP3    H118683   0.935   2.757   5.820
 6249TIP3    H218684   0.970   2.649   5.918
 6250TIP3   OH218685   0.540   2.582   5.253
 6250TIP3    H118686   0.455   2.591   5.300
 6250TIP3    H218687   0.573   2.675   5.257
 6251TIP3   OH218688   1.277   2.321   5.831
 6251TIP3    H118689   1.265   2.318   5.928
 6251TIP3    H218690   1.359   2.270   5.820
 6252TIP3   OH218691   1.255   2.215   4.715
 6252TIP3    H118692   1.313   2.190   4.791
 6252TIP3    H218693   1.170   2.184   4.748
 6253TIP3   OH218694   1.527   2.851   5.879
 6253TIP3    H118695   1.447   2.796   5.873
 6253TIP3    H218696   1.512   2.915   5.807
 6254TIP3   OH218697   1.593   2.686   4.531
 6254TIP3    H118698   1.633   2.760   4.483
 6254TIP3    H218699   1.513   2.732   4.565
 6255TIP3   OH218700   1.418   2.144   4.926
 6255TIP3    H118701   1.408   2.078   4.998
 6255TIP3    H218702   1.515   2.142   4.915
 6256TIP3   OH218703   0.324   2.543   6.031
 6256TIP3    H118704   0.387   2.479   6.068
 6256TIP3    H218705   0.350   2.625   6.077
 6257TIP3   OH218706   0.601   2.200   4.698
 6257TIP3    H118707   0.630   2.109   4.676
 6257TIP3    H218708   0.598   2.194   4.796
 6258TIP3   OH218709   0.566   2.200   4.976
 6258TIP3    H118710   0.635   2.168   5.036
 6258TIP3    H218711   0.568   2.297   4.991
 6259TIP3   OH218712   0.301   1.885   5.182
 6259TIP3    H118713   0.238   1.933   5.240
 6259TIP3    H218714   0.319   1.955   5.117
 6260TIP3   OH218715   1.454   1.531   6.078
 6260TIP3    H118716   1.534   1.578   6.109
 6260TIP3    H218717   1.457   1.448   6.130
 6261TIP3   OH218718   1.339   1.276   5.247
 6261TIP3    H118719   1.320   1.300   5.154
 6261TIP3    H218720   1.378   1.359   5.281
 6262TIP3   OH218721   0.829   2.403   4.911
 6262TIP3    H118722   0.742   2.417   4.952
 6262TIP3    H218723   0.875   2.484   4.938
 6263TIP3   OH218724   1.024   1.460   5.346
 6263TIP3    H118725   1.085   1.534   5.329
 6263TIP3    H218726   1.028   1.454   5.444
 6264TIP3   OH218727   1.289   1.774   6.154
 6264TIP3    H118728   1.314   1.828   6.232
 6264TIP3    H218729   1.345   1.695   6.166
 6265TIP3   OH218730   1.175   1.189   5.455
 6265TIP3    H118731   1.148   1.270   5.504
 6265TIP3    H218732   1.232   1.227   5.385
 6266TIP3   OH218733   0.579   2.471   5.003
 6266TIP3    H118734   0.546   2.540   4.941
 6266TIP3    H218735   0.561   2.513   5.090
 6267TIP3   OH218736   0.694   1.192   5.247
 6267TIP3    H118737   0.698   1.284   5.281
 6267TIP3    H218738   0.789   1.170   5.246
 6268TIP3   OH218739   1.924   1.678   6.139
 6268TIP3    H118740   1.826   1.673   6.141
 6268TIP3    H218741   1.942   1.640   6.052
 6269TIP3   OH218742   1.579   1.871   5.524
 6269TIP3    H118743   1.504   1.811   5.538
 6269TIP3    H218744   1.651   1.825   5.572
 6270TIP3   OH218745   0.300   2.096   4.991
 6270TIP3    H118746   0.370   2.164   5.001
 6270TIP3    H218747   0.343   2.040   4.923
 6271TIP3   OH218748   0.281   1.407   5.035
 6271TIP3    H118749   0.273   1.489   5.088
 6271TIP3    H218750   0.236   1.344   5.094
 6272TIP3   OH218751   1.549   2.828   5.471
 6272TIP3    H118752   1.507   2.875   5.395
 6272TIP3    H218753   1.643   2.848   5.452
 6273TIP3   OH218754   0.160   2.317   5.378
 6273TIP3    H118755   0.100   2.349   5.446
 6273TIP3    H218756   0.125   2.362   5.297
 6274TIP3   OH218757   0.346   2.876   6.427
 6274TIP3    H118758   0.423   2.886   6.488
 6274TIP3    H218759   0.324   2.784   6.442
 6275TIP3   OH218760   0.800   2.817   6.498
 6275TIP3    H118761   0.895   2.800   6.505
 6275TIP3    H218762   0.776   2.757   6.424
 6276TIP3   OH218763   1.440   2.727   6.230
 6276TIP3    H118764   1.433   2.657   6.298
 6276TIP3    H218765   1.518   2.778   6.260
 6277TIP3   OH218766   1.209   2.425   4.529
 6277TIP3    H118767   1.255   2.368   4.594
 6277TIP3    H218768   1.274   2.430   4.456
 6278TIP3   OH218769   0.448   2.256   6.646
 6278TIP3    H118770   0.480   2.163   6.648
 6278TIP3    H218771   0.353   2.244   6.642
 6279TIP3   OH218772   0.431   1.907   4.847
 6279TIP3    H118773   0.488   1.877   4.921
 6279TIP3    H218774   0.499   1.915   4.776
 6280TIP3   OH218775   1.057   2.350   6.426
 6280TIP3    H118776   1.019   2.369   6.338
 6280TIP3    H218777   1.091   2.258   6.416
 6281TIP3   OH218778   0.936   2.110   4.642
 6281TIP3    H118779   0.939   2.126   4.739
 6281TIP3    H218780   0.942   2.012   4.641
 6282TIP3   OH218781   1.549   2.362   6.031
 6282TIP3    H118782   1.627   2.403   5.989
 6282TIP3    H218783   1.482   2.431   6.017
 6283TIP3   OH218784   0.555   2.001   6.641
 6283TIP3    H118785   0.622   1.931   6.633
 6283TIP3    H218786   0.570   2.022   6.736
 6284TIP3   OH218787   0.630   1.820   5.063
 6284TIP3    H118788   0.607   1.782   5.149
 6284TIP3    H218789   0.669   1.743   5.016
 6285TIP3   OH218790   0.915   1.881   6.294
 6285TIP3    H118791   0.838   1.943   6.296
 6285TIP3    H218792   0.965   1.915   6.216
 6286TIP3   OH218793   0.740   1.614   4.908
 6286TIP3    H118794   0.713   1.616   4.814
 6286TIP3    H218795   0.837   1.617   4.900
 6287TIP3   OH218796   1.422   2.283   6.427
 6287TIP3    H118797   1.504   2.255   6.383
 6287TIP3    H218798   1.417   2.220   6.501
 6288TIP3   OH218799   1.554   1.941   4.575
 6288TIP3    H118800   1.536   1.896   4.490
 6288TIP3    H218801   1.523   2.031   4.552
 6289TIP3   OH218802   1.030   1.663   6.412
 6289TIP3    H118803   1.038   1.590   6.348
 6289TIP3    H218804   0.990   1.735   6.357
 6290TIP3   OH218805   1.048   1.463   6.220
 6290TIP3    H118806   1.071   1.506   6.135
 6290TIP3    H218807   0.958   1.430   6.203
 6291TIP3   OH218808   1.057   1.989   6.095
 6291TIP3    H118809   1.144   2.007   6.057
 6291TIP3    H218810   1.001   2.058   6.053
 6292TIP3   OH218811   1.638   1.958   6.480
 6292TIP3    H118812   1.686   1.875   6.496
 6292TIP3    H218813   1.708   2.015   6.446
 6293TIP3   OH218814   1.680   2.211   6.215
 6293TIP3    H118815   1.622   2.268   6.158
 6293TIP3    H218816   1.768   2.233   6.177
 6294TIP3   OH218817   0.940   1.775   6.650
 6294TIP3    H118818   0.845   1.766   6.673
 6294TIP3    H218819   0.948   1.734   6.562
 6295TIP3   OH218820   1.200   1.241   6.274
 6295TIP3    H118821   1.155   1.326   6.253
 6295TIP3    H218822   1.122   1.184   6.288
 6296TIP3   OH218823   1.287   1.723   6.514
 6296TIP3    H118824   1.276   1.709   6.610
 6296TIP3    H218825   1.198   1.697   6.482
 6297TIP3   OH218826   1.526   1.672   6.367
 6297TIP3    H118827   1.452   1.674   6.430
 6297TIP3    H218828   1.601   1.643   6.424
 6298TIP3   OH218829   1.752   1.613   6.518
 6298TIP3    H118830   1.769   1.518   6.535
 6298TIP3    H218831   1.751   1.652   6.608
 6299TIP3   OH218832   1.241   1.208   6.544
 6299TIP3    H118833   1.322   1.152   6.546
 6299TIP3    H218834   1.233   1.223   6.448
 6300TIP3   OH218835   1.324   1.441   6.692
 6300TIP3    H118836   1.287   1.369   6.639
 6300TIP3    H218837   1.247   1.502   6.702
 6301TIP3   OH218838   0.541   2.670   4.809
 6301TIP3    H118839   0.637   2.681   4.794
 6301TIP3    H218840   0.507   2.713   4.728
 6302TIP3   OH218841   0.034   2.047   5.025
 6302TIP3    H118842   0.128   2.072   5.016
 6302TIP3    H218843   0.032   1.959   4.982
 6303TIP3   OH218844  -0.069   2.665   5.452
 6303TIP3    H118845  -0.120   2.601   5.401
 6303TIP3    H218846  -0.024   2.608   5.518
 6304TIP3   OH218847   0.071   2.518   5.634
 6304TIP3    H118848   0.076   2.452   5.707
 6304TIP3    H218849   0.124   2.588   5.677
 6305TIP3   OH218850   1.803   2.919   5.432
 6305TIP3    H118851   1.831   2.950   5.519
 6305TIP3    H218852   1.870   2.957   5.373
 6306TIP3   OH218853   1.831   2.938   5.715
 6306TIP3    H118854   1.787   2.850   5.711
 6306TIP3    H218855   1.908   2.915   5.770
 6307TIP3   OH218856   1.877   2.615   6.286
 6307TIP3    H118857   1.806   2.625   6.353
 6307TIP3    H218858   1.921   2.703   6.291
 6308TIP3   OH218859   1.696   2.128   4.904
 6308TIP3    H118860   1.763   2.193   4.875
 6308TIP3    H218861   1.740   2.090   4.983
 6309TIP3   OH218862   1.822   1.995   5.108
 6309TIP3    H118863   1.757   1.954   5.169
 6309TIP3    H218864   1.890   2.030   5.169
 6310TIP3   OH218865   1.877   2.388   5.539
 6310TIP3    H118866   1.933   2.322   5.493
 6310TIP3    H218867   1.876   2.462   5.474
 6311TIP3   OH218868   1.705   2.687   5.734
 6311TIP3    H118869   1.634   2.729   5.786
 6311TIP3    H218870   1.655   2.641   5.664
 6312TIP3   OH218871   1.759   1.903   4.755
 6312TIP3    H118872   1.686   1.907   4.689
 6312TIP3    H218873   1.733   1.980   4.811
 6313TIP3   OH218874   1.628   1.576   4.708
 6313TIP3    H118875   1.586   1.611   4.629
 6313TIP3    H218876   1.607   1.480   4.700
 6314TIP3   OH218877   1.633   1.854   5.254
 6314TIP3    H118878   1.645   1.758   5.249
 6314TIP3    H218879   1.619   1.869   5.350
 6315TIP3   OH218880   0.266   1.928   6.020
 6315TIP3    H118881   0.255   1.910   5.925
 6315TIP3    H218882   0.364   1.931   6.028
 6316TIP3   OH218883   1.925   2.277   6.112
 6316TIP3    H118884   1.996   2.210   6.102
 6316TIP3    H218885   1.954   2.347   6.050
 6317TIP3   OH218886   2.107   2.078   6.120
 6317TIP3    H118887   2.034   2.029   6.163
 6317TIP3    H218888   2.182   2.016   6.137
 6318TIP3   OH218889   1.574   1.309   4.690
 6318TIP3    H118890   1.649   1.278   4.746
 6318TIP3    H218891   1.501   1.250   4.714
 6319TIP3   OH218892   1.631   1.569   5.146
 6319TIP3    H118893   1.674   1.482   5.161
 6319TIP3    H218894   1.690   1.604   5.076
 6320TIP3   OH218895   1.791   1.740   5.643
 6320TIP3    H118896   1.878   1.765   5.602
 6320TIP3    H218897   1.806   1.777   5.733
 6321TIP3   OH218898   1.862   1.886   5.875
 6321TIP3    H118899   1.786   1.921   5.925
 6321TIP3    H218900   1.895   1.967   5.830
 6322TIP3   OH218901   2.308   1.478   6.429
 6322TIP3    H118902   2.372   1.414   6.391
 6322TIP3    H218903   2.285   1.532   6.350
 6323TIP3   OH218904   1.741   1.321   5.188
 6323TIP3    H118905   1.792   1.306   5.270
 6323TIP3    H218906   1.683   1.243   5.188
 6324TIP3   OH218907   2.183   1.617   6.230
 6324TIP3    H118908   2.097   1.658   6.254
 6324TIP3    H218909   2.152   1.542   6.177
 6325TIP3   OH218910   1.817   1.250   4.820
 6325TIP3    H118911   1.861   1.181   4.766
 6325TIP3    H218912   1.884   1.322   4.819
 6326TIP3   OH218913   1.381   2.786   5.084
 6326TIP3    H118914   1.438   2.776   5.005
 6326TIP3    H218915   1.431   2.851   5.136
 6327TIP3   OH218916   0.482   2.592   6.475
 6327TIP3    H118917   0.430   2.513   6.454
 6327TIP3    H218918   0.498   2.582   6.570
 6328TIP3   OH218919   0.667   2.624   6.018
 6328TIP3    H118920   0.619   2.701   5.981
 6328TIP3    H218921   0.753   2.637   5.973
 6329TIP3   OH218922   1.106   2.866   6.155
 6329TIP3    H118923   1.148   2.864   6.244
 6329TIP3    H218924   1.173   2.917   6.105
 6330TIP3   OH218925   1.288   3.020   6.018
 6330TIP3    H118926   1.359   2.969   5.977
 6330TIP3    H218927   1.339   3.077   6.079
 6331TIP3   OH218928   2.085   1.377   6.117
 6331TIP3    H118929   1.995   1.366   6.082
 6331TIP3    H218930   2.121   1.286   6.107
 6332TIP3   OH218931   0.339   2.875   6.046
 6332TIP3    H118932   0.248   2.905   6.024
 6332TIP3    H218933   0.353   2.922   6.130
 6333TIP3   OH218934   0.576   2.857   5.903
 6333TIP3    H118935   0.489   2.870   5.947
 6333TIP3    H218936   0.557   2.891   5.813
 6334TIP3   OH218937   1.003   2.884   5.700
 6334TIP3    H118938   0.933   2.904   5.635
 6334TIP3    H218939   1.015   2.972   5.742
 6335TIP3   OH218940   1.272   2.822   5.751
 6335TIP3    H118941   1.178   2.842   5.733
 6335TIP3    H218942   1.317   2.897   5.708
 6336TIP3   OH218943   1.475   3.014   5.664
 6336TIP3    H118944   1.463   3.099   5.617
 6336TIP3    H218945   1.504   2.955   5.591
 6337TIP3   OH218946   0.253   2.672   5.779
 6337TIP3    H118947   0.267   2.647   5.872
 6337TIP3    H218948   0.328   2.624   5.737
 6338TIP3   OH218949   0.451   2.541   5.644
 6338TIP3    H118950   0.465   2.458   5.696
 6338TIP3    H218951   0.542   2.579   5.644
 6339TIP3   OH218952   0.716   2.635   5.653
 6339TIP3    H118953   0.746   2.542   5.645
 6339TIP3    H218954   0.763   2.660   5.734
 6340TIP3   OH218955   1.293   1.307   5.746
 6340TIP3    H118956   1.243   1.244   5.802
 6340TIP3    H218957   1.352   1.249   5.696
 6341TIP3   OH218958   1.805   1.159   5.632
 6341TIP3    H118959   1.849   1.203   5.555
 6341TIP3    H218960   1.713   1.185   5.618
 6342TIP3   OH218961   1.905   1.274   5.402
 6342TIP3    H118962   1.978   1.219   5.367
 6342TIP3    H218963   1.943   1.364   5.389
 6343TIP3   OH218964   0.954   1.058   5.592
 6343TIP3    H118965   1.039   1.101   5.571
 6343TIP3    H218966   0.965   1.037   5.686
 6344TIP3   OH218967   1.521   1.170   5.608
 6344TIP3    H118968   1.475   1.149   5.526
 6344TIP3    H218969   1.526   1.084   5.655
 6345TIP3   OH218970   1.550   1.112   5.173
 6345TIP3    H118971   1.474   1.170   5.198
 6345TIP3    H218972   1.510   1.025   5.184
 6346TIP3   OH218973   0.032   2.449   5.179
 6346TIP3    H118974  -0.040   2.403   5.134
 6346TIP3    H218975   0.023   2.540   5.141
 6347TIP3   OH218976   0.969   1.207   5.261
 6347TIP3    H118977   1.023   1.163   5.329
 6347TIP3    H218978   0.986   1.301   5.285
 6348TIP3   OH218979   0.809   2.647   4.757
 6348TIP3    H118980   0.902   2.658   4.728
 6348TIP3    H218981   0.799   2.551   4.755
 6349TIP3   OH218982   1.531   2.751   4.854
 6349TIP3    H118983   1.521   2.654   4.842
 6349TIP3    H218984   1.487   2.785   4.774
 6350TIP3   OH218985   0.117   2.469   4.821
 6350TIP3    H118986   0.113   2.506   4.910
 6350TIP3    H218987   0.207   2.430   4.817
 6351TIP3   OH218988   1.824   1.345   6.550
 6351TIP3    H118989   1.845   1.315   6.641
 6351TIP3    H218990   1.913   1.343   6.508
 6352TIP3   OH218991   1.755   2.894   6.041
 6352TIP3    H118992   1.677   2.864   5.991
 6352TIP3    H218993   1.737   2.990   6.048
 6353TIP3   OH218994   3.026   2.267   4.804
 6353TIP3    H118995   2.996   2.359   4.784
 6353TIP3    H218996   2.947   2.217   4.775
 6354TIP3   OH218997   3.021   2.268   5.194
 6354TIP3    H118998   3.059   2.246   5.282
 6354TIP3    H218999   2.982   2.183   5.168
 6355TIP3   OH219000   2.319   2.159   5.557
 6355TIP3    H119001   2.350   2.091   5.620
 6355TIP3    H219002   2.399   2.214   5.549
 6356TIP3   OH219003   3.269   2.571   4.874
 6356TIP3    H119004   3.256   2.504   4.943
 6356TIP3    H219005   3.300   2.647   4.925
 6357TIP3   OH219006   2.295   2.571   5.274
 6357TIP3    H119007   2.287   2.473   5.276
 6357TIP3    H219008   2.392   2.580   5.269
 6358TIP3   OH219009   2.001   1.772   5.058
 6358TIP3    H119010   1.956   1.856   5.078
 6358TIP3    H219011   1.928   1.722   5.016
 6359TIP3   OH219012   2.058   2.061   5.237
 6359TIP3    H119013   2.108   1.984   5.273
 6359TIP3    H219014   2.124   2.104   5.181
 6360TIP3   OH219015   2.916   3.028   4.886
 6360TIP3    H119016   2.961   2.957   4.836
 6360TIP3    H219017   2.913   2.990   4.975
 6361TIP3   OH219018   2.822   2.493   5.237
 6361TIP3    H119019   2.864   2.416   5.196
 6361TIP3    H219020   2.903   2.542   5.263
 6362TIP3   OH219021   3.836   1.812   5.235
 6362TIP3    H119022   3.865   1.894   5.281
 6362TIP3    H219023   3.861   1.833   5.143
 6363TIP3   OH219024   3.234   1.994   5.266
 6363TIP3    H119025   3.277   1.910   5.288
 6363TIP3    H219026   3.203   1.976   5.176
 6364TIP3   OH219027   2.574   1.654   5.233
 6364TIP3    H119028   2.556   1.727   5.170
 6364TIP3    H219029   2.525   1.581   5.190
 6365TIP3   OH219030   3.269   1.745   4.853
 6365TIP3    H119031   3.340   1.731   4.921
 6365TIP3    H219032   3.323   1.780   4.780
 6366TIP3   OH219033   2.207   1.856   5.341
 6366TIP3    H119034   2.290   1.837   5.390
 6366TIP3    H219035   2.222   1.801   5.261
 6367TIP3   OH219036   2.646   2.053   5.137
 6367TIP3    H119037   2.741   2.030   5.149
 6367TIP3    H219038   2.609   1.969   5.104
 6368TIP3   OH219039   3.903   2.017   5.406
 6368TIP3    H119040   3.820   2.067   5.392
 6368TIP3    H219041   3.928   2.046   5.495
 6369TIP3   OH219042   2.570   1.637   5.668
 6369TIP3    H119043   2.510   1.675   5.600
 6369TIP3    H219044   2.518   1.654   5.749
 6370TIP3   OH219045   2.910   2.487   4.676
 6370TIP3    H119046   2.872   2.476   4.588
 6370TIP3    H219047   2.868   2.571   4.704
 6371TIP3   OH219048   2.675   2.413   5.459
 6371TIP3    H119049   2.616   2.483   5.495
 6371TIP3    H219050   2.720   2.461   5.387
 6372TIP3   OH219051   3.472   1.752   5.033
 6372TIP3    H119052   3.458   1.710   5.119
 6372TIP3    H219053   3.527   1.830   5.058
 6373TIP3   OH219054   2.441   1.753   5.452
 6373TIP3    H119055   2.502   1.826   5.475
 6373TIP3    H219056   2.491   1.712   5.377
 6374TIP3   OH219057   2.505   2.610   5.559
 6374TIP3    H119058   2.481   2.698   5.524
 6374TIP3    H219059   2.427   2.593   5.615
 6375TIP3   OH219060   1.895   2.299   4.797
 6375TIP3    H119061   1.857   2.328   4.712
 6375TIP3    H219062   1.927   2.384   4.834
 6376TIP3   OH219063   3.335   2.814   5.034
 6376TIP3    H119064   3.245   2.807   5.074
 6376TIP3    H219065   3.328   2.902   4.990
 6377TIP3   OH219066   3.631   1.709   5.399
 6377TIP3    H119067   3.545   1.742   5.368
 6377TIP3    H219068   3.692   1.743   5.330
 6378TIP3   OH219069   2.920   1.352   5.381
 6378TIP3    H119070   2.908   1.258   5.404
 6378TIP3    H219071   2.844   1.392   5.430
 6379TIP3   OH219072   3.035   2.857   4.706
 6379TIP3    H119073   3.088   2.775   4.686
 6379TIP3    H219074   3.096   2.924   4.668
 6380TIP3   OH219075   3.180   2.641   4.622
 6380TIP3    H119076   3.145   2.559   4.585
 6380TIP3    H219077   3.219   2.610   4.707
 6381TIP3   OH219078   3.562   2.724   5.381
 6381TIP3    H119079   3.551   2.648   5.321
 6381TIP3    H219080   3.545   2.800   5.321
 6382TIP3   OH219081   2.853   2.117   4.639
 6382TIP3    H119082   2.774   2.172   4.618
 6382TIP3    H219083   2.902   2.119   4.555
 6383TIP3   OH219084   2.811   1.909   4.349
 6383TIP3    H119085   2.878   1.957   4.402
 6383TIP3    H219086   2.870   1.845   4.303
 6384TIP3   OH219087   3.757   2.363   5.226
 6384TIP3    H119088   3.674   2.416   5.230
 6384TIP3    H219089   3.788   2.387   5.136
 6385TIP3   OH219090   3.203   2.201   4.608
 6385TIP3    H119091   3.149   2.225   4.687
 6385TIP3    H219092   3.287   2.176   4.652
 6386TIP3   OH219093   3.436   2.239   5.528
 6386TIP3    H119094   3.435   2.322   5.580
 6386TIP3    H219095   3.351   2.246   5.481
 6387TIP3   OH219096   2.436   2.197   5.027
 6387TIP3    H119097   2.397   2.139   4.959
 6387TIP3    H219098   2.512   2.145   5.058
 6388TIP3   OH219099   2.564   2.609   5.175
 6388TIP3    H119100   2.548   2.573   5.086
 6388TIP3    H219101   2.654   2.575   5.194
 6389TIP3   OH219102   2.565   2.173   5.379
 6389TIP3    H119103   2.603   2.147   5.293
 6389TIP3    H219104   2.612   2.257   5.399
 6390TIP3   OH219105   3.095   2.809   5.158
 6390TIP3    H119106   3.083   2.889   5.212
 6390TIP3    H219107   3.080   2.737   5.222
 6391TIP3   OH219108   2.710   2.727   5.705
 6391TIP3    H119109   2.649   2.789   5.751
 6391TIP3    H219110   2.645   2.674   5.655
 6392TIP3   OH219111   3.041   2.061   4.436
 6392TIP3    H119112   3.101   2.120   4.487
 6392TIP3    H219113   3.067   2.083   4.343
 6393TIP3   OH219114   2.465   2.282   5.809
 6393TIP3    H119115   2.470   2.371   5.851
 6393TIP3    H219116   2.370   2.262   5.822
 6394TIP3   OH219117   2.788   2.738   4.708
 6394TIP3    H119118   2.871   2.787   4.719
 6394TIP3    H219119   2.728   2.806   4.674
 6395TIP3   OH219120   2.503   2.893   5.792
 6395TIP3    H119121   2.469   2.895   5.701
 6395TIP3    H219122   2.422   2.872   5.844
 6396TIP3   OH219123   3.559   1.300   4.485
 6396TIP3    H119124   3.477   1.322   4.535
 6396TIP3    H219125   3.572   1.381   4.433
 6397TIP3   OH219126   2.305   2.042   4.825
 6397TIP3    H119127   2.233   2.085   4.774
 6397TIP3    H219128   2.266   1.956   4.844
 6398TIP3   OH219129   3.357   2.658   4.034
 6398TIP3    H119130   3.362   2.756   4.021
 6398TIP3    H219131   3.452   2.634   4.023
 6399TIP3   OH219132   2.081   2.427   5.739
 6399TIP3    H119133   2.016   2.403   5.671
 6399TIP3    H219134   2.120   2.340   5.763
 6400TIP3   OH219135   1.938   2.619   5.370
 6400TIP3    H119136   2.034   2.612   5.360
 6400TIP3    H219137   1.930   2.696   5.428
 6401TIP3   OH219138   3.800   3.073   5.430
 6401TIP3    H119139   3.800   2.976   5.444
 6401TIP3    H219140   3.717   3.098   5.475
 6402TIP3   OH219141   2.906   2.856   5.562
 6402TIP3    H119142   2.902   2.949   5.595
 6402TIP3    H219143   2.835   2.815   5.616
 6403TIP3   OH219144   2.668   2.982   4.517
 6403TIP3    H119145   2.623   2.971   4.431
 6403TIP3    H219146   2.638   3.071   4.545
 6404TIP3   OH219147   2.106   2.831   4.900
 6404TIP3    H119148   2.155   2.825   4.985
 6404TIP3    H219149   2.052   2.751   4.905
 6405TIP3   OH219150   2.867   2.884   4.153
 6405TIP3    H119151   2.927   2.815   4.117
 6405TIP3    H219152   2.904   2.898   4.242
 6406TIP3   OH219153   2.919   2.935   4.421
 6406TIP3    H119154   2.833   2.943   4.467
 6406TIP3    H219155   2.976   2.903   4.493
 6407TIP3   OH219156   3.691   2.201   5.704
 6407TIP3    H119157   3.608   2.211   5.654
 6407TIP3    H219158   3.706   2.105   5.697
 6408TIP3   OH219159   2.287   2.609   5.724
 6408TIP3    H119160   2.337   2.593   5.807
 6408TIP3    H219161   2.212   2.546   5.733
 6409TIP3   OH219162   2.684   1.432   5.514
 6409TIP3    H119163   2.595   1.402   5.486
 6409TIP3    H219164   2.659   1.513   5.563
 6410TIP3   OH219165   3.223   1.545   5.708
 6410TIP3    H119166   3.292   1.519   5.772
 6410TIP3    H219167   3.140   1.526   5.757
 6411TIP3   OH219168   3.451   1.974   5.621
 6411TIP3    H119169   3.405   1.973   5.708
 6411TIP3    H219170   3.432   2.064   5.589
 6412TIP3   OH219171   3.113   2.098   4.176
 6412TIP3    H119172   3.086   2.076   4.085
 6412TIP3    H219173   3.196   2.147   4.158
 6413TIP3   OH219174   2.828   1.482   4.482
 6413TIP3    H119175   2.797   1.479   4.575
 6413TIP3    H219176   2.792   1.397   4.451
 6414TIP3   OH219177   2.616   1.950   5.529
 6414TIP3    H119178   2.569   1.970   5.612
 6414TIP3    H219179   2.599   2.031   5.477
 6415TIP3   OH219180   2.501   1.835   5.044
 6415TIP3    H119181   2.409   1.808   5.064
 6415TIP3    H219182   2.513   1.793   4.956
 6416TIP3   OH219183   2.991   1.918   4.773
 6416TIP3    H119184   2.940   1.990   4.729
 6416TIP3    H219185   3.047   1.886   4.701
 6417TIP3   OH219186   3.167   2.195   5.857
 6417TIP3    H119187   3.144   2.123   5.919
 6417TIP3    H219188   3.261   2.209   5.879
 6418TIP3   OH219189   3.148   1.944   5.010
 6418TIP3    H119190   3.086   1.973   4.940
 6418TIP3    H219191   3.183   1.865   4.966
 6419TIP3   OH219192   2.436   1.976   5.740
 6419TIP3    H119193   2.473   2.037   5.805
 6419TIP3    H219194   2.427   1.894   5.792
 6420TIP3   OH219195   2.484   1.453   4.448
 6420TIP3    H119196   2.478   1.452   4.546
 6420TIP3    H219197   2.408   1.509   4.426
 6421TIP3   OH219198   2.032   1.497   5.319
 6421TIP3    H119199   2.104   1.531   5.377
 6421TIP3    H219200   2.080   1.468   5.240
 6422TIP3   OH219201   1.993   1.477   4.837
 6422TIP3    H119202   2.040   1.515   4.760
 6422TIP3    H219203   1.935   1.553   4.859
 6423TIP3   OH219204   3.155   2.192   5.431
 6423TIP3    H119205   3.190   2.121   5.372
 6423TIP3    H219206   3.128   2.138   5.508
 6424TIP3   OH219207   2.831   1.656   5.104
 6424TIP3    H119208   2.753   1.655   5.163
 6424TIP3    H219209   2.904   1.647   5.168
 6425TIP3   OH219210   2.264   1.713   5.112
 6425TIP3    H119211   2.169   1.719   5.084
 6425TIP3    H219212   2.289   1.622   5.090
 6426TIP3   OH219213   2.528   1.705   4.804
 6426TIP3    H119214   2.622   1.722   4.786
 6426TIP3    H219215   2.483   1.729   4.720
 6427TIP3   OH219216   3.321   1.733   5.307
 6427TIP3    H119217   3.291   1.745   5.400
 6427TIP3    H219218   3.253   1.672   5.273
 6428TIP3   OH219219   2.377   1.742   4.578
 6428TIP3    H119220   2.306   1.698   4.528
 6428TIP3    H219221   2.430   1.780   4.505
 6429TIP3   OH219222   3.494   3.421   5.528
 6429TIP3    H119223   3.492   3.444   5.434
 6429TIP3    H219224   3.575   3.467   5.558
 6430TIP3   OH219225   2.448   2.531   5.947
 6430TIP3    H119226   2.528   2.560   5.994
 6430TIP3    H219227   2.384   2.530   6.021
 6431TIP3   OH219228   2.911   1.986   5.203
 6431TIP3    H119229   2.986   1.947   5.155
 6431TIP3    H219230   2.917   1.943   5.290
 6432TIP3   OH219231   2.428   1.471   5.086
 6432TIP3    H119232   2.394   1.393   5.135
 6432TIP3    H219233   2.483   1.430   5.019
 6433TIP3   OH219234   2.888   1.886   5.490
 6433TIP3    H119235   2.798   1.921   5.507
 6433TIP3    H219236   2.946   1.945   5.542
 6434TIP3   OH219237   2.624   2.271   4.584
 6434TIP3    H119238   2.551   2.207   4.574
 6434TIP3    H219239   2.606   2.305   4.675
 6435TIP3   OH219240   3.523   2.508   5.214
 6435TIP3    H119241   3.549   2.559   5.133
 6435TIP3    H219242   3.438   2.467   5.186
 6436TIP3   OH219243   3.080   1.585   4.445
 6436TIP3    H119244   2.984   1.566   4.460
 6436TIP3    H219245   3.090   1.678   4.477
 6437TIP3   OH219246   3.018   2.587   5.586
 6437TIP3    H119247   3.057   2.573   5.674
 6437TIP3    H219248   2.986   2.679   5.592
 6438TIP3   OH219249   3.151   1.831   4.555
 6438TIP3    H119250   3.247   1.836   4.572
 6438TIP3    H219251   3.133   1.913   4.504
 6439TIP3   OH219252   2.315   2.290   5.261
 6439TIP3    H119253   2.356   2.265   5.176
 6439TIP3    H219254   2.367   2.237   5.324
 6440TIP3   OH219255   2.768   2.420   4.405
 6440TIP3    H119256   2.720   2.506   4.411
 6440TIP3    H219257   2.716   2.366   4.468
 6441TIP3   OH219258   2.200   2.216   5.878
 6441TIP3    H119259   2.222   2.203   5.972
 6441TIP3    H219260   2.133   2.147   5.864
 6442TIP3   OH219261   2.927   2.331   5.896
 6442TIP3    H119262   2.868   2.271   5.848
 6442TIP3    H219263   3.015   2.296   5.869
 6443TIP3   OH219264   3.182   2.847   5.484
 6443TIP3    H119265   3.085   2.850   5.496
 6443TIP3    H219266   3.211   2.902   5.561
 6444TIP3   OH219267   3.591   1.925   4.390
 6444TIP3    H119268   3.529   1.880   4.327
 6444TIP3    H219269   3.588   2.015   4.350
 6445TIP3   OH219270   3.812   2.782   5.470
 6445TIP3    H119271   3.715   2.775   5.461
 6445TIP3    H219272   3.839   2.752   5.380
 6446TIP3   OH219273   3.285   2.741   4.295
 6446TIP3    H119274   3.272   2.670   4.359
 6446TIP3    H219275   3.308   2.694   4.212
 6447TIP3   OH219276   3.289   2.373   5.128
 6447TIP3    H119277   3.196   2.347   5.143
 6447TIP3    H219278   3.323   2.291   5.086
 6448TIP3   OH219279   2.421   2.599   4.887
 6448TIP3    H119280   2.420   2.681   4.834
 6448TIP3    H219281   2.326   2.587   4.903
 6449TIP3   OH219282   1.983   1.902   4.594
 6449TIP3    H119283   2.029   1.986   4.616
 6449TIP3    H219284   1.906   1.907   4.655
 6450TIP3   OH219285   2.549   2.361   4.828
 6450TIP3    H119286   2.517   2.452   4.848
 6450TIP3    H219287   2.517   2.312   4.906
 6451TIP3   OH219288   2.690   2.941   5.355
 6451TIP3    H119289   2.730   3.015   5.305
 6451TIP3    H219290   2.767   2.906   5.403
 6452TIP3   OH219291   2.338   2.838   4.739
 6452TIP3    H119292   2.252   2.848   4.786
 6452TIP3    H219293   2.372   2.930   4.744
 6453TIP3   OH219294   3.073   2.577   5.318
 6453TIP3    H119295   3.062   2.574   5.415
 6453TIP3    H219296   3.154   2.527   5.306
 6454TIP3   OH219297   3.052   2.465   4.202
 6454TIP3    H119298   3.109   2.442   4.279
 6454TIP3    H219299   2.965   2.444   4.238
 6455TIP3   OH219300   3.323   3.108   5.366
 6455TIP3    H119301   3.242   3.054   5.357
 6455TIP3    H219302   3.309   3.173   5.293
 6456TIP3   OH219303   3.377   2.928   4.022
 6456TIP3    H119304   3.431   2.999   3.980
 6456TIP3    H219305   3.300   2.982   4.049
 6457TIP3   OH219306   2.411   1.720   5.883
 6457TIP3    H119307   2.314   1.719   5.897
 6457TIP3    H219308   2.441   1.665   5.957
 6458TIP3   OH219309   3.214   2.398   4.413
 6458TIP3    H119310   3.205   2.333   4.486
 6458TIP3    H219311   3.312   2.398   4.402
 6459TIP3   OH219312   2.125   2.803   5.515
 6459TIP3    H119313   2.181   2.733   5.553
 6459TIP3    H219314   2.154   2.880   5.567
 6460TIP3   OH219315   2.413   2.448   4.199
 6460TIP3    H119316   2.430   2.355   4.176
 6460TIP3    H219317   2.395   2.441   4.295
 6461TIP3   OH219318   2.359   2.455   4.470
 6461TIP3    H119319   2.433   2.428   4.527
 6461TIP3    H219320   2.362   2.553   4.480
 6462TIP3   OH219321   2.092   2.145   4.676
 6462TIP3    H119322   2.027   2.191   4.733
 6462TIP3    H219323   2.108   2.214   4.609
 6463TIP3   OH219324   3.248   1.781   5.566
 6463TIP3    H119325   3.327   1.824   5.603
 6463TIP3    H219326   3.238   1.702   5.622
 6464TIP3   OH219327   3.129   1.533   4.734
 6464TIP3    H119328   3.118   1.559   4.641
 6464TIP3    H219329   3.171   1.614   4.773
 6465TIP3   OH219330   2.625   2.650   4.415
 6465TIP3    H119331   2.539   2.675   4.453
 6465TIP3    H219332   2.649   2.733   4.370
 6466TIP3   OH219333   2.809   1.717   4.835
 6466TIP3    H119334   2.875   1.788   4.818
 6466TIP3    H219335   2.818   1.706   4.932
 6467TIP3   OH219336   3.086   2.030   5.641
 6467TIP3    H119337   3.111   2.084   5.719
 6467TIP3    H219338   3.141   1.950   5.652
 6468TIP3   OH219339   2.958   1.435   4.933
 6468TIP3    H119340   2.958   1.508   4.997
 6468TIP3    H219341   3.020   1.470   4.865
 6469TIP3   OH219342   2.370   2.726   4.489
 6469TIP3    H119343   2.343   2.797   4.427
 6469TIP3    H219344   2.357   2.770   4.576
 6470TIP3   OH219345   2.472   1.441   4.724
 6470TIP3    H119346   2.469   1.530   4.763
 6470TIP3    H219347   2.569   1.423   4.733
 6471TIP3   OH219348   3.719   1.935   5.626
 6471TIP3    H119349   3.620   1.932   5.628
 6471TIP3    H219350   3.736   1.890   5.542
 6472TIP3   OH219351   3.375   2.128   5.011
 6472TIP3    H119352   3.300   2.068   5.025
 6472TIP3    H219353   3.447   2.082   5.059
 6473TIP3   OH219354   2.090   2.353   4.479
 6473TIP3    H119355   2.159   2.420   4.490
 6473TIP3    H219356   2.134   2.295   4.413
 6474TIP3   OH219357   2.031   1.631   4.613
 6474TIP3    H119358   2.034   1.729   4.611
 6474TIP3    H219359   1.948   1.613   4.568
 6475TIP3   OH219360   3.344   3.086   4.958
 6475TIP3    H119361   3.302   3.132   4.882
 6475TIP3    H219362   3.439   3.104   4.938
 6476TIP3   OH219363   2.419   1.352   5.485
 6476TIP3    H119364   2.389   1.316   5.399
 6476TIP3    H219365   2.410   1.274   5.544
 6477TIP3   OH219366   1.953   2.564   4.864
 6477TIP3    H119367   1.893   2.600   4.931
 6477TIP3    H219368   1.922   2.611   4.783
 6478TIP3   OH219369   2.120   3.119   5.940
 6478TIP3    H119370   2.206   3.120   5.987
 6478TIP3    H219371   2.102   3.024   5.937
 6479TIP3   OH219372   2.594   3.074   5.983
 6479TIP3    H119373   2.689   3.056   5.991
 6479TIP3    H219374   2.571   3.012   5.910
 6480TIP3   OH219375   2.574   2.651   4.104
 6480TIP3    H119376   2.521   2.581   4.148
 6480TIP3    H219377   2.655   2.602   4.083
 6481TIP3   OH219378   3.234   2.985   5.718
 6481TIP3    H119379   3.229   2.914   5.786
 6481TIP3    H219380   3.313   3.035   5.747
 6482TIP3   OH219381   3.013   2.689   4.021
 6482TIP3    H119382   3.062   2.633   4.085
 6482TIP3    H219383   3.074   2.692   3.946
 6483TIP3   OH219384   2.247   2.521   6.139
 6483TIP3    H119385   2.263   2.425   6.146
 6483TIP3    H219386   2.160   2.522   6.094
 6484TIP3   OH219387   2.226   2.166   4.336
 6484TIP3    H119388   2.283   2.137   4.410
 6484TIP3    H219389   2.294   2.172   4.264
 6485TIP3   OH219390   2.853   2.606   5.913
 6485TIP3    H119391   2.815   2.626   5.826
 6485TIP3    H219392   2.886   2.515   5.902
 6486TIP3   OH219393   2.733   2.367   4.137
 6486TIP3    H119394   2.739   2.381   4.234
 6486TIP3    H219395   2.735   2.269   4.134
 6487TIP3   OH219396   3.346   2.619   5.519
 6487TIP3    H119397   3.423   2.659   5.475
 6487TIP3    H219398   3.278   2.688   5.504
 6488TIP3   OH219399   2.367   2.255   6.121
 6488TIP3    H119400   2.446   2.205   6.095
 6488TIP3    H219401   2.394   2.287   6.210
 6489TIP3   OH219402   2.425   2.076   4.550
 6489TIP3    H119403   2.403   2.040   4.637
 6489TIP3    H219404   2.466   1.999   4.505
 6490TIP3   OH219405   2.698   2.134   5.779
 6490TIP3    H119406   2.623   2.198   5.782
 6490TIP3    H219407   2.751   2.170   5.704
 6491TIP3   OH219408   2.535   1.870   4.394
 6491TIP3    H119409   2.510   1.878   4.300
 6491TIP3    H219410   2.633   1.874   4.387
 6492TIP3   OH219411   3.218   2.539   5.914
 6492TIP3    H119412   3.299   2.511   5.868
 6492TIP3    H219413   3.214   2.476   5.988
 6493TIP3   OH219414   3.350   2.195   4.061
 6493TIP3    H119415   3.330   2.152   3.976
 6493TIP3    H219416   3.319   2.287   4.041
 6494TIP3   OH219417   2.823   1.928   5.909
 6494TIP3    H119418   2.827   1.849   5.851
 6494TIP3    H219419   2.780   1.994   5.850
 6495TIP3   OH219420   2.828   1.715   5.716
 6495TIP3    H119421   2.857   1.755   5.632
 6495TIP3    H219422   2.735   1.691   5.697
 6496TIP3   OH219423   2.850   2.246   5.589
 6496TIP3    H119424   2.938   2.259   5.549
 6496TIP3    H219425   2.796   2.314   5.543
 6497TIP3   OH219426   3.434   2.214   5.967
 6497TIP3    H119427   3.481   2.130   5.983
 6497TIP3    H219428   3.505   2.270   5.933
 6498TIP3   OH219429   3.476   2.469   5.703
 6498TIP3    H119430   3.419   2.525   5.645
 6498TIP3    H219431   3.564   2.489   5.665
 6499TIP3   OH219432   2.701   2.035   6.140
 6499TIP3    H119433   2.635   1.965   6.156
 6499TIP3    H219434   2.737   2.008   6.053
 6500TIP3   OH219435   2.959   1.475   5.783
 6500TIP3    H119436   2.910   1.557   5.762
 6500TIP3    H219437   2.890   1.407   5.774
 6501TIP3   OH219438   3.085   1.979   6.000
 6501TIP3    H119439   3.075   1.964   6.096
 6501TIP3    H219440   2.995   1.955   5.970
 6502TIP3   OH219441   3.323   1.930   5.854
 6502TIP3    H119442   3.249   1.930   5.918
 6502TIP3    H219443   3.398   1.900   5.910
 6503TIP3   OH219444   3.549   1.871   6.004
 6503TIP3    H119445   3.566   1.775   6.020
 6503TIP3    H219446   3.548   1.908   6.095
 6504TIP3   OH219447   2.541   1.814   6.196
 6504TIP3    H119448   2.548   1.722   6.164
 6504TIP3    H219449   2.581   1.803   6.285
 6505TIP3   OH219450   3.055   1.489   6.040
 6505TIP3    H119451   3.120   1.416   6.038
 6505TIP3    H219452   3.015   1.481   5.952
 6506TIP3   OH219453   3.121   1.703   6.198
 6506TIP3    H119454   3.100   1.630   6.135
 6506TIP3    H219455   3.041   1.758   6.192
 6507TIP3   OH219456   2.341   2.924   4.297
 6507TIP3    H119457   2.438   2.919   4.282
 6507TIP3    H219458   2.316   2.982   4.223
 6508TIP3   OH219459   1.820   2.313   4.512
 6508TIP3    H119460   1.916   2.334   4.501
 6508TIP3    H219461   1.816   2.223   4.472
 6509TIP3   OH219462   1.737   2.920   4.933
 6509TIP3    H119463   1.670   2.859   4.895
 6509TIP3    H219464   1.782   2.861   4.997
 6510TIP3   OH219465   1.873   2.766   5.117
 6510TIP3    H119466   1.862   2.699   5.186
 6510TIP3    H219467   1.925   2.832   5.167
 6511TIP3   OH219468   3.600   3.172   4.919
 6511TIP3    H119469   3.627   3.210   5.005
 6511TIP3    H219470   3.665   3.210   4.858
 6512TIP3   OH219471   3.626   3.195   5.204
 6512TIP3    H119472   3.583   3.108   5.197
 6512TIP3    H219473   3.704   3.171   5.257
 6513TIP3   OH219474   3.673   2.872   5.773
 6513TIP3    H119475   3.602   2.881   5.840
 6513TIP3    H219476   3.717   2.960   5.778
 6514TIP3   OH219477   3.492   2.384   4.390
 6514TIP3    H119478   3.558   2.450   4.361
 6514TIP3    H219479   3.537   2.347   4.470
 6515TIP3   OH219480   3.619   2.251   4.595
 6515TIP3    H119481   3.553   2.210   4.656
 6515TIP3    H219482   3.686   2.287   4.657
 6516TIP3   OH219483   3.674   2.645   5.027
 6516TIP3    H119484   3.729   2.579   4.980
 6516TIP3    H219485   3.673   2.719   4.963
 6517TIP3   OH219486   3.502   2.943   5.222
 6517TIP3    H119487   3.430   2.986   5.272
 6517TIP3    H219488   3.453   2.898   5.150
 6518TIP3   OH219489   3.555   2.159   4.241
 6518TIP3    H119490   3.482   2.163   4.175
 6518TIP3    H219491   3.531   2.236   4.297
 6519TIP3   OH219492   3.424   1.830   4.196
 6519TIP3    H119493   3.378   1.867   4.120
 6519TIP3    H219494   3.404   1.735   4.186
 6520TIP3   OH219495   3.429   2.110   4.741
 6520TIP3    H119496   3.441   2.014   4.737
 6520TIP3    H219497   3.416   2.125   4.837
 6521TIP3   OH219498   2.056   2.183   5.489
 6521TIP3    H119499   2.055   2.149   5.398
 6521TIP3    H219500   2.154   2.184   5.506
 6522TIP3   OH219501   3.724   2.530   5.600
 6522TIP3    H119502   3.795   2.464   5.588
 6522TIP3    H219503   3.750   2.599   5.537
 6523TIP3   OH219504   3.910   2.330   5.607
 6523TIP3    H119505   3.836   2.281   5.649
 6523TIP3    H219506   3.985   2.269   5.628
 6524TIP3   OH219507   3.374   1.560   4.171
 6524TIP3    H119508   3.450   1.534   4.229
 6524TIP3    H219509   3.303   1.502   4.201
 6525TIP3   OH219510   3.427   1.825   4.632
 6525TIP3    H119511   3.469   1.737   4.648
 6525TIP3    H219512   3.486   1.860   4.563
 6526TIP3   OH219513   3.587   1.996   5.130
 6526TIP3    H119514   3.673   2.021   5.089
 6526TIP3    H219515   3.602   2.034   5.219
 6527TIP3   OH219516   3.657   2.144   5.361
 6527TIP3    H119517   3.581   2.179   5.411
 6527TIP3    H219518   3.691   2.225   5.317
 6528TIP3   OH219519   2.276   1.867   6.158
 6528TIP3    H119520   2.373   1.863   6.165
 6528TIP3    H219521   2.252   1.781   6.198
 6529TIP3   OH219522   4.107   1.735   5.916
 6529TIP3    H119523   4.166   1.666   5.877
 6529TIP3    H219524   4.096   1.794   5.839
 6530TIP3   OH219525   3.536   1.576   4.673
 6530TIP3    H119526   3.586   1.560   4.757
 6530TIP3    H219527   3.477   1.498   4.672
 6531TIP3   OH219528   2.236   1.561   5.495
 6531TIP3    H119529   2.298   1.486   5.504
 6531TIP3    H219530   2.298   1.635   5.486
 6532TIP3   OH219531   2.035   1.833   5.563
 6532TIP3    H119532   2.088   1.831   5.481
 6532TIP3    H219533   2.067   1.916   5.603
 6533TIP3   OH219534   3.971   1.880   5.721
 6533TIP3    H119535   3.879   1.911   5.727
 6533TIP3    H219536   3.959   1.799   5.668
 6534TIP3   OH219537   3.615   1.505   4.301
 6534TIP3    H119538   3.661   1.434   4.250
 6534TIP3    H219539   3.683   1.576   4.302
 6535TIP3   OH219540   2.024   1.331   5.063
 6535TIP3    H119541   1.933   1.333   5.097
 6535TIP3    H219542   2.018   1.393   4.987
 6536TIP3   OH219543   3.179   3.042   4.572
 6536TIP3    H119544   3.232   3.031   4.491
 6536TIP3    H219545   3.230   3.109   4.621
 6537TIP3   OH219546   2.244   1.419   5.882
 6537TIP3    H119547   2.193   1.414   5.965
 6537TIP3    H219548   2.176   1.454   5.821
 6538TIP3   OH219549   2.282   2.849   5.956
 6538TIP3    H119550   2.189   2.823   5.943
 6538TIP3    H219551   2.295   2.828   6.050
 6539TIP3   OH219552   2.463   2.881   5.506
 6539TIP3    H119553   2.417   2.958   5.467
 6539TIP3    H219554   2.550   2.893   5.461
 6540TIP3   OH219555   2.902   3.123   5.643
 6540TIP3    H119556   2.945   3.121   5.732
 6540TIP3    H219557   2.968   3.174   5.592
 6541TIP3   OH219558   3.083   3.276   5.505
 6541TIP3    H119559   3.153   3.226   5.462
 6541TIP3    H219560   3.136   3.333   5.565
 6542TIP3   OH219561   3.880   1.635   5.603
 6542TIP3    H119562   3.790   1.625   5.569
 6542TIP3    H219563   3.916   1.544   5.592
 6543TIP3   OH219564   2.135   3.131   5.533
 6543TIP3    H119565   2.046   3.165   5.510
 6543TIP3    H219566   2.152   3.181   5.614
 6544TIP3   OH219567   2.373   3.113   5.389
 6544TIP3    H119568   2.285   3.126   5.432
 6544TIP3    H219569   2.355   3.147   5.299
 6545TIP3   OH219570   2.799   3.141   5.188
 6545TIP3    H119571   2.730   3.159   5.120
 6545TIP3    H219572   2.811   3.230   5.226
 6546TIP3   OH219573   3.068   3.080   5.240
 6546TIP3    H119574   2.974   3.098   5.220
 6546TIP3    H219575   3.112   3.153   5.193
 6547TIP3   OH219576   3.273   3.271   5.151
 6547TIP3    H119577   3.258   3.356   5.105
 6547TIP3    H219578   3.300   3.213   5.077
 6548TIP3   OH219579   2.047   2.926   5.273
 6548TIP3    H119580   2.075   2.900   5.364
 6548TIP3    H219581   2.121   2.886   5.222
 6549TIP3   OH219582   2.244   2.801   5.134
 6549TIP3    H119583   2.259   2.717   5.183
 6549TIP3    H219584   2.335   2.838   5.132
 6550TIP3   OH219585   2.509   2.891   5.140
 6550TIP3    H119586   2.541   2.799   5.131
 6550TIP3    H219587   2.558   2.917   5.221
 6551TIP3   OH219588   3.078   1.546   5.215
 6551TIP3    H119589   3.041   1.476   5.271
 6551TIP3    H219590   3.157   1.504   5.177
 6552TIP3   OH219591   3.604   1.428   5.124
 6552TIP3    H119592   3.641   1.481   5.050
 6552TIP3    H219593   3.510   1.454   5.121
 6553TIP3   OH219594   3.701   1.530   4.890
 6553TIP3    H119595   3.775   1.478   4.853
 6553TIP3    H219596   3.736   1.621   4.876
 6554TIP3   OH219597   2.331   1.256   5.237
 6554TIP3    H119598   2.239   1.221   5.240
 6554TIP3    H219599   2.381   1.172   5.235
 6555TIP3   OH219600   2.115   1.130   4.885
 6555TIP3    H119601   2.150   1.187   4.815
 6555TIP3    H219602   2.091   1.195   4.954
 6556TIP3   OH219603   2.777   1.293   5.121
 6556TIP3    H119604   2.834   1.340   5.058
 6556TIP3    H219605   2.810   1.326   5.206
 6557TIP3   OH219606   3.317   1.439   5.104
 6557TIP3    H119607   3.326   1.398   5.017
 6557TIP3    H219608   3.307   1.359   5.161
 6558TIP3   OH219609   3.354   1.363   4.666
 6558TIP3    H119610   3.268   1.406   4.683
 6558TIP3    H219611   3.341   1.277   4.710
 6559TIP3   OH219612   1.836   2.704   4.664
 6559TIP3    H119613   1.750   2.674   4.630
 6559TIP3    H219614   1.830   2.799   4.643
 6560TIP3   OH219615   2.240   1.289   4.648
 6560TIP3    H119616   2.289   1.225   4.592
 6560TIP3    H219617   2.314   1.343   4.684
 6561TIP3   OH219618   2.749   1.466   4.747
 6561TIP3    H119619   2.810   1.420   4.808
 6561TIP3    H219620   2.768   1.559   4.773
 6562TIP3   OH219621   2.609   2.884   4.249
 6562TIP3    H119622   2.697   2.908   4.213
 6562TIP3    H219623   2.587   2.809   4.189
 6563TIP3   OH219624   3.324   3.008   4.340
 6563TIP3    H119625   3.315   2.911   4.326
 6563TIP3    H219626   3.285   3.042   4.257
 6564TIP3   OH219627   2.542   1.538   6.129
 6564TIP3    H119628   2.508   1.467   6.187
 6564TIP3    H219629   2.637   1.538   6.157
 6565TIP3   OH219630   2.790   1.534   6.251
 6565TIP3    H119631   2.876   1.507   6.214
 6565TIP3    H219632   2.779   1.465   6.320
 6566TIP3   OH219633   1.910   2.722   4.303
 6566TIP3    H119634   1.915   2.748   4.396
 6566TIP3    H219635   1.999   2.681   4.288
 6567TIP3   OH219636   3.619   1.602   6.034
 6567TIP3    H119637   3.636   1.572   6.125
 6567TIP3    H219638   3.708   1.597   5.994
 6568TIP3   OH219639   3.551   3.151   5.529
 6568TIP3    H119640   3.473   3.121   5.477
 6568TIP3    H219641   3.533   3.246   5.534
 6569TIP3   OH219642   4.822   2.526   4.290
 6569TIP3    H119643   4.791   2.617   4.268
 6569TIP3    H219644   4.745   2.474   4.259
 6570TIP3   OH219645   4.824   2.523   4.678
 6570TIP3    H119646   4.857   2.499   4.767
 6570TIP3    H219647   4.779   2.442   4.650
 6571TIP3   OH219648   4.116   2.415   5.042
 6571TIP3    H119649   4.147   2.347   5.104
 6571TIP3    H219650   4.194   2.473   5.039
 6572TIP3   OH219651   5.068   2.826   4.359
 6572TIP3    H119652   5.046   2.760   4.427
 6572TIP3    H219653   5.094   2.903   4.412
 6573TIP3   OH219654   4.093   2.829   4.763
 6573TIP3    H119655   4.083   2.731   4.765
 6573TIP3    H219656   4.190   2.837   4.755
 6574TIP3   OH219657   3.798   2.030   4.545
 6574TIP3    H119658   3.751   2.113   4.565
 6574TIP3    H219659   3.726   1.979   4.504
 6575TIP3   OH219660   3.854   2.318   4.725
 6575TIP3    H119661   3.905   2.241   4.760
 6575TIP3    H219662   3.918   2.358   4.664
 6576TIP3   OH219663   4.716   3.287   4.376
 6576TIP3    H119664   4.759   3.214   4.327
 6576TIP3    H219665   4.696   3.246   4.461
 6577TIP3   OH219666   4.617   2.751   4.723
 6577TIP3    H119667   4.657   2.675   4.677
 6577TIP3    H219668   4.700   2.797   4.749
 6578TIP3   OH219669   5.637   2.070   4.723
 6578TIP3    H119670   5.664   2.154   4.765
 6578TIP3    H219671   5.652   2.090   4.629
 6579TIP3   OH219672   5.035   2.250   4.752
 6579TIP3    H119673   5.074   2.163   4.773
 6579TIP3    H219674   4.999   2.234   4.663
 6580TIP3   OH219675   4.374   1.911   4.718
 6580TIP3    H119676   4.351   1.983   4.656
 6580TIP3    H219677   4.323   1.837   4.677
 6581TIP3   OH219678   5.067   2.002   4.341
 6581TIP3    H119679   5.139   1.987   4.407
 6581TIP3    H219680   5.118   2.038   4.266
 6582TIP3   OH219681   4.003   2.113   4.828
 6582TIP3    H119682   4.086   2.093   4.876
 6582TIP3    H219683   4.017   2.057   4.748
 6583TIP3   OH219684   4.442   2.310   4.623
 6583TIP3    H119685   4.536   2.285   4.636
 6583TIP3    H219686   4.404   2.226   4.591
 6584TIP3   OH219687   5.708   2.281   4.889
 6584TIP3    H119688   5.623   2.326   4.870
 6584TIP3    H219689   5.718   2.303   4.983
 6585TIP3   OH219690   4.368   1.890   5.152
 6585TIP3    H119691   4.307   1.929   5.087
 6585TIP3    H219692   4.318   1.908   5.235
 6586TIP3   OH219693   4.712   2.747   4.159
 6586TIP3    H119694   4.668   2.731   4.075
 6586TIP3    H219695   4.667   2.829   4.188
 6587TIP3   OH219696   4.472   2.670   4.946
 6587TIP3    H119697   4.411   2.738   4.983
 6587TIP3    H219698   4.514   2.719   4.872
 6588TIP3   OH219699   5.271   2.005   4.521
 6588TIP3    H119700   5.245   1.968   4.606
 6588TIP3    H219701   5.321   2.085   4.548
 6589TIP3   OH219702   4.238   2.009   4.938
 6589TIP3    H119703   4.300   2.082   4.962
 6589TIP3    H219704   4.289   1.968   4.864
 6590TIP3   OH219705   4.303   2.867   5.047
 6590TIP3    H119706   4.276   2.954   5.010
 6590TIP3    H219707   4.223   2.849   5.102
 6591TIP3   OH219708   3.691   2.554   4.284
 6591TIP3    H119709   3.653   2.581   4.198
 6591TIP3    H219710   3.722   2.641   4.320
 6592TIP3   OH219711   5.136   3.070   4.522
 6592TIP3    H119712   5.046   3.061   4.564
 6592TIP3    H219713   5.126   3.156   4.478
 6593TIP3   OH219714   5.427   1.969   4.888
 6593TIP3    H119715   5.339   1.996   4.857
 6593TIP3    H219716   5.485   2.002   4.815
 6594TIP3   OH219717   4.719   1.611   4.872
 6594TIP3    H119718   4.703   1.516   4.891
 6594TIP3    H219719   4.642   1.651   4.919
 6595TIP3   OH219720   4.836   3.113   4.198
 6595TIP3    H119721   4.886   3.032   4.176
 6595TIP3    H219722   4.896   3.180   4.158
 6596TIP3   OH219723   4.980   2.897   4.106
 6596TIP3    H119724   4.931   2.820   4.076
 6596TIP3    H219725   5.018   2.864   4.190
 6597TIP3   OH219726   5.361   2.981   4.867
 6597TIP3    H119727   5.346   2.904   4.808
 6597TIP3    H219728   5.340   3.056   4.807
 6598TIP3   OH219729   4.651   2.375   4.127
 6598TIP3    H119730   4.570   2.427   4.108
 6598TIP3    H219731   4.695   2.375   4.041
 6599TIP3   OH219732   4.609   2.164   3.838
 6599TIP3    H119733   4.676   2.214   3.888
 6599TIP3    H219734   4.667   2.101   3.790
 6600TIP3   OH219735   5.555   2.623   4.715
 6600TIP3    H119736   5.470   2.672   4.719
 6600TIP3    H219737   5.584   2.646   4.624
 6601TIP3   OH219738   5.000   2.459   4.095
 6601TIP3    H119739   4.944   2.484   4.172
 6601TIP3    H219740   5.083   2.435   4.140
 6602TIP3   OH219741   5.233   2.497   5.011
 6602TIP3    H119742   5.229   2.580   5.061
 6602TIP3    H219743   5.146   2.498   4.966
 6603TIP3   OH219744   4.231   2.454   4.514
 6603TIP3    H119745   4.191   2.397   4.445
 6603TIP3    H219746   4.308   2.401   4.544
 6604TIP3   OH219747   4.360   2.865   4.661
 6604TIP3    H119748   4.340   2.832   4.572
 6604TIP3    H219749   4.449   2.829   4.677
 6605TIP3   OH219750   4.366   2.427   4.868
 6605TIP3    H119751   4.399   2.404   4.779
 6605TIP3    H219752   4.409   2.513   4.886
 6606TIP3   OH219753   4.898   3.065   4.647
 6606TIP3    H119754   4.878   3.145   4.699
 6606TIP3    H219755   4.878   2.993   4.710
 6607TIP3   OH219756   4.506   2.983   5.193
 6607TIP3    H119757   4.445   3.045   5.238
 6607TIP3    H219758   4.441   2.930   5.141
 6608TIP3   OH219759   4.839   2.315   3.923
 6608TIP3    H119760   4.897   2.377   3.973
 6608TIP3    H219761   4.864   2.337   3.830
 6609TIP3   OH219762   4.260   2.540   5.294
 6609TIP3    H119763   4.264   2.628   5.338
 6609TIP3    H219764   4.166   2.518   5.308
 6610TIP3   OH219765   4.586   2.992   4.197
 6610TIP3    H119766   4.666   3.048   4.209
 6610TIP3    H219767   4.523   3.053   4.159
 6611TIP3   OH219768   4.300   3.150   5.280
 6611TIP3    H119769   4.265   3.152   5.188
 6611TIP3    H219770   4.219   3.128   5.331
 6612TIP3   OH219771   5.355   1.554   3.974
 6612TIP3    H119772   5.273   1.576   4.023
 6612TIP3    H219773   5.369   1.637   3.923
 6613TIP3   OH219774   4.100   2.299   4.314
 6613TIP3    H119775   4.030   2.344   4.261
 6613TIP3    H219776   4.059   2.213   4.330
 6614TIP3   OH219777   5.154   2.923   3.520
 6614TIP3    H119778   5.161   3.020   3.506
 6614TIP3    H219779   5.247   2.895   3.508
 6615TIP3   OH219780   3.878   2.683   5.226
 6615TIP3    H119781   3.812   2.661   5.157
 6615TIP3    H219782   3.916   2.596   5.249
 6616TIP3   OH219783   3.733   2.874   4.860
 6616TIP3    H119784   3.829   2.871   4.848
 6616TIP3    H219785   3.723   2.954   4.914
 6617TIP3   OH219786   5.597   3.332   4.915
 6617TIP3    H119787   5.597   3.235   4.929
 6617TIP3    H219788   5.513   3.355   4.961
 6618TIP3   OH219789   4.704   3.110   5.051
 6618TIP3    H119790   4.700   3.204   5.082
 6618TIP3    H219791   4.631   3.071   5.103
 6619TIP3   OH219792   4.468   3.240   4.000
 6619TIP3    H119793   4.416   3.221   3.920
 6619TIP3    H219794   4.431   3.326   4.029
 6620TIP3   OH219795   3.902   3.092   4.386
 6620TIP3    H119796   3.949   3.082   4.471
 6620TIP3    H219797   3.842   3.016   4.388
 6621TIP3   OH219798   4.667   3.145   3.639
 6621TIP3    H119799   4.724   3.073   3.603
 6621TIP3    H219800   4.701   3.153   3.730
 6622TIP3   OH219801   4.719   3.191   3.909
 6622TIP3    H119802   4.629   3.200   3.949
 6622TIP3    H219803   4.769   3.154   3.983
 6623TIP3   OH219804   5.487   2.459   5.188
 6623TIP3    H119805   5.402   2.469   5.143
 6623TIP3    H219806   5.502   2.362   5.180
 6624TIP3   OH219807   4.084   2.865   5.210
 6624TIP3    H119808   4.133   2.849   5.294
 6624TIP3    H219809   4.009   2.803   5.218
 6625TIP3   OH219810   4.482   1.688   5.000
 6625TIP3    H119811   4.393   1.659   4.972
 6625TIP3    H219812   4.456   1.768   5.051
 6626TIP3   OH219813   5.015   1.802   5.195
 6626TIP3    H119814   5.082   1.778   5.262
 6626TIP3    H219815   4.931   1.785   5.243
 6627TIP3   OH219816   5.257   2.236   5.117
 6627TIP3    H119817   5.204   2.231   5.199
 6627TIP3    H219818   5.228   2.321   5.078
 6628TIP3   OH219819   4.916   2.356   3.667
 6628TIP3    H119820   4.880   2.336   3.578
 6628TIP3    H219821   4.997   2.405   3.643
 6629TIP3   OH219822   4.628   1.734   3.971
 6629TIP3    H119823   4.593   1.733   4.062
 6629TIP3    H219824   4.586   1.653   3.936
 6630TIP3   OH219825   4.416   2.205   5.017
 6630TIP3    H119826   4.365   2.223   5.099
 6630TIP3    H219827   4.398   2.287   4.965
 6631TIP3   OH219828   4.298   2.091   4.530
 6631TIP3    H119829   4.205   2.065   4.550
 6631TIP3    H219830   4.309   2.050   4.442
 6632TIP3   OH219831   4.788   2.176   4.261
 6632TIP3    H119832   4.737   2.247   4.218
 6632TIP3    H219833   4.842   2.143   4.187
 6633TIP3   OH219834   4.963   2.452   5.345
 6633TIP3    H119835   4.938   2.380   5.407
 6633TIP3    H219836   5.056   2.465   5.368
 6634TIP3   OH219837   4.946   2.203   4.496
 6634TIP3    H119838   4.882   2.231   4.428
 6634TIP3    H219839   4.979   2.122   4.451
 6635TIP3   OH219840   4.233   2.234   5.221
 6635TIP3    H119841   4.262   2.289   5.295
 6635TIP3    H219842   4.219   2.148   5.266
 6636TIP3   OH219843   4.285   1.714   3.936
 6636TIP3    H119844   4.273   1.709   4.033
 6636TIP3    H219845   4.206   1.765   3.910
 6637TIP3   OH219846   3.826   1.754   4.806
 6637TIP3    H119847   3.900   1.787   4.862
 6637TIP3    H219848   3.871   1.723   4.726
 6638TIP3   OH219849   3.790   1.733   4.324
 6638TIP3    H119850   3.838   1.770   4.248
 6638TIP3    H219851   3.732   1.809   4.346
 6639TIP3   OH219852   4.960   2.449   4.918
 6639TIP3    H119853   4.992   2.377   4.858
 6639TIP3    H219854   4.928   2.395   4.994
 6640TIP3   OH219855   4.630   1.909   4.592
 6640TIP3    H119856   4.547   1.910   4.644
 6640TIP3    H219857   4.698   1.908   4.661
 6641TIP3   OH219858   4.060   1.971   4.598
 6641TIP3    H119859   3.966   1.977   4.571
 6641TIP3    H219860   4.083   1.878   4.577
 6642TIP3   OH219861   4.325   1.963   4.290
 6642TIP3    H119862   4.418   1.980   4.267
 6642TIP3    H219863   4.277   1.986   4.207
 6643TIP3   OH219864   5.118   1.986   4.791
 6643TIP3    H119865   5.090   2.000   4.885
 6643TIP3    H219866   5.047   1.928   4.760
 6644TIP3   OH219867   4.174   1.998   4.066
 6644TIP3    H119868   4.103   1.953   4.016
 6644TIP3    H219869   4.226   2.036   3.992
 6645TIP3   OH219870   5.291   3.676   5.015
 6645TIP3    H119871   5.285   3.701   4.921
 6645TIP3    H219872   5.367   3.728   5.045
 6646TIP3   OH219873   4.244   2.788   5.433
 6646TIP3    H119874   4.324   2.818   5.482
 6646TIP3    H219875   4.179   2.785   5.507
 6647TIP3   OH219876   4.706   2.243   4.692
 6647TIP3    H119877   4.780   2.199   4.647
 6647TIP3    H219878   4.707   2.201   4.781
 6648TIP3   OH219879   4.226   1.727   4.574
 6648TIP3    H119880   4.189   1.650   4.623
 6648TIP3    H219881   4.270   1.684   4.500
 6649TIP3   OH219882   4.684   2.147   4.969
 6649TIP3    H119883   4.593   2.176   4.990
 6649TIP3    H219884   4.739   2.204   5.026
 6650TIP3   OH219885   4.423   2.526   4.075
 6650TIP3    H119886   4.348   2.463   4.062
 6650TIP3    H219887   4.402   2.561   4.165
 6651TIP3   OH219888   5.319   2.763   4.702
 6651TIP3    H119889   5.342   2.815   4.621
 6651TIP3    H219890   5.234   2.722   4.676
 6652TIP3   OH219891   4.879   1.838   3.942
 6652TIP3    H119892   4.782   1.819   3.950
 6652TIP3    H219893   4.885   1.933   3.965
 6653TIP3   OH219894   4.823   2.849   5.072
 6653TIP3    H119895   4.843   2.828   5.164
 6653TIP3    H219896   4.782   2.937   5.078
 6654TIP3   OH219897   4.946   2.088   4.043
 6654TIP3    H119898   5.042   2.097   4.057
 6654TIP3    H219899   4.925   2.168   3.991
 6655TIP3   OH219900   4.113   2.549   4.749
 6655TIP3    H119901   4.153   2.522   4.664
 6655TIP3    H219902   4.159   2.492   4.812
 6656TIP3   OH219903   4.566   2.678   3.898
 6656TIP3    H119904   4.518   2.764   3.902
 6656TIP3    H219905   4.511   2.623   3.958
 6657TIP3   OH219906   3.996   2.471   5.363
 6657TIP3    H119907   4.016   2.455   5.458
 6657TIP3    H219908   3.928   2.403   5.347
 6658TIP3   OH219909   4.720   2.588   5.382
 6658TIP3    H119910   4.657   2.526   5.341
 6658TIP3    H219911   4.806   2.550   5.353
 6659TIP3   OH219912   4.981   3.108   4.969
 6659TIP3    H119913   4.884   3.105   4.981
 6659TIP3    H219914   5.007   3.160   5.047
 6660TIP3   OH219915   5.390   2.181   3.875
 6660TIP3    H119916   5.328   2.137   3.812
 6660TIP3    H219917   5.385   2.271   3.835
 6661TIP3   OH219918   5.610   3.042   4.954
 6661TIP3    H119919   5.513   3.034   4.947
 6661TIP3    H219920   5.636   3.010   4.865
 6662TIP3   OH219921   5.097   2.998   3.787
 6662TIP3    H119922   5.062   2.931   3.848
 6662TIP3    H219923   5.104   2.950   3.703
 6663TIP3   OH219924   5.087   2.627   4.618
 6663TIP3    H119925   4.993   2.602   4.633
 6663TIP3    H219926   5.120   2.547   4.573
 6664TIP3   OH219927   4.216   2.856   4.376
 6664TIP3    H119928   4.214   2.938   4.321
 6664TIP3    H219929   4.122   2.841   4.389
 6665TIP3   OH219930   3.776   2.160   4.075
 6665TIP3    H119931   3.823   2.243   4.097
 6665TIP3    H219932   3.701   2.164   4.139
 6666TIP3   OH219933   4.348   2.619   4.317
 6666TIP3    H119934   4.314   2.710   4.335
 6666TIP3    H219935   4.311   2.570   4.393
 6667TIP3   OH219936   4.485   3.198   4.842
 6667TIP3    H119937   4.523   3.272   4.791
 6667TIP3    H219938   4.563   3.165   4.888
 6668TIP3   OH219939   4.135   3.090   4.229
 6668TIP3    H119940   4.048   3.102   4.272
 6668TIP3    H219941   4.169   3.183   4.232
 6669TIP3   OH219942   4.869   2.833   4.804
 6669TIP3    H119943   4.859   2.833   4.902
 6669TIP3    H219944   4.948   2.778   4.793
 6670TIP3   OH219945   4.849   2.728   3.686
 6670TIP3    H119946   4.901   2.701   3.765
 6670TIP3    H219947   4.760   2.700   3.713
 6671TIP3   OH219948   5.121   3.363   4.854
 6671TIP3    H119949   5.041   3.307   4.849
 6671TIP3    H219950   5.103   3.427   4.781
 6672TIP3   OH219951   5.186   3.199   3.505
 6672TIP3    H119952   5.220   3.272   3.451
 6672TIP3    H219953   5.106   3.243   3.541
 6673TIP3   OH219954   4.207   1.990   5.351
 6673TIP3    H119955   4.116   1.975   5.380
 6673TIP3    H219956   4.257   1.978   5.436
 6674TIP3   OH219957   5.009   2.655   3.898
 6674TIP3    H119958   4.999   2.592   3.971
 6674TIP3    H219959   5.106   2.655   3.888
 6675TIP3   OH219960   3.922   3.060   5.003
 6675TIP3    H119961   3.977   2.989   5.041
 6675TIP3    H219962   3.951   3.137   5.054
 6676TIP3   OH219963   4.213   2.705   3.685
 6676TIP3    H119964   4.225   2.612   3.660
 6676TIP3    H219965   4.193   2.697   3.781
 6677TIP3   OH219966   4.159   2.710   3.955
 6677TIP3    H119967   4.228   2.687   4.018
 6677TIP3    H219968   4.158   2.809   3.963
 6678TIP3   OH219969   3.888   2.402   4.163
 6678TIP3    H119970   3.823   2.448   4.220
 6678TIP3    H219971   3.902   2.471   4.094
 6679TIP3   OH219972   5.051   2.035   5.051
 6679TIP3    H119973   5.124   2.075   5.100
 6679TIP3    H219974   5.031   1.956   5.106
 6680TIP3   OH219975   4.928   1.787   4.222
 6680TIP3    H119976   4.911   1.810   4.128
 6680TIP3    H219977   4.966   1.870   4.257
 6681TIP3   OH219978   4.424   2.909   3.905
 6681TIP3    H119979   4.336   2.931   3.942
 6681TIP3    H219980   4.439   2.986   3.849
 6682TIP3   OH219981   4.610   1.972   4.322
 6682TIP3    H119982   4.674   2.045   4.305
 6682TIP3    H219983   4.616   1.964   4.420
 6683TIP3   OH219984   4.883   2.289   5.126
 6683TIP3    H119985   4.903   2.343   5.206
 6683TIP3    H219986   4.932   2.207   5.145
 6684TIP3   OH219987   4.754   1.694   4.423
 6684TIP3    H119988   4.742   1.773   4.479
 6684TIP3    H219989   4.817   1.729   4.355
 6685TIP3   OH219990   4.170   2.981   3.977
 6685TIP3    H119991   4.139   3.051   3.913
 6685TIP3    H219992   4.152   3.025   4.063
 6686TIP3   OH219993   4.268   1.697   4.212
 6686TIP3    H119994   4.265   1.788   4.250
 6686TIP3    H219995   4.365   1.681   4.220
 6687TIP3   OH219996   5.521   2.189   5.107
 6687TIP3    H119997   5.423   2.192   5.119
 6687TIP3    H219998   5.525   2.140   5.023
 6688TIP3   OH219999   5.172   2.382   4.497
 6688TIP3    H120000   5.094   2.326   4.509
 6688TIP3    H220001   5.241   2.334   4.547
 6689TIP3   OH220002   3.884   2.608   3.968
 6689TIP3    H120003   3.945   2.684   3.974
 6689TIP3    H220004   3.932   2.555   3.901
 6690TIP3   OH220005   3.829   1.890   4.103
 6690TIP3    H120006   3.831   1.988   4.098
 6690TIP3    H220007   3.747   1.870   4.058
 6691TIP3   OH220008   5.144   3.339   4.448
 6691TIP3    H120009   5.101   3.387   4.374
 6691TIP3    H220010   5.238   3.356   4.425
 6692TIP3   OH220011   4.218   1.609   4.970
 6692TIP3    H120012   4.186   1.574   4.884
 6692TIP3    H220013   4.207   1.531   5.029
 6693TIP3   OH220014   3.750   2.818   4.351
 6693TIP3    H120015   3.690   2.855   4.418
 6693TIP3    H220016   3.719   2.867   4.270
 6694TIP3   OH220017   3.916   3.375   5.426
 6694TIP3    H120018   4.002   3.375   5.474
 6694TIP3    H220019   3.896   3.280   5.424
 6695TIP3   OH220020   4.392   3.329   5.471
 6695TIP3    H120021   4.487   3.311   5.475
 6695TIP3    H220022   4.365   3.269   5.398
 6696TIP3   OH220023   4.374   2.908   3.593
 6696TIP3    H120024   4.320   2.837   3.634
 6696TIP3    H220025   4.450   2.857   3.561
 6697TIP3   OH220026   5.033   3.241   5.204
 6697TIP3    H120027   5.026   3.171   5.272
 6697TIP3    H220028   5.109   3.293   5.235
 6698TIP3   OH220029   4.810   2.947   3.510
 6698TIP3    H120030   4.851   2.881   3.569
 6698TIP3    H220031   4.868   2.944   3.431
 6699TIP3   OH220032   4.043   2.777   5.625
 6699TIP3    H120033   4.061   2.682   5.631
 6699TIP3    H220034   3.956   2.779   5.580
 6700TIP3   OH220035   4.022   2.422   3.821
 6700TIP3    H120036   4.079   2.395   3.895
 6700TIP3    H220037   4.089   2.428   3.749
 6701TIP3   OH220038   4.651   2.864   5.399
 6701TIP3    H120039   4.607   2.883   5.314
 6701TIP3    H220040   4.680   2.771   5.388
 6702TIP3   OH220041   4.539   2.625   3.629
 6702TIP3    H120042   4.537   2.638   3.726
 6702TIP3    H220043   4.536   2.527   3.623
 6703TIP3   OH220044   5.144   2.873   5.008
 6703TIP3    H120045   5.217   2.919   4.963
 6703TIP3    H220046   5.071   2.936   4.994
 6704TIP3   OH220047   4.163   2.517   5.608
 6704TIP3    H120048   4.234   2.457   5.585
 6704TIP3    H220049   4.190   2.546   5.698
 6705TIP3   OH220050   4.225   2.332   4.038
 6705TIP3    H120051   4.199   2.294   4.124
 6705TIP3    H220052   4.263   2.255   3.991
 6706TIP3   OH220053   4.498   2.397   5.270
 6706TIP3    H120054   4.418   2.454   5.270
 6706TIP3    H220055   4.547   2.431   5.191
 6707TIP3   OH220056   4.331   2.126   3.881
 6707TIP3    H120057   4.305   2.133   3.786
 6707TIP3    H220058   4.429   2.131   3.872
 6708TIP3   OH220059   5.016   2.798   5.403
 6708TIP3    H120060   5.091   2.762   5.353
 6708TIP3    H220061   5.008   2.733   5.475
 6709TIP3   OH220062   5.151   2.453   3.548
 6709TIP3    H120063   5.130   2.409   3.463
 6709TIP3    H220064   5.119   2.543   3.527
 6710TIP3   OH220065   4.629   2.190   5.394
 6710TIP3    H120066   4.617   2.105   5.349
 6710TIP3    H220067   4.578   2.252   5.337
 6711TIP3   OH220068   4.626   1.968   5.199
 6711TIP3    H120069   4.650   2.010   5.114
 6711TIP3    H220070   4.532   1.945   5.184
 6712TIP3   OH220071   4.648   2.505   5.075
 6712TIP3    H120072   4.733   2.518   5.031
 6712TIP3    H220073   4.591   2.571   5.030
 6713TIP3   OH220074   5.229   2.470   5.454
 6713TIP3    H120075   5.276   2.387   5.470
 6713TIP3    H220076   5.300   2.526   5.418
 6714TIP3   OH220077   5.273   2.726   5.194
 6714TIP3    H120078   5.215   2.780   5.135
 6714TIP3    H220079   5.360   2.746   5.154
 6715TIP3   OH220080   4.495   2.276   5.629
 6715TIP3    H120081   4.435   2.200   5.639
 6715TIP3    H220082   4.534   2.257   5.541
 6716TIP3   OH220083   4.753   1.729   5.267
 6716TIP3    H120084   4.704   1.812   5.248
 6716TIP3    H220085   4.681   1.663   5.262
 6717TIP3   OH220086   4.884   2.236   5.487
 6717TIP3    H120087   4.865   2.219   5.582
 6717TIP3    H220088   4.795   2.214   5.451
 6718TIP3   OH220089   5.120   2.184   5.342
 6718TIP3    H120090   5.043   2.186   5.403
 6718TIP3    H220091   5.192   2.153   5.400
 6719TIP3   OH220092   5.358   2.130   5.491
 6719TIP3    H120093   5.366   2.034   5.507
 6719TIP3    H220094   5.347   2.166   5.582
 6720TIP3   OH220095   4.878   1.755   5.511
 6720TIP3    H120096   4.928   1.671   5.510
 6720TIP3    H220097   4.818   1.742   5.435
 6721TIP3   OH220098   4.922   1.958   5.686
 6721TIP3    H120099   4.903   1.887   5.621
 6721TIP3    H220100   4.840   2.013   5.681
 6722TIP3   OH220101   4.141   3.182   3.789
 6722TIP3    H120102   4.235   3.179   3.764
 6722TIP3    H220103   4.106   3.236   3.716
 6723TIP3   OH220104   3.617   2.567   4.006
 6723TIP3    H120105   3.710   2.591   3.990
 6723TIP3    H220106   3.612   2.481   3.959
 6724TIP3   OH220107   3.528   3.181   4.423
 6724TIP3    H120108   3.466   3.118   4.379
 6724TIP3    H220109   3.576   3.120   4.483
 6725TIP3   OH220110   3.671   3.022   4.601
 6725TIP3    H120111   3.657   2.955   4.670
 6725TIP3    H220112   3.721   3.088   4.651
 6726TIP3   OH220113   5.402   3.420   4.406
 6726TIP3    H120114   5.424   3.457   4.494
 6726TIP3    H220115   5.455   3.474   4.347
 6727TIP3   OH220116   5.425   3.450   4.688
 6727TIP3    H120117   5.376   3.365   4.681
 6727TIP3    H220118   5.496   3.423   4.749
 6728TIP3   OH220119   5.472   3.128   5.260
 6728TIP3    H120120   5.399   3.136   5.325
 6728TIP3    H220121   5.513   3.217   5.265
 6729TIP3   OH220122   5.289   2.638   3.878
 6729TIP3    H120123   5.354   2.706   3.849
 6729TIP3    H220124   5.334   2.601   3.958
 6730TIP3   OH220125   5.417   2.506   4.084
 6730TIP3    H120126   5.348   2.465   4.140
 6730TIP3    H220127   5.478   2.546   4.149
 6731TIP3   OH220128   5.474   2.904   4.518
 6731TIP3    H120129   5.524   2.836   4.468
 6731TIP3    H220130   5.466   2.976   4.452
 6732TIP3   OH220131   5.298   3.202   4.709
 6732TIP3    H120132   5.226   3.243   4.760
 6732TIP3    H220133   5.249   3.155   4.637
 6733TIP3   OH220134   5.353   2.416   3.728
 6733TIP3    H120135   5.281   2.418   3.661
 6733TIP3    H220136   5.325   2.492   3.783
 6734TIP3   OH220137   5.226   2.087   3.680
 6734TIP3    H120138   5.177   2.126   3.607
 6734TIP3    H220139   5.202   1.992   3.670
 6735TIP3   OH220140   5.228   2.366   4.227
 6735TIP3    H120141   5.233   2.270   4.220
 6735TIP3    H220142   5.212   2.380   4.323
 6736TIP3   OH220143   3.853   2.439   4.977
 6736TIP3    H120144   3.850   2.405   4.885
 6736TIP3    H220145   3.950   2.439   4.993
 6737TIP3   OH220146   5.518   2.790   5.087
 6737TIP3    H120147   5.589   2.724   5.074
 6737TIP3    H220148   5.540   2.857   5.020
 6738TIP3   OH220149   5.703   2.592   5.091
 6738TIP3    H120150   5.627   2.545   5.132
 6738TIP3    H220151   5.774   2.528   5.111
 6739TIP3   OH220152   5.167   1.820   3.664
 6739TIP3    H120153   5.235   1.788   3.726
 6739TIP3    H220154   5.089   1.766   3.686
 6740TIP3   OH220155   5.225   2.083   4.121
 6740TIP3    H120156   5.267   1.995   4.135
 6740TIP3    H220157   5.282   2.117   4.049
 6741TIP3   OH220158   5.385   2.249   4.619
 6741TIP3    H120159   5.470   2.275   4.577
 6741TIP3    H220160   5.397   2.289   4.707
 6742TIP3   OH220161   5.456   2.400   4.847
 6742TIP3    H120162   5.379   2.432   4.898
 6742TIP3    H220163   5.487   2.482   4.804
 6743TIP3   OH220164   4.085   2.123   5.656
 6743TIP3    H120165   4.178   2.091   5.644
 6743TIP3    H220166   4.050   2.042   5.699
 6744TIP3   OH220167   5.909   1.996   5.404
 6744TIP3    H120168   5.967   1.929   5.361
 6744TIP3    H220169   5.877   2.047   5.327
 6745TIP3   OH220170   5.335   1.832   4.159
 6745TIP3    H120171   5.380   1.815   4.244
 6745TIP3    H220172   5.272   1.757   4.157
 6746TIP3   OH220173   4.033   1.817   4.979
 6746TIP3    H120174   4.095   1.743   4.990
 6746TIP3    H220175   4.095   1.892   4.973
 6747TIP3   OH220176   3.831   2.090   5.049
 6747TIP3    H120177   3.883   2.088   4.967
 6747TIP3    H220178   3.864   2.171   5.091
 6748TIP3   OH220179   5.776   2.128   5.209
 6748TIP3    H120180   5.691   2.171   5.232
 6748TIP3    H220181   5.742   2.056   5.151
 6749TIP3   OH220182   5.412   1.762   3.798
 6749TIP3    H120183   5.451   1.694   3.739
 6749TIP3    H220184   5.476   1.836   3.791
 6750TIP3   OH220185   3.820   1.593   4.553
 6750TIP3    H120186   3.727   1.589   4.583
 6750TIP3    H220187   3.814   1.651   4.475
 6751TIP3   OH220188   4.986   3.292   4.062
 6751TIP3    H120189   5.036   3.283   3.978
 6751TIP3    H220190   5.027   3.370   4.102
 6752TIP3   OH220191   4.037   1.661   5.363
 6752TIP3    H120192   3.994   1.668   5.449
 6752TIP3    H220193   3.971   1.705   5.306
 6753TIP3   OH220194   4.079   3.104   5.444
 6753TIP3    H120195   3.986   3.079   5.428
 6753TIP3    H220196   4.089   3.084   5.538
 6754TIP3   OH220197   4.260   3.138   4.994
 6754TIP3    H120198   4.211   3.213   4.955
 6754TIP3    H220199   4.345   3.151   4.947
 6755TIP3   OH220200   4.699   3.377   5.130
 6755TIP3    H120201   4.741   3.377   5.219
 6755TIP3    H220202   4.763   3.430   5.078
 6756TIP3   OH220203   4.878   3.533   4.992
 6756TIP3    H120204   4.947   3.481   4.949
 6756TIP3    H220205   4.931   3.589   5.053
 6757TIP3   OH220206   5.677   1.891   5.088
 6757TIP3    H120207   5.585   1.883   5.056
 6757TIP3    H220208   5.708   1.799   5.078
 6758TIP3   OH220209   3.935   3.387   5.021
 6758TIP3    H120210   3.845   3.418   4.996
 6758TIP3    H220211   3.948   3.437   5.103
 6759TIP3   OH220212   4.171   3.369   4.876
 6759TIP3    H120213   4.083   3.384   4.919
 6759TIP3    H220214   4.152   3.399   4.785
 6760TIP3   OH220215   4.596   3.395   4.672
 6760TIP3    H120216   4.525   3.407   4.606
 6760TIP3    H220217   4.604   3.485   4.708
 6761TIP3   OH220218   4.863   3.337   4.727
 6761TIP3    H120219   4.768   3.352   4.708
 6761TIP3    H220220   4.904   3.410   4.678
 6762TIP3   OH220221   5.076   3.527   4.638
 6762TIP3    H120222   5.061   3.611   4.590
 6762TIP3    H220223   5.098   3.465   4.565
 6763TIP3   OH220224   3.840   3.182   4.762
 6763TIP3    H120225   3.870   3.155   4.851
 6763TIP3    H220226   3.914   3.144   4.709
 6764TIP3   OH220227   4.037   3.058   4.622
 6764TIP3    H120228   4.054   2.974   4.671
 6764TIP3    H220229   4.128   3.094   4.617
 6765TIP3   OH220230   4.303   3.144   4.627
 6765TIP3    H120231   4.335   3.053   4.618
 6765TIP3    H220232   4.352   3.171   4.707
 6766TIP3   OH220233   4.883   1.807   4.714
 6766TIP3    H120234   4.838   1.737   4.765
 6766TIP3    H220235   4.954   1.758   4.669
 6767TIP3   OH220236   5.402   1.686   4.611
 6767TIP3    H120237   5.437   1.740   4.537
 6767TIP3    H220238   5.307   1.707   4.608
 6768TIP3   OH220239   5.499   1.785   4.376
 6768TIP3    H120240   5.574   1.735   4.337
 6768TIP3    H220241   5.531   1.877   4.362
 6769TIP3   OH220242   4.128   1.514   4.723
 6769TIP3    H120243   4.036   1.480   4.726
 6769TIP3    H220244   4.178   1.429   4.719
 6770TIP3   OH220245   3.923   1.388   4.385
 6770TIP3    H120246   3.947   1.439   4.306
 6770TIP3    H220247   3.893   1.457   4.447
 6771TIP3   OH220248   4.576   1.546   4.606
 6771TIP3    H120249   4.633   1.596   4.546
 6771TIP3    H220250   4.597   1.585   4.692
 6772TIP3   OH220251   5.120   1.696   4.589
 6772TIP3    H120252   5.114   1.657   4.500
 6772TIP3    H220253   5.108   1.616   4.646
 6773TIP3   OH220254   5.151   1.621   4.153
 6773TIP3    H120255   5.066   1.666   4.170
 6773TIP3    H220256   5.134   1.534   4.197
 6774TIP3   OH220257   3.628   2.962   4.160
 6774TIP3    H120258   3.542   2.931   4.127
 6774TIP3    H220259   3.632   3.048   4.113
 6775TIP3   OH220260   4.035   1.550   4.133
 6775TIP3    H120261   4.080   1.482   4.079
 6775TIP3    H220262   4.111   1.599   4.170
 6776TIP3   OH220263   4.545   1.722   4.234
 6776TIP3    H120264   4.604   1.675   4.296
 6776TIP3    H220265   4.565   1.815   4.260
 6777TIP3   OH220266   4.408   3.141   3.734
 6777TIP3    H120267   4.495   3.164   3.696
 6777TIP3    H220268   4.384   3.066   3.674
 6778TIP3   OH220269   5.128   3.265   3.827
 6778TIP3    H120270   5.119   3.167   3.815
 6778TIP3    H220271   5.080   3.298   3.748
 6779TIP3   OH220272   3.700   2.958   3.779
 6779TIP3    H120273   3.675   3.027   3.845
 6779TIP3    H220274   3.796   2.947   3.790
 6780TIP3   OH220275   5.413   1.858   5.522
 6780TIP3    H120276   5.430   1.828   5.614
 6780TIP3    H220277   5.502   1.851   5.483
 6781TIP3   OH220278   5.349   3.406   5.014
 6781TIP3    H120279   5.270   3.375   4.965
 6781TIP3    H220280   5.328   3.502   5.021
 6782TIP3   OH220281   6.619   2.789   3.776
 6782TIP3    H120282   6.581   2.876   3.751
 6782TIP3    H220283   6.547   2.730   3.747
 6783TIP3   OH220284   6.618   2.783   4.167
 6783TIP3    H120285   6.653   2.756   4.254
 6783TIP3    H220286   6.576   2.701   4.136
 6784TIP3   OH220287   5.915   2.672   4.525
 6784TIP3    H120288   5.943   2.603   4.588
 6784TIP3    H220289   5.992   2.731   4.526
 6785TIP3   OH220290   6.849   3.092   3.863
 6785TIP3    H120291   6.840   2.997   3.877
 6785TIP3    H220292   6.851   3.123   3.955
 6786TIP3   OH220293   5.890   3.088   4.250
 6786TIP3    H120294   5.879   2.991   4.250
 6786TIP3    H220295   5.987   3.095   4.249
 6787TIP3   OH220296   5.594   2.289   4.032
 6787TIP3    H120297   5.544   2.370   4.052
 6787TIP3    H220298   5.525   2.236   3.990
 6788TIP3   OH220299   5.653   2.577   4.214
 6788TIP3    H120300   5.703   2.499   4.248
 6788TIP3    H220301   5.707   2.604   4.139
 6789TIP3   OH220302   6.521   3.519   3.847
 6789TIP3    H120303   6.542   3.425   3.844
 6789TIP3    H220304   6.498   3.530   3.941
 6790TIP3   OH220305   6.415   3.009   4.208
 6790TIP3    H120306   6.454   2.929   4.169
 6790TIP3    H220307   6.498   3.055   4.232
 6791TIP3   OH220308   7.422   2.324   4.203
 6791TIP3    H120309   7.454   2.405   4.249
 6791TIP3    H220310   7.460   2.336   4.114
 6792TIP3   OH220311   6.827   2.508   4.239
 6792TIP3    H120312   6.870   2.423   4.261
 6792TIP3    H220313   6.795   2.489   4.149
 6793TIP3   OH220314   6.170   2.167   4.205
 6793TIP3    H120315   6.147   2.240   4.143
 6793TIP3    H220316   6.120   2.094   4.163
 6794TIP3   OH220317   6.862   2.258   3.827
 6794TIP3    H120318   6.933   2.245   3.893
 6794TIP3    H220319   6.915   2.293   3.752
 6795TIP3   OH220320   5.799   2.369   4.315
 6795TIP3    H120321   5.882   2.348   4.363
 6795TIP3    H220322   5.812   2.313   4.236
 6796TIP3   OH220323   6.239   2.567   4.108
 6796TIP3    H120324   6.332   2.541   4.122
 6796TIP3    H220325   6.199   2.483   4.077
 6797TIP3   OH220326   7.491   2.526   4.376
 6797TIP3    H120327   7.409   2.579   4.366
 6797TIP3    H220328   7.530   2.566   4.455
 6798TIP3   OH220329   6.162   2.150   4.643
 6798TIP3    H120330   6.103   2.187   4.574
 6798TIP3    H220331   6.108   2.167   4.723
 6799TIP3   OH220332   6.514   3.012   3.645
 6799TIP3    H120333   6.467   2.984   3.565
 6799TIP3    H220334   6.471   3.098   3.665
 6800TIP3   OH220335   6.269   2.928   4.432
 6800TIP3    H120336   6.207   2.994   4.470
 6800TIP3    H220337   6.310   2.978   4.359
 6801TIP3   OH220338   7.065   2.265   4.006
 6801TIP3    H120339   7.054   2.223   4.092
 6801TIP3    H220340   7.122   2.341   4.029
 6802TIP3   OH220341   6.035   2.265   4.425
 6802TIP3    H120342   6.096   2.339   4.449
 6802TIP3    H220343   6.085   2.225   4.350
 6803TIP3   OH220344   6.098   3.122   4.534
 6803TIP3    H120345   6.071   3.210   4.499
 6803TIP3    H220346   6.019   3.103   4.589
 6804TIP3   OH220347   5.489   2.811   3.770
 6804TIP3    H120348   5.445   2.836   3.686
 6804TIP3    H220349   5.517   2.899   3.804
 6805TIP3   OH220350   7.224   2.220   4.373
 6805TIP3    H120351   7.138   2.255   4.342
 6805TIP3    H220352   7.285   2.254   4.304
 6806TIP3   OH220353   6.517   1.868   4.361
 6806TIP3    H120354   6.499   1.774   4.376
 6806TIP3    H220355   6.439   1.908   4.406
 6807TIP3   OH220356   6.784   3.177   3.613
 6807TIP3    H120357   6.745   3.114   3.554
 6807TIP3    H220358   6.798   3.121   3.693
 6808TIP3   OH220359   7.156   3.239   4.355
 6808TIP3    H120360   7.145   3.160   4.296
 6808TIP3    H220361   7.141   3.313   4.293
 6809TIP3   OH220362   6.451   2.635   3.615
 6809TIP3    H120363   6.368   2.684   3.595
 6809TIP3    H220364   6.492   2.629   3.527
 6810TIP3   OH220365   6.406   2.419   3.325
 6810TIP3    H120366   6.475   2.470   3.372
 6810TIP3    H220367   6.463   2.355   3.277
 6811TIP3   OH220368   7.350   2.879   4.205
 6811TIP3    H120369   7.267   2.931   4.207
 6811TIP3    H220370   7.378   2.895   4.112
 6812TIP3   OH220371   6.796   2.719   3.579
 6812TIP3    H120372   6.741   2.740   3.658
 6812TIP3    H220373   6.879   2.688   3.623
 6813TIP3   OH220374   7.028   2.752   4.501
 6813TIP3    H120375   7.026   2.835   4.553
 6813TIP3    H220376   6.941   2.757   4.456
 6814TIP3   OH220377   6.028   2.712   3.998
 6814TIP3    H120378   5.986   2.653   3.932
 6814TIP3    H220379   6.103   2.657   4.029
 6815TIP3   OH220380   6.162   3.131   4.143
 6815TIP3    H120381   6.135   3.087   4.061
 6815TIP3    H220382   6.249   3.089   4.160
 6816TIP3   OH220383   6.169   2.681   4.356
 6816TIP3    H120384   6.198   2.659   4.265
 6816TIP3    H220385   6.208   2.769   4.371
 6817TIP3   OH220386   6.714   3.316   4.107
 6817TIP3    H120387   6.697   3.398   4.157
 6817TIP3    H220388   6.693   3.247   4.173
 6818TIP3   OH220389   6.302   3.241   4.677
 6818TIP3    H120390   6.241   3.301   4.725
 6818TIP3    H220391   6.237   3.188   4.627
 6819TIP3   OH220392   6.633   2.574   3.410
 6819TIP3    H120393   6.694   2.633   3.459
 6819TIP3    H220394   6.659   2.595   3.316
 6820TIP3   OH220395   6.056   2.794   4.781
 6820TIP3    H120396   6.061   2.882   4.825
 6820TIP3    H220397   5.961   2.773   4.796
 6821TIP3   OH220398   6.401   3.279   3.671
 6821TIP3    H120399   6.360   3.338   3.737
 6821TIP3    H220400   6.334   3.283   3.600
 6822TIP3   OH220401   6.094   3.407   4.767
 6822TIP3    H120402   6.059   3.404   4.676
 6822TIP3    H220403   6.015   3.385   4.820
 6823TIP3   OH220404   7.149   1.813   3.458
 6823TIP3    H120405   7.069   1.837   3.509
 6823TIP3    H220406   7.165   1.895   3.408
 6824TIP3   OH220407   5.894   2.556   3.803
 6824TIP3    H120408   5.825   2.602   3.750
 6824TIP3    H220409   5.853   2.470   3.816
 6825TIP3   OH220410   6.953   3.182   3.013
 6825TIP3    H120411   6.960   3.277   2.991
 6825TIP3    H220412   7.045   3.151   2.996
 6826TIP3   OH220413   5.676   2.940   4.712
 6826TIP3    H120414   5.605   2.922   4.646
 6826TIP3    H220415   5.710   2.851   4.731
 6827TIP3   OH220416   5.526   3.133   4.345
 6827TIP3    H120417   5.622   3.137   4.340
 6827TIP3    H220418   5.505   3.214   4.395
 6828TIP3   OH220419   7.394   3.585   4.403
 6828TIP3    H120420   7.394   3.489   4.420
 6828TIP3    H220421   7.310   3.610   4.449
 6829TIP3   OH220422   6.494   3.375   4.535
 6829TIP3    H120423   6.492   3.466   4.571
 6829TIP3    H220424   6.425   3.332   4.589
 6830TIP3   OH220425   6.268   3.501   3.486
 6830TIP3    H120426   6.215   3.480   3.406
 6830TIP3    H220427   6.229   3.585   3.516
 6831TIP3   OH220428   5.701   3.346   3.869
 6831TIP3    H120429   5.742   3.336   3.958
 6831TIP3    H220430   5.641   3.269   3.868
 6832TIP3   OH220431   6.465   3.402   3.126
 6832TIP3    H120432   6.521   3.330   3.089
 6832TIP3    H220433   6.501   3.411   3.216
 6833TIP3   OH220434   6.517   3.448   3.399
 6833TIP3    H120435   6.427   3.469   3.433
 6833TIP3    H220436   6.544   3.381   3.464
 6834TIP3   OH220437   7.282   2.715   4.676
 6834TIP3    H120438   7.199   2.721   4.625
 6834TIP3    H220439   7.301   2.619   4.670
 6835TIP3   OH220440   5.880   3.122   4.698
 6835TIP3    H120441   5.928   3.105   4.782
 6835TIP3    H220442   5.805   3.060   4.705
 6836TIP3   OH220443   6.278   1.946   4.488
 6836TIP3    H120444   6.189   1.915   4.460
 6836TIP3    H220445   6.252   2.027   4.536
 6837TIP3   OH220446   6.814   2.058   4.681
 6837TIP3    H120447   6.883   2.033   4.745
 6837TIP3    H220448   6.731   2.040   4.730
 6838TIP3   OH220449   7.047   2.487   4.596
 6838TIP3    H120450   7.000   2.485   4.683
 6838TIP3    H220451   7.025   2.576   4.562
 6839TIP3   OH220452   6.712   2.619   3.155
 6839TIP3    H120453   6.675   2.595   3.068
 6839TIP3    H220454   6.798   2.658   3.129
 6840TIP3   OH220455   6.424   1.991   3.458
 6840TIP3    H120456   6.389   1.989   3.549
 6840TIP3    H220457   6.383   1.910   3.422
 6841TIP3   OH220458   6.212   2.460   4.506
 6841TIP3    H120459   6.160   2.479   4.587
 6841TIP3    H220460   6.196   2.542   4.454
 6842TIP3   OH220461   6.094   2.348   4.018
 6842TIP3    H120462   6.001   2.322   4.037
 6842TIP3    H220463   6.105   2.307   3.929
 6843TIP3   OH220464   6.585   2.434   3.749
 6843TIP3    H120465   6.533   2.504   3.703
 6843TIP3    H220466   6.640   2.399   3.675
 6844TIP3   OH220467   6.759   2.709   4.831
 6844TIP3    H120468   6.736   2.636   4.893
 6844TIP3    H220469   6.853   2.722   4.853
 6845TIP3   OH220470   6.741   2.458   3.982
 6845TIP3    H120471   6.678   2.482   3.912
 6845TIP3    H220472   6.779   2.378   3.940
 6846TIP3   OH220473   6.031   2.488   4.712
 6846TIP3    H120474   6.051   2.552   4.782
 6846TIP3    H220475   6.016   2.406   4.763
 6847TIP3   OH220476   6.083   1.969   3.423
 6847TIP3    H120477   6.069   1.968   3.520
 6847TIP3    H220478   6.004   2.019   3.394
 6848TIP3   OH220479   5.622   2.010   4.294
 6848TIP3    H120480   5.697   2.043   4.348
 6848TIP3    H220481   5.664   1.981   4.212
 6849TIP3   OH220482   5.588   1.992   3.812
 6849TIP3    H120483   5.632   2.031   3.733
 6849TIP3    H220484   5.526   2.065   3.834
 6850TIP3   OH220485   6.752   2.707   4.404
 6850TIP3    H120486   6.785   2.635   4.346
 6850TIP3    H220487   6.723   2.653   4.481
 6851TIP3   OH220488   6.425   2.166   4.077
 6851TIP3    H120489   6.344   2.167   4.132
 6851TIP3    H220490   6.495   2.161   4.145
 6852TIP3   OH220491   5.855   2.228   4.085
 6852TIP3    H120492   5.761   2.237   4.058
 6852TIP3    H220493   5.876   2.135   4.063
 6853TIP3   OH220494   6.122   2.220   3.778
 6853TIP3    H120495   6.215   2.237   3.754
 6853TIP3    H220496   6.073   2.243   3.695
 6854TIP3   OH220497   6.912   2.247   4.282
 6854TIP3    H120498   6.880   2.259   4.374
 6854TIP3    H220499   6.844   2.187   4.247
 6855TIP3   OH220500   5.972   2.255   3.554
 6855TIP3    H120501   5.901   2.209   3.506
 6855TIP3    H220502   6.023   2.292   3.479
 6856TIP3   OH220503   7.087   3.934   4.503
 6856TIP3    H120504   7.086   3.959   4.408
 6856TIP3    H220505   7.167   3.981   4.534
 6857TIP3   OH220506   6.042   3.044   4.920
 6857TIP3    H120507   6.120   3.074   4.970
 6857TIP3    H220508   5.976   3.040   4.992
 6858TIP3   OH220509   6.504   2.500   4.178
 6858TIP3    H120510   6.577   2.459   4.130
 6858TIP3    H220511   6.508   2.456   4.265
 6859TIP3   OH220512   6.025   1.983   4.060
 6859TIP3    H120513   5.988   1.906   4.108
 6859TIP3    H220514   6.061   1.941   3.981
 6860TIP3   OH220515   6.480   2.399   4.462
 6860TIP3    H120516   6.390   2.432   4.480
 6860TIP3    H220517   6.536   2.459   4.515
 6861TIP3   OH220518   6.219   2.784   3.563
 6861TIP3    H120519   6.147   2.719   3.550
 6861TIP3    H220520   6.197   2.818   3.654
 6862TIP3   OH220521   7.116   3.025   4.186
 6862TIP3    H120522   7.143   3.069   4.102
 6862TIP3    H220523   7.033   2.979   4.159
 6863TIP3   OH220524   6.675   2.094   3.430
 6863TIP3    H120525   6.579   2.075   3.437
 6863TIP3    H220526   6.682   2.189   3.452
 6864TIP3   OH220527   6.623   3.111   4.552
 6864TIP3    H120528   6.645   3.079   4.640
 6864TIP3    H220529   6.576   3.194   4.569
 6865TIP3   OH220530   6.743   2.345   3.531
 6865TIP3    H120531   6.839   2.350   3.544
 6865TIP3    H220532   6.724   2.424   3.476
 6866TIP3   OH220533   5.916   2.813   4.236
 6866TIP3    H120534   5.952   2.780   4.151
 6866TIP3    H220535   5.947   2.747   4.299
 6867TIP3   OH220536   6.363   2.939   3.391
 6867TIP3    H120537   6.314   3.024   3.394
 6867TIP3    H220538   6.307   2.881   3.447
 6868TIP3   OH220539   5.794   2.723   4.848
 6868TIP3    H120540   5.805   2.708   4.944
 6868TIP3    H220541   5.721   2.661   4.828
 6869TIP3   OH220542   6.518   2.845   4.869
 6869TIP3    H120543   6.455   2.784   4.827
 6869TIP3    H220544   6.604   2.807   4.841
 6870TIP3   OH220545   6.776   3.377   4.446
 6870TIP3    H120546   6.681   3.366   4.461
 6870TIP3    H220547   6.803   3.421   4.530
 6871TIP3   OH220548   7.180   2.438   3.365
 6871TIP3    H120549   7.119   2.393   3.301
 6871TIP3    H220550   7.180   2.527   3.322
 6872TIP3   OH220551   7.406   3.298   4.443
 6872TIP3    H120552   7.309   3.289   4.438
 6872TIP3    H220553   7.431   3.266   4.353
 6873TIP3   OH220554   6.888   3.248   3.277
 6873TIP3    H120555   6.866   3.164   3.319
 6873TIP3    H220556   6.905   3.219   3.185
 6874TIP3   OH220557   6.883   2.887   4.100
 6874TIP3    H120558   6.791   2.860   4.118
 6874TIP3    H220559   6.918   2.804   4.061
 6875TIP3   OH220560   6.010   3.113   3.860
 6875TIP3    H120561   5.999   3.195   3.808
 6875TIP3    H220562   5.918   3.092   3.878
 6876TIP3   OH220563   5.579   2.415   3.572
 6876TIP3    H120564   5.621   2.501   3.591
 6876TIP3    H220565   5.499   2.419   3.629
 6877TIP3   OH220566   6.147   2.880   3.807
 6877TIP3    H120567   6.107   2.967   3.825
 6877TIP3    H220568   6.110   2.826   3.879
 6878TIP3   OH220569   6.287   3.453   4.334
 6878TIP3    H120570   6.331   3.525   4.285
 6878TIP3    H220571   6.361   3.416   4.385
 6879TIP3   OH220572   5.935   3.345   3.717
 6879TIP3    H120573   5.847   3.358   3.758
 6879TIP3    H220574   5.972   3.437   3.723
 6880TIP3   OH220575   6.671   3.094   4.284
 6880TIP3    H120576   6.657   3.098   4.381
 6880TIP3    H220577   6.745   3.032   4.278
 6881TIP3   OH220578   6.647   2.986   3.173
 6881TIP3    H120579   6.696   2.961   3.255
 6881TIP3    H220580   6.558   2.952   3.193
 6882TIP3   OH220581   6.914   3.625   4.339
 6882TIP3    H120582   6.840   3.560   4.340
 6882TIP3    H220583   6.892   3.681   4.262
 6883TIP3   OH220584   6.980   3.456   2.992
 6883TIP3    H120585   7.016   3.528   2.937
 6883TIP3    H220586   6.901   3.503   3.028
 6884TIP3   OH220587   5.999   2.233   4.855
 6884TIP3    H120588   5.902   2.238   4.867
 6884TIP3    H220589   6.025   2.177   4.930
 6885TIP3   OH220590   6.808   2.932   3.396
 6885TIP3    H120591   6.794   2.859   3.461
 6885TIP3    H220592   6.904   2.918   3.379
 6886TIP3   OH220593   5.722   3.316   4.487
 6886TIP3    H120594   5.772   3.242   4.525
 6886TIP3    H220595   5.742   3.386   4.549
 6887TIP3   OH220596   6.013   2.960   3.172
 6887TIP3    H120597   6.019   2.867   3.144
 6887TIP3    H220598   5.988   2.951   3.266
 6888TIP3   OH220599   5.955   2.968   3.441
 6888TIP3    H120600   6.020   2.940   3.507
 6888TIP3    H220601   5.955   3.066   3.451
 6889TIP3   OH220602   5.688   2.662   3.650
 6889TIP3    H120603   5.620   2.705   3.706
 6889TIP3    H220604   5.698   2.729   3.581
 6890TIP3   OH220605   6.840   2.297   4.541
 6890TIP3    H120606   6.921   2.337   4.578
 6890TIP3    H220607   6.829   2.216   4.596
 6891TIP3   OH220608   6.724   2.043   3.709
 6891TIP3    H120609   6.708   2.066   3.615
 6891TIP3    H220610   6.763   2.125   3.744
 6892TIP3   OH220611   6.228   3.175   3.407
 6892TIP3    H120612   6.135   3.192   3.433
 6892TIP3    H220613   6.235   3.237   3.332
 6893TIP3   OH220614   6.407   2.229   3.808
 6893TIP3    H120615   6.471   2.302   3.792
 6893TIP3    H220616   6.412   2.219   3.906
 6894TIP3   OH220617   6.679   2.545   4.612
 6894TIP3    H120618   6.703   2.596   4.692
 6894TIP3    H220619   6.732   2.464   4.623
 6895TIP3   OH220620   6.552   1.946   3.908
 6895TIP3    H120621   6.544   2.023   3.967
 6895TIP3    H220622   6.614   1.982   3.840
 6896TIP3   OH220623   5.968   3.239   3.463
 6896TIP3    H120624   5.937   3.308   3.399
 6896TIP3    H220625   5.948   3.282   3.549
 6897TIP3   OH220626   6.064   1.954   3.700
 6897TIP3    H120627   6.060   2.045   3.736
 6897TIP3    H220628   6.160   1.939   3.707
 6898TIP3   OH220629   7.316   2.449   4.603
 6898TIP3    H120630   7.218   2.444   4.603
 6898TIP3    H220631   7.336   2.411   4.517
 6899TIP3   OH220632   6.966   2.644   3.985
 6899TIP3    H120633   6.892   2.582   3.996
 6899TIP3    H220634   7.039   2.597   4.032
 6900TIP3   OH220635   5.681   2.864   3.454
 6900TIP3    H120636   5.745   2.937   3.458
 6900TIP3    H220637   5.726   2.808   3.387
 6901TIP3   OH220638   5.624   2.143   3.587
 6901TIP3    H120639   5.624   2.241   3.586
 6901TIP3    H220640   5.542   2.124   3.540
 6902TIP3   OH220641   6.016   1.865   4.457
 6902TIP3    H120642   5.983   1.831   4.371
 6902TIP3    H220643   6.003   1.787   4.515
 6903TIP3   OH220644   5.547   3.081   3.836
 6903TIP3    H120645   5.485   3.112   3.905
 6903TIP3    H220646   5.511   3.127   3.756
 6904TIP3   OH220647   5.711   3.630   4.908
 6904TIP3    H120648   5.796   3.626   4.958
 6904TIP3    H220649   5.684   3.537   4.909
 6905TIP3   OH220650   6.195   3.599   4.940
 6905TIP3    H120651   6.285   3.566   4.956
 6905TIP3    H220652   6.163   3.531   4.877
 6906TIP3   OH220653   6.174   3.164   3.086
 6906TIP3    H120654   6.116   3.091   3.121
 6906TIP3    H220655   6.246   3.112   3.046
 6907TIP3   OH220656   6.832   3.495   4.687
 6907TIP3    H120657   6.822   3.426   4.756
 6907TIP3    H220658   6.907   3.547   4.720
 6908TIP3   OH220659   6.608   3.204   2.998
 6908TIP3    H120660   6.647   3.136   3.056
 6908TIP3    H220661   6.664   3.200   2.918
 6909TIP3   OH220662   5.840   3.035   5.111
 6909TIP3    H120663   5.855   2.939   5.119
 6909TIP3    H220664   5.752   3.037   5.067
 6910TIP3   OH220665   5.819   2.681   3.307
 6910TIP3    H120666   5.875   2.650   3.380
 6910TIP3    H220667   5.885   2.685   3.234
 6911TIP3   OH220668   6.447   3.120   4.885
 6911TIP3    H120669   6.403   3.137   4.800
 6911TIP3    H220670   6.478   3.027   4.877
 6912TIP3   OH220671   6.342   2.883   3.118
 6912TIP3    H120672   6.334   2.894   3.215
 6912TIP3    H220673   6.337   2.785   3.110
 6913TIP3   OH220674   6.940   3.128   4.493
 6913TIP3    H120675   7.014   3.175   4.450
 6913TIP3    H220676   6.867   3.191   4.478
 6914TIP3   OH220677   5.961   2.773   5.096
 6914TIP3    H120678   6.033   2.713   5.073
 6914TIP3    H220679   5.989   2.803   5.185
 6915TIP3   OH220680   6.028   2.588   3.529
 6915TIP3    H120681   5.995   2.547   3.610
 6915TIP3    H220682   6.061   2.511   3.479
 6916TIP3   OH220683   6.297   2.654   4.760
 6916TIP3    H120684   6.216   2.710   4.759
 6916TIP3    H220685   6.345   2.688   4.680
 6917TIP3   OH220686   6.127   2.383   3.367
 6917TIP3    H120687   6.100   2.389   3.273
 6917TIP3    H220688   6.225   2.387   3.358
 6918TIP3   OH220689   6.812   3.054   4.888
 6918TIP3    H120690   6.892   3.023   4.843
 6918TIP3    H220691   6.805   2.990   4.961
 6919TIP3   OH220692   6.945   2.711   3.035
 6919TIP3    H120693   6.925   2.665   2.951
 6919TIP3    H220694   6.912   2.801   3.012
 6920TIP3   OH220695   6.419   2.441   4.880
 6920TIP3    H120696   6.418   2.362   4.822
 6920TIP3    H220697   6.374   2.509   4.824
 6921TIP3   OH220698   6.421   2.227   4.688
 6921TIP3    H120699   6.448   2.268   4.604
 6921TIP3    H220700   6.327   2.204   4.671
 6922TIP3   OH220701   6.444   2.762   4.563
 6922TIP3    H120702   6.528   2.770   4.517
 6922TIP3    H220703   6.387   2.827   4.516
 6923TIP3   OH220704   7.027   2.727   4.941
 6923TIP3    H120705   7.073   2.643   4.957
 6923TIP3    H220706   7.098   2.781   4.905
 6924TIP3   OH220707   7.070   2.982   4.679
 6924TIP3    H120708   7.013   3.037   4.620
 6924TIP3    H220709   7.158   3.001   4.640
 6925TIP3   OH220710   6.298   2.546   5.115
 6925TIP3    H120711   6.229   2.479   5.131
 6925TIP3    H220712   6.330   2.521   5.026
 6926TIP3   OH220713   6.551   1.989   4.759
 6926TIP3    H120714   6.503   2.071   4.736
 6926TIP3    H220715   6.481   1.921   4.748
 6927TIP3   OH220716   6.678   2.492   4.974
 6927TIP3    H120717   6.663   2.478   5.069
 6927TIP3    H220718   6.588   2.468   4.941
 6928TIP3   OH220719   6.916   2.443   4.828
 6928TIP3    H120720   6.842   2.444   4.891
 6928TIP3    H220721   6.991   2.413   4.885
 6929TIP3   OH220722   7.143   2.384   4.978
 6929TIP3    H120723   7.159   2.289   4.994
 6929TIP3    H220724   7.141   2.422   5.069
 6930TIP3   OH220725   6.136   2.327   5.168
 6930TIP3    H120726   6.139   2.235   5.136
 6930TIP3    H220727   6.173   2.315   5.259
 6931TIP3   OH220728   6.646   1.999   5.017
 6931TIP3    H120729   6.712   1.928   5.010
 6931TIP3    H220730   6.605   1.995   4.928
 6932TIP3   OH220731   6.712   2.214   5.175
 6932TIP3    H120732   6.690   2.143   5.111
 6932TIP3    H220733   6.634   2.272   5.169
 6933TIP3   OH220734   5.936   3.439   3.275
 6933TIP3    H120735   6.031   3.438   3.250
 6933TIP3    H220736   5.901   3.492   3.202
 6934TIP3   OH220737   5.412   2.824   3.489
 6934TIP3    H120738   5.507   2.844   3.475
 6934TIP3    H220739   5.405   2.736   3.446
 6935TIP3   OH220740   5.329   3.434   3.905
 6935TIP3    H120741   5.262   3.374   3.865
 6935TIP3    H220742   5.373   3.374   3.968
 6936TIP3   OH220743   5.467   3.280   4.089
 6936TIP3    H120744   5.448   3.213   4.156
 6936TIP3    H220745   5.516   3.346   4.142
 6937TIP3   OH220746   7.191   3.674   3.894
 6937TIP3    H120747   7.209   3.715   3.980
 6937TIP3    H220748   7.243   3.728   3.833
 6938TIP3   OH220749   7.216   3.710   4.175
 6938TIP3    H120750   7.176   3.621   4.167
 6938TIP3    H220751   7.293   3.688   4.230
 6939TIP3   OH220752   7.265   3.386   4.745
 6939TIP3    H120753   7.194   3.394   4.812
 6939TIP3    H220754   7.308   3.473   4.751
 6940TIP3   OH220755   7.083   2.899   3.366
 6940TIP3    H120756   7.152   2.961   3.334
 6940TIP3    H220757   7.128   2.859   3.444
 6941TIP3   OH220758   7.209   2.769   3.571
 6941TIP3    H120759   7.146   2.723   3.631
 6941TIP3    H220760   7.278   2.800   3.633
 6942TIP3   OH220761   7.251   3.156   3.986
 6942TIP3    H120762   7.314   3.089   3.952
 6942TIP3    H220763   7.268   3.232   3.927
 6943TIP3   OH220764   7.086   3.459   4.199
 6943TIP3    H120765   7.028   3.508   4.261
 6943TIP3    H220766   7.022   3.419   4.139
 6944TIP3   OH220767   7.148   2.674   3.216
 6944TIP3    H120768   7.076   2.675   3.149
 6944TIP3    H220769   7.120   2.750   3.271
 6945TIP3   OH220770   7.015   2.347   3.170
 6945TIP3    H120771   6.975   2.380   3.088
 6945TIP3    H220772   6.995   2.251   3.162
 6946TIP3   OH220773   7.021   2.622   3.714
 6946TIP3    H120774   7.033   2.526   3.705
 6946TIP3    H220775   7.009   2.634   3.810
 6947TIP3   OH220776   5.649   2.692   4.465
 6947TIP3    H120777   5.645   2.660   4.372
 6947TIP3    H220778   5.747   2.694   4.479
 6948TIP3   OH220779   7.314   3.047   4.572
 6948TIP3    H120780   7.385   2.979   4.564
 6948TIP3    H220781   7.343   3.114   4.508
 6949TIP3   OH220782   7.497   2.851   4.585
 6949TIP3    H120783   7.422   2.800   4.622
 6949TIP3    H220784   7.570   2.788   4.606
 6950TIP3   OH220785   6.962   2.081   3.153
 6950TIP3    H120786   7.038   2.048   3.206
 6950TIP3    H220787   6.890   2.020   3.176
 6951TIP3   OH220788   7.021   2.341   3.606
 6951TIP3    H120789   7.062   2.253   3.622
 6951TIP3    H220790   7.079   2.373   3.534
 6952TIP3   OH220791   7.179   2.514   4.103
 6952TIP3    H120792   7.265   2.538   4.061
 6952TIP3    H220793   7.196   2.547   4.193
 6953TIP3   OH220794   7.249   2.658   4.337
 6953TIP3    H120795   7.172   2.693   4.386
 6953TIP3    H220796   7.283   2.738   4.292
 6954TIP3   OH220797   5.869   2.381   5.139
 6954TIP3    H120798   5.967   2.374   5.143
 6954TIP3    H220799   5.844   2.295   5.177
 6955TIP3   OH220800   7.704   2.250   4.891
 6955TIP3    H120801   7.763   2.185   4.846
 6955TIP3    H220802   7.674   2.305   4.814
 6956TIP3   OH220803   7.127   2.092   3.649
 6956TIP3    H120804   7.179   2.075   3.730
 6956TIP3    H220805   7.069   2.013   3.647
 6957TIP3   OH220806   5.831   2.073   4.463
 6957TIP3    H120807   5.894   1.999   4.475
 6957TIP3    H220808   5.893   2.149   4.458
 6958TIP3   OH220809   5.630   2.345   4.541
 6958TIP3    H120810   5.680   2.343   4.456
 6958TIP3    H220811   5.654   2.432   4.575
 6959TIP3   OH220812   7.570   2.389   4.698
 6959TIP3    H120813   7.479   2.426   4.704
 6959TIP3    H220814   7.553   2.314   4.638
 6960TIP3   OH220815   7.205   2.021   3.280
 6960TIP3    H120816   7.251   1.951   3.229
 6960TIP3    H220817   7.273   2.092   3.282
 6961TIP3   OH220818   5.616   1.848   4.040
 6961TIP3    H120819   5.523   1.844   4.070
 6961TIP3    H220820   5.610   1.908   3.962
 6962TIP3   OH220821   6.820   3.520   3.581
 6962TIP3    H120822   6.845   3.540   3.487
 6962TIP3    H220823   6.823   3.609   3.621
 6963TIP3   OH220824   5.836   1.926   4.853
 6963TIP3    H120825   5.786   1.924   4.936
 6963TIP3    H220826   5.770   1.969   4.794
 6964TIP3   OH220827   5.876   3.361   4.934
 6964TIP3    H120828   5.783   3.338   4.915
 6964TIP3    H220829   5.884   3.336   5.027
 6965TIP3   OH220830   6.058   3.393   4.483
 6965TIP3    H120831   6.005   3.465   4.443
 6965TIP3    H220832   6.142   3.409   4.436
 6966TIP3   OH220833   6.492   3.651   4.614
 6966TIP3    H120834   6.534   3.643   4.702
 6966TIP3    H220835   6.565   3.692   4.563
 6967TIP3   OH220836   6.692   3.779   4.477
 6967TIP3    H120837   6.768   3.728   4.446
 6967TIP3    H220838   6.736   3.842   4.538
 6968TIP3   OH220839   7.465   2.148   4.585
 6968TIP3    H120840   7.378   2.136   4.543
 6968TIP3    H220841   7.504   2.058   4.570
 6969TIP3   OH220842   5.730   3.652   4.506
 6969TIP3    H120843   5.641   3.683   4.478
 6969TIP3    H220844   5.731   3.684   4.597
 6970TIP3   OH220845   5.962   3.618   4.363
 6970TIP3    H120846   5.877   3.637   4.408
 6970TIP3    H220847   5.949   3.661   4.277
 6971TIP3   OH220848   6.399   3.663   4.155
 6971TIP3    H120849   6.312   3.657   4.108
 6971TIP3    H220850   6.417   3.757   4.141
 6972TIP3   OH220851   6.667   3.583   4.195
 6972TIP3    H120852   6.573   3.608   4.194
 6972TIP3    H220853   6.710   3.663   4.158
 6973TIP3   OH220854   6.861   3.782   4.107
 6973TIP3    H120855   6.846   3.875   4.079
 6973TIP3    H220856   6.899   3.747   4.025
 6974TIP3   OH220857   5.642   3.444   4.246
 6974TIP3    H120858   5.668   3.414   4.336
 6974TIP3    H220859   5.714   3.401   4.194
 6975TIP3   OH220860   5.836   3.314   4.106
 6975TIP3    H120861   5.850   3.231   4.157
 6975TIP3    H220862   5.928   3.348   4.101
 6976TIP3   OH220863   6.106   3.402   4.109
 6976TIP3    H120864   6.133   3.308   4.106
 6976TIP3    H220865   6.145   3.428   4.194
 6977TIP3   OH220866   6.675   2.064   4.196
 6977TIP3    H120867   6.635   1.992   4.248
 6977TIP3    H220868   6.751   2.020   4.153
 6978TIP3   OH220869   7.195   1.938   4.094
 6978TIP3    H120870   7.237   1.993   4.024
 6978TIP3    H220871   7.103   1.969   4.093
 6979TIP3   OH220872   7.294   2.047   3.863
 6979TIP3    H120873   7.368   1.992   3.827
 6979TIP3    H220874   7.334   2.136   3.851
 6980TIP3   OH220875   5.927   1.770   4.210
 6980TIP3    H120876   5.834   1.737   4.213
 6980TIP3    H220877   5.976   1.685   4.204
 6981TIP3   OH220878   5.723   1.644   3.862
 6981TIP3    H120879   5.745   1.702   3.787
 6981TIP3    H220880   5.688   1.708   3.927
 6982TIP3   OH220881   6.377   1.785   4.089
 6982TIP3    H120882   6.429   1.842   4.029
 6982TIP3    H220883   6.387   1.832   4.173
 6983TIP3   OH220884   6.907   1.954   4.078
 6983TIP3    H120885   6.916   1.917   3.989
 6983TIP3    H220886   6.898   1.872   4.133
 6984TIP3   OH220887   6.946   1.877   3.639
 6984TIP3    H120888   6.861   1.923   3.656
 6984TIP3    H220889   6.930   1.791   3.683
 6985TIP3   OH220890   5.429   3.220   3.637
 6985TIP3    H120891   5.343   3.187   3.605
 6985TIP3    H220892   5.420   3.314   3.610
 6986TIP3   OH220893   5.831   1.800   3.624
 6986TIP3    H120894   5.879   1.739   3.564
 6986TIP3    H220895   5.904   1.854   3.659
 6987TIP3   OH220896   6.342   1.978   3.722
 6987TIP3    H120897   6.402   1.934   3.783
 6987TIP3    H220898   6.360   2.072   3.746
 6988TIP3   OH220899   6.204   3.398   3.222
 6988TIP3    H120900   6.290   3.424   3.182
 6988TIP3    H220901   6.180   3.325   3.161
 6989TIP3   OH220902   6.910   3.518   3.323
 6989TIP3    H120903   6.904   3.422   3.303
 6989TIP3    H220904   6.868   3.556   3.244
 6990TIP3   OH220905   6.133   2.052   5.102
 6990TIP3    H120906   6.097   1.982   5.160
 6990TIP3    H220907   6.227   2.053   5.131
 6991TIP3   OH220908   6.382   2.050   5.222
 6991TIP3    H120909   6.468   2.024   5.185
 6991TIP3    H220910   6.368   1.980   5.289
 6992TIP3   OH220911   5.503   3.236   3.275
 6992TIP3    H120912   5.502   3.265   3.367
 6992TIP3    H220913   5.592   3.195   3.266
 6993TIP3   OH220914   7.209   2.115   5.008
 6993TIP3    H120915   7.228   2.084   5.100
 6993TIP3    H220916   7.298   2.110   4.967
 6994TIP3   OH220917   7.146   3.665   4.501
 6994TIP3    H120918   7.065   3.636   4.453
 6994TIP3    H220919   7.128   3.761   4.509
 6995TIP3   OH220920   7.703   2.931   4.021
 6995TIP3    H120921   7.732   2.859   4.082
 6995TIP3    H220922   7.789   2.969   3.996
 6996TIP3   OH220923   7.682   3.344   3.738
 6996TIP3    H120924   7.673   3.246   3.738
 6996TIP3    H220925   7.778   3.353   3.730
 6997TIP3   OH220926   7.385   2.543   3.519
 6997TIP3    H120927   7.338   2.626   3.536
 6997TIP3    H220928   7.315   2.490   3.478
 6998TIP3   OH220929   7.443   2.834   3.700
 6998TIP3    H120930   7.491   2.755   3.736
 6998TIP3    H220931   7.505   2.862   3.631
 6999TIP3   OH220932   8.315   3.764   3.328
 6999TIP3    H120933   8.410   3.740   3.329
 6999TIP3    H220934   8.299   3.776   3.423
 7000TIP3   OH220935   8.210   3.256   3.696
 7000TIP3    H120936   8.221   3.216   3.609
 7000TIP3    H220937   8.293   3.306   3.708
 7001TIP3   OH220938   7.942   2.423   3.705
 7001TIP3    H120939   7.953   2.490   3.634
 7001TIP3    H220940   7.907   2.347   3.654
 7002TIP3   OH220941   7.589   2.627   3.796
 7002TIP3    H120942   7.673   2.610   3.845
 7002TIP3    H220943   7.606   2.572   3.717
 7003TIP3   OH220944   8.018   2.827   3.599
 7003TIP3    H120945   8.110   2.794   3.611
 7003TIP3    H220946   7.975   2.744   3.567
 7004TIP3   OH220947   8.068   3.179   3.927
 7004TIP3    H120948   8.005   3.245   3.964
 7004TIP3    H220949   8.109   3.230   3.855
 7005TIP3   OH220950   7.817   2.543   3.910
 7005TIP3    H120951   7.891   2.565   3.969
 7005TIP3    H220952   7.866   2.492   3.841
 7006TIP3   OH220953   7.900   3.379   4.023
 7006TIP3    H120954   7.872   3.465   3.986
 7006TIP3    H220955   7.819   3.359   4.076
 7007TIP3   OH220956   7.282   3.069   3.257
 7007TIP3    H120957   7.245   3.095   3.170
 7007TIP3    H220958   7.315   3.154   3.291
 7008TIP3   OH220959   7.815   2.974   3.485
 7008TIP3    H120960   7.773   2.914   3.419
 7008TIP3    H220961   7.889   2.918   3.517
 7009TIP3   OH220962   7.944   3.384   3.631
 7009TIP3    H120963   7.920   3.349   3.543
 7009TIP3    H220964   8.028   3.340   3.651
 7010TIP3   OH220965   7.941   2.942   3.842
 7010TIP3    H120966   7.975   2.909   3.755
 7010TIP3    H220967   7.994   3.023   3.856
 7011TIP3   OH220968   8.097   3.494   4.181
 7011TIP3    H120969   8.032   3.558   4.218
 7011TIP3    H220970   8.035   3.440   4.126
 7012TIP3   OH220971   7.849   3.063   4.268
 7012TIP3    H120972   7.846   3.149   4.314
 7012TIP3    H220973   7.756   3.035   4.275
 7013TIP3   OH220974   8.190   3.546   3.201
 7013TIP3    H120975   8.215   3.634   3.235
 7013TIP3    H220976   8.126   3.568   3.132
 7014TIP3   OH220977   7.891   3.663   4.253
 7014TIP3    H120978   7.856   3.665   4.162
 7014TIP3    H220979   7.809   3.642   4.305
 7015TIP3   OH220980   7.687   2.815   3.295
 7015TIP3    H120981   7.616   2.851   3.237
 7015TIP3    H220982   7.661   2.723   3.304
 7016TIP3   OH220983   7.471   3.195   4.200
 7016TIP3    H120984   7.414   3.164   4.127
 7016TIP3    H220985   7.513   3.111   4.230
 7017TIP3   OH220986   7.324   3.387   3.832
 7017TIP3    H120987   7.421   3.384   3.826
 7017TIP3    H220988   7.310   3.468   3.884
 7018TIP3   OH220989   8.284   3.610   4.017
 7018TIP3    H120990   8.288   3.703   4.047
 7018TIP3    H220991   8.214   3.574   4.075
 7019TIP3   OH220992   8.061   3.751   2.975
 7019TIP3    H120993   8.015   3.735   2.890
 7019TIP3    H220994   8.027   3.839   3.000
 7020TIP3   OH220995   7.493   3.601   3.359
 7020TIP3    H120996   7.541   3.593   3.445
 7020TIP3    H220997   7.444   3.517   3.358
 7021TIP3   OH220998   8.325   3.713   2.904
 7021TIP3    H120999   8.233   3.728   2.934
 7021TIP3    H221000   8.340   3.621   2.931
 7022TIP3   OH221001   7.675   3.379   4.181
 7022TIP3    H121002   7.724   3.363   4.264
 7022TIP3    H221003   7.601   3.316   4.189
 7023TIP3   OH221004   8.019   2.734   4.007
 7023TIP3    H121005   7.951   2.736   4.077
 7023TIP3    H221006   7.983   2.800   3.944
 7024TIP3   OH221007   7.891   2.607   3.500
 7024TIP3    H121008   7.802   2.572   3.524
 7024TIP3    H221009   7.904   2.565   3.412
 7025TIP3   OH221010   7.818   2.745   4.199
 7025TIP3    H121011   7.864   2.791   4.271
 7025TIP3    H221012   7.805   2.657   4.242
 7026TIP3   OH221013   7.844   2.250   2.947
 7026TIP3    H121014   7.914   2.183   2.928
 7026TIP3    H221015   7.806   2.258   2.858
 7027TIP3   OH221016   7.434   2.265   3.785
 7027TIP3    H121017   7.508   2.296   3.841
 7027TIP3    H221018   7.479   2.230   3.707
 7028TIP3   OH221019   7.380   2.247   3.299
 7028TIP3    H121020   7.426   2.285   3.221
 7028TIP3    H221021   7.322   2.322   3.322
 7029TIP3   OH221022   7.653   2.487   3.567
 7029TIP3    H121023   7.558   2.483   3.541
 7029TIP3    H221024   7.684   2.394   3.555
 7030TIP3   OH221025   7.927   2.492   3.252
 7030TIP3    H121026   8.009   2.493   3.200
 7030TIP3    H221027   7.860   2.510   3.181
 7031TIP3   OH221028   7.755   2.535   3.049
 7031TIP3    H121029   7.696   2.468   3.012
 7031TIP3    H221030   7.812   2.554   2.971
 7032TIP3   OH221031   7.829   3.306   4.404
 7032TIP3    H121032   7.907   3.343   4.449
 7032TIP3    H221033   7.766   3.300   4.479
 7033TIP3   OH221034   7.806   2.249   3.531
 7033TIP3    H121035   7.776   2.172   3.586
 7033TIP3    H221036   7.848   2.201   3.457
 7034TIP3   OH221037   8.279   2.649   3.996
 7034TIP3    H121038   8.184   2.672   3.982
 7034TIP3    H221039   8.316   2.734   4.024
 7035TIP3   OH221040   7.975   3.073   3.045
 7035TIP3    H121041   7.931   2.986   3.041
 7035TIP3    H221042   7.986   3.086   3.142
 7036TIP3   OH221043   8.369   3.332   4.075
 7036TIP3    H121044   8.417   3.323   4.157
 7036TIP3    H221045   8.353   3.428   4.069
 7037TIP3   OH221046   7.705   3.069   3.721
 7037TIP3    H121047   7.739   3.039   3.634
 7037TIP3    H221048   7.749   3.006   3.781
 7038TIP3   OH221049   8.120   3.188   2.842
 7038TIP3    H121050   8.095   3.279   2.868
 7038TIP3    H221051   8.088   3.138   2.919
 7039TIP3   OH221052   7.586   2.988   4.339
 7039TIP3    H121053   7.605   2.969   4.433
 7039TIP3    H221054   7.522   2.918   4.318
 7040TIP3   OH221055   8.323   3.103   4.356
 7040TIP3    H121056   8.245   3.056   4.322
 7040TIP3    H221057   8.391   3.036   4.335
 7041TIP3   OH221058   7.810   3.370   3.354
 7041TIP3    H121059   7.808   3.450   3.297
 7041TIP3    H221060   7.716   3.348   3.357
 7042TIP3   OH221061   7.369   2.672   3.050
 7042TIP3    H121062   7.417   2.754   3.074
 7042TIP3    H221063   7.294   2.675   3.114
 7043TIP3   OH221064   7.960   3.137   3.314
 7043TIP3    H121065   7.915   3.224   3.321
 7043TIP3    H221066   7.908   3.083   3.377
 7044TIP3   OH221067   8.075   3.708   3.817
 7044TIP3    H121068   8.110   3.785   3.768
 7044TIP3    H221069   8.155   3.679   3.865
 7045TIP3   OH221070   7.726   3.607   3.202
 7045TIP3    H121071   7.640   3.618   3.247
 7045TIP3    H221072   7.760   3.700   3.204
 7046TIP3   OH221073   7.791   2.526   4.367
 7046TIP3    H121074   7.705   2.483   4.355
 7046TIP3    H221075   7.849   2.457   4.327
 7047TIP3   OH221076   7.515   3.573   3.974
 7047TIP3    H121077   7.570   3.502   4.013
 7047TIP3    H221078   7.541   3.648   4.028
 7048TIP3   OH221079   7.799   3.217   2.661
 7048TIP3    H121080   7.806   3.122   2.637
 7048TIP3    H221081   7.782   3.211   2.757
 7049TIP3   OH221082   7.753   3.221   2.931
 7049TIP3    H121083   7.832   3.185   2.976
 7049TIP3    H221084   7.761   3.318   2.947
 7050TIP3   OH221085   7.480   2.914   3.135
 7050TIP3    H121086   7.415   2.959   3.192
 7050TIP3    H221087   7.497   2.984   3.069
 7051TIP3   OH221088   8.017   3.434   2.888
 7051TIP3    H121089   7.927   3.454   2.919
 7051TIP3    H221090   8.037   3.515   2.839
 7052TIP3   OH221091   7.757   3.497   2.949
 7052TIP3    H121092   7.725   3.567   2.888
 7052TIP3    H221093   7.743   3.541   3.036
 7053TIP3   OH221094   7.875   2.193   3.220
 7053TIP3    H121095   7.865   2.286   3.249
 7053TIP3    H221096   7.882   2.206   3.122
 7054TIP3   OH221097   7.482   3.121   2.939
 7054TIP3    H121098   7.554   3.186   2.950
 7054TIP3    H221099   7.524   3.064   2.872
 7055TIP3   OH221100   7.422   2.402   3.079
 7055TIP3    H121101   7.424   2.499   3.071
 7055TIP3    H221102   7.347   2.380   3.021
 7056TIP3   OH221103   7.346   3.342   3.324
 7056TIP3    H121104   7.278   3.375   3.385
 7056TIP3    H221105   7.317   3.384   3.240
 7057TIP3   OH221106   7.508   3.888   4.399
 7057TIP3    H121107   7.594   3.890   4.447
 7057TIP3    H221108   7.489   3.793   4.398
 7058TIP3   OH221109   7.982   3.840   4.448
 7058TIP3    H121110   8.078   3.829   4.448
 7058TIP3    H221111   7.956   3.781   4.374
 7059TIP3   OH221112   7.962   3.417   2.570
 7059TIP3    H121113   7.900   3.349   2.605
 7059TIP3    H221114   8.047   3.380   2.599
 7060TIP3   OH221115   7.636   3.290   4.601
 7060TIP3    H121116   7.653   3.194   4.605
 7060TIP3    H221117   7.548   3.292   4.556
 7061TIP3   OH221118   7.620   2.936   2.792
 7061TIP3    H121119   7.671   2.903   2.869
 7061TIP3    H221120   7.691   2.941   2.725
 7062TIP3   OH221121   8.259   3.377   4.371
 7062TIP3    H121122   8.207   3.396   4.289
 7062TIP3    H221123   8.278   3.281   4.361
 7063TIP3   OH221124   8.108   3.116   2.585
 7063TIP3    H121125   8.126   3.150   2.677
 7063TIP3    H221126   8.034   3.056   2.606
 7064TIP3   OH221127   7.755   3.032   4.582
 7064TIP3    H121128   7.820   2.965   4.557
 7064TIP3    H221129   7.785   3.058   4.671
 7065TIP3   OH221130   7.818   2.840   3.007
 7065TIP3    H121131   7.790   2.795   3.088
 7065TIP3    H221132   7.864   2.767   2.960
 7066TIP3   OH221133   8.066   2.903   4.277
 7066TIP3    H121134   7.989   2.964   4.270
 7066TIP3    H221135   8.119   2.933   4.199
 7067TIP3   OH221136   7.929   2.633   2.854
 7067TIP3    H121137   7.894   2.640   2.763
 7067TIP3    H221138   8.022   2.613   2.832
 7068TIP3   OH221139   8.230   2.698   4.356
 7068TIP3    H121140   8.216   2.611   4.312
 7068TIP3    H221141   8.163   2.753   4.311
 7069TIP3   OH221142   8.208   2.467   4.196
 7069TIP3    H121143   8.208   2.505   4.106
 7069TIP3    H221144   8.124   2.415   4.193
 7070TIP3   OH221145   8.215   3.011   4.085
 7070TIP3    H121146   8.278   2.987   4.016
 7070TIP3    H221147   8.162   3.081   4.040
 7071TIP3   OH221148   8.107   2.804   4.593
 7071TIP3    H121149   8.036   2.738   4.610
 7071TIP3    H221150   8.129   2.785   4.500
 7072TIP3   OH221151   7.938   2.592   4.649
 7072TIP3    H121152   7.925   2.507   4.601
 7072TIP3    H221153   7.963   2.559   4.737
 7073TIP3   OH221154   7.721   3.700   2.761
 7073TIP3    H121155   7.818   3.696   2.749
 7073TIP3    H221156   7.697   3.754   2.683
 7074TIP3   OH221157   7.211   3.082   2.975
 7074TIP3    H121158   7.306   3.103   2.961
 7074TIP3    H221159   7.204   2.993   2.934
 7075TIP3   OH221160   7.122   3.690   3.393
 7075TIP3    H121161   7.056   3.629   3.355
 7075TIP3    H221162   7.168   3.631   3.457
 7076TIP3   OH221163   7.258   3.538   3.580
 7076TIP3    H121164   7.260   3.467   3.647
 7076TIP3    H221165   7.307   3.607   3.628
 7077TIP3   OH221166   7.442   2.963   3.950
 7077TIP3    H121167   7.440   2.923   3.860
 7077TIP3    H221168   7.538   2.959   3.969
 7078TIP3   OH221169   7.664   2.644   4.635
 7078TIP3    H121170   7.756   2.629   4.607
 7078TIP3    H221171   7.641   2.556   4.671
 7079TIP3   OH221172   7.638   2.333   3.967
 7079TIP3    H121173   7.701   2.272   4.008
 7079TIP3    H221174   7.697   2.410   3.956
 7080TIP3   OH221175   7.422   2.609   4.020
 7080TIP3    H121176   7.471   2.595   3.936
 7080TIP3    H221177   7.477   2.674   4.064
 7081TIP3   OH221178   7.405   2.094   3.522
 7081TIP3    H121179   7.315   2.101   3.555
 7081TIP3    H221180   7.406   2.159   3.449
 7082TIP3   OH221181   7.615   2.178   4.349
 7082TIP3    H121182   7.566   2.191   4.431
 7082TIP3    H221183   7.558   2.223   4.284
 7083TIP3   OH221184   7.672   3.616   4.418
 7083TIP3    H121185   7.579   3.591   4.400
 7083TIP3    H221186   7.678   3.598   4.513
 7084TIP3   OH221187   7.852   3.650   3.968
 7084TIP3    H121188   7.803   3.725   3.929
 7084TIP3    H221189   7.937   3.663   3.920
 7085TIP3   OH221190   8.281   3.877   4.102
 7085TIP3    H121191   8.329   3.886   4.188
 7085TIP3    H221192   8.329   3.940   4.044
 7086TIP3   OH221193   8.416   4.049   3.929
 7086TIP3    H121194   8.470   4.042   3.846
 7086TIP3    H221195   8.478   4.098   3.985
 7087TIP3   OH221196   7.526   3.903   3.994
 7087TIP3    H121197   7.436   3.933   3.970
 7087TIP3    H221198   7.540   3.955   4.075
 7088TIP3   OH221199   7.759   3.881   3.849
 7088TIP3    H121200   7.672   3.893   3.893
 7088TIP3    H221201   7.740   3.915   3.759
 7089TIP3   OH221202   8.160   3.917   3.651
 7089TIP3    H121203   8.086   3.930   3.587
 7089TIP3    H221204   8.173   4.008   3.684
 7090TIP3   OH221205   8.412   3.818   3.632
 7090TIP3    H121206   8.320   3.853   3.641
 7090TIP3    H221207   8.463   3.900   3.651
 7091TIP3   OH221208   7.436   3.698   3.732
 7091TIP3    H121209   7.460   3.670   3.823
 7091TIP3    H221210   7.509   3.655   3.682
 7092TIP3   OH221211   7.632   3.570   3.593
 7092TIP3    H121212   7.647   3.487   3.643
 7092TIP3    H221213   7.723   3.607   3.590
 7093TIP3   OH221214   7.897   3.664   3.598
 7093TIP3    H121215   7.925   3.571   3.586
 7093TIP3    H221216   7.946   3.685   3.680
 7094TIP3   OH221217   7.715   2.031   3.664
 7094TIP3    H121218   7.630   1.991   3.691
 7094TIP3    H221219   7.775   1.954   3.677
 7095TIP3   OH221220   7.501   1.900   3.333
 7095TIP3    H121221   7.537   1.962   3.267
 7095TIP3    H221222   7.481   1.960   3.408
 7096TIP3   OH221223   7.223   3.475   3.125
 7096TIP3    H121224   7.137   3.444   3.090
 7096TIP3    H221225   7.217   3.569   3.098
 7097TIP3   OH221226   7.622   2.057   3.116
 7097TIP3    H121227   7.667   1.999   3.052
 7097TIP3    H221228   7.696   2.112   3.148
 7098TIP3   OH221229   7.989   3.655   2.717
 7098TIP3    H121230   8.080   3.667   2.681
 7098TIP3    H221231   7.960   3.583   2.656
 7099TIP3   OH221232   7.918   2.307   4.613
 7099TIP3    H121233   7.896   2.223   4.657
 7099TIP3    H221234   8.015   2.311   4.625
 7100TIP3   OH221235   8.172   2.315   4.726
 7100TIP3    H121236   8.244   2.272   4.675
 7100TIP3    H221237   8.150   2.242   4.788
 7101TIP3   OH221238   7.299   3.491   2.763
 7101TIP3    H121239   7.305   3.519   2.856
 7101TIP3    H221240   7.388   3.450   2.748
 7102TIP3   OH221241   0.868   3.827   4.954
 7102TIP3    H121242   0.835   3.917   4.932
 7102TIP3    H221243   0.794   3.773   4.921
 7103TIP3   OH221244   0.868   3.828   5.342
 7103TIP3    H121245   0.899   3.797   5.429
 7103TIP3    H221246   0.823   3.750   5.307
 7104TIP3   OH221247   0.194   3.704   5.663
 7104TIP3    H121248   0.154   3.651   5.735
 7104TIP3    H221249   0.235   3.776   5.713
 7105TIP3   OH221250   1.112   4.131   5.021
 7105TIP3    H121251   1.092   4.060   5.083
 7105TIP3    H221252   1.141   4.203   5.080
 7106TIP3   OH221253   0.143   4.113   5.360
 7106TIP3    H121254   0.122   4.019   5.382
 7106TIP3    H221255   0.229   4.122   5.403
 7107TIP3   OH221256  -0.090   3.601   5.341
 7107TIP3    H121257  -0.043   3.561   5.416
 7107TIP3    H221258  -0.041   3.683   5.328
 7108TIP3   OH221259   0.764   4.590   5.043
 7108TIP3    H121260   0.804   4.522   4.984
 7108TIP3    H221261   0.755   4.540   5.125
 7109TIP3   OH221262   0.664   4.052   5.388
 7109TIP3    H121263   0.700   3.973   5.343
 7109TIP3    H221264   0.748   4.096   5.412
 7110TIP3   OH221265   1.679   3.369   5.384
 7110TIP3    H121266   1.708   3.453   5.425
 7110TIP3    H221267   1.707   3.383   5.292
 7111TIP3   OH221268   1.075   3.551   5.417
 7111TIP3    H121269   1.118   3.466   5.437
 7111TIP3    H221270   1.044   3.535   5.326
 7112TIP3   OH221271   0.422   3.211   5.381
 7112TIP3    H121272   0.399   3.284   5.320
 7112TIP3    H221273   0.370   3.139   5.341
 7113TIP3   OH221274   1.110   3.302   5.005
 7113TIP3    H121275   1.184   3.290   5.069
 7113TIP3    H221276   1.160   3.339   4.929
 7114TIP3   OH221277   0.053   3.415   5.497
 7114TIP3    H121278   0.135   3.403   5.549
 7114TIP3    H221279   0.078   3.371   5.413
 7115TIP3   OH221280   0.492   3.611   5.271
 7115TIP3    H121281   0.584   3.585   5.293
 7115TIP3    H221282   0.452   3.526   5.244
 7116TIP3   OH221283   1.751   3.578   5.556
 7116TIP3    H121284   1.667   3.625   5.537
 7116TIP3    H221285   1.772   3.612   5.644
 7117TIP3   OH221286   0.412   3.192   5.822
 7117TIP3    H121287   0.357   3.235   5.754
 7117TIP3    H221288   0.358   3.211   5.902
 7118TIP3   OH221289   0.757   4.048   4.825
 7118TIP3    H121290   0.711   4.025   4.743
 7118TIP3    H221291   0.708   4.128   4.853
 7119TIP3   OH221292   0.516   3.979   5.616
 7119TIP3    H121293   0.453   4.044   5.653
 7119TIP3    H221294   0.555   4.027   5.540
 7120TIP3   OH221295   1.315   3.308   5.183
 7120TIP3    H121296   1.298   3.269   5.270
 7120TIP3    H221297   1.369   3.386   5.207
 7121TIP3   OH221298   0.291   3.308   5.603
 7121TIP3    H121299   0.348   3.384   5.628
 7121TIP3    H221300   0.343   3.272   5.527
 7122TIP3   OH221301   0.327   4.156   5.732
 7122TIP3    H121302   0.265   4.204   5.672
 7122TIP3    H221303   0.261   4.112   5.788
 7123TIP3   OH221304   1.177   4.374   5.188
 7123TIP3    H121305   1.087   4.364   5.226
 7123TIP3    H221306   1.168   4.460   5.142
 7124TIP3   OH221307   1.472   3.268   5.549
 7124TIP3    H121308   1.385   3.298   5.518
 7124TIP3    H221309   1.533   3.302   5.480
 7125TIP3   OH221310   0.763   2.911   5.534
 7125TIP3    H121311   0.748   2.816   5.554
 7125TIP3    H221312   0.687   2.951   5.581
 7126TIP3   OH221313   0.875   4.419   4.857
 7126TIP3    H121314   0.925   4.336   4.840
 7126TIP3    H221315   0.938   4.483   4.816
 7127TIP3   OH221316   1.022   4.205   4.770
 7127TIP3    H121317   0.982   4.124   4.734
 7127TIP3    H221318   1.060   4.171   4.854
 7128TIP3   OH221319   1.404   4.283   5.531
 7128TIP3    H121320   1.392   4.205   5.472
 7128TIP3    H221321   1.387   4.357   5.469
 7129TIP3   OH221322   0.698   3.678   4.797
 7129TIP3    H121323   0.617   3.728   4.774
 7129TIP3    H221324   0.742   3.670   4.710
 7130TIP3   OH221325   0.643   3.434   4.543
 7130TIP3    H121326   0.709   3.481   4.597
 7130TIP3    H221327   0.688   3.442   4.456
 7131TIP3   OH221328   1.598   3.922   5.376
 7131TIP3    H121329   1.515   3.973   5.380
 7131TIP3    H221330   1.628   3.944   5.286
 7132TIP3   OH221331   1.049   3.771   4.756
 7132TIP3    H121332   0.991   3.789   4.833
 7132TIP3    H221333   1.130   3.740   4.802
 7133TIP3   OH221334   1.278   3.797   5.676
 7133TIP3    H121335   1.274   3.881   5.724
 7133TIP3    H221336   1.191   3.798   5.630
 7134TIP3   OH221337   0.278   3.753   5.177
 7134TIP3    H121338   0.236   3.694   5.110
 7134TIP3    H221339   0.357   3.701   5.201
 7135TIP3   OH221340   0.425   4.188   5.316
 7135TIP3    H121341   0.389   4.139   5.240
 7135TIP3    H221342   0.510   4.141   5.333
 7136TIP3   OH221343   0.468   3.719   5.529
 7136TIP3    H121344   0.466   3.708   5.432
 7136TIP3    H221345   0.472   3.815   5.542
 7137TIP3   OH221346   0.936   4.368   5.309
 7137TIP3    H121347   0.926   4.445   5.369
 7137TIP3    H221348   0.922   4.292   5.369
 7138TIP3   OH221349   0.541   4.291   5.852
 7138TIP3    H121350   0.486   4.346   5.910
 7138TIP3    H221351   0.473   4.236   5.807
 7139TIP3   OH221352   0.875   3.609   4.591
 7139TIP3    H121353   0.941   3.678   4.612
 7139TIP3    H221354   0.876   3.604   4.493
 7140TIP3   OH221355   0.291   3.839   5.959
 7140TIP3    H121356   0.301   3.922   6.011
 7140TIP3    H221357   0.195   3.841   5.943
 7141TIP3   OH221358   0.629   4.294   4.865
 7141TIP3    H121359   0.710   4.348   4.870
 7141TIP3    H221360   0.569   4.351   4.815
 7142TIP3   OH221361   0.314   4.484   5.955
 7142TIP3    H121362   0.310   4.480   5.857
 7142TIP3    H221363   0.246   4.418   5.979
 7143TIP3   OH221364   1.396   2.855   4.635
 7143TIP3    H121365   1.318   2.882   4.687
 7143TIP3    H221366   1.415   2.937   4.585
 7144TIP3   OH221367   0.153   3.588   4.988
 7144TIP3    H121368   0.093   3.644   4.934
 7144TIP3    H221369   0.098   3.511   5.003
 7145TIP3   OH221370   1.200   4.227   4.186
 7145TIP3    H121371   1.211   4.323   4.170
 7145TIP3    H221372   1.291   4.194   4.168
 7146TIP3   OH221373   1.641   4.630   5.579
 7146TIP3    H121374   1.641   4.533   5.595
 7146TIP3    H221375   1.558   4.655   5.625
 7147TIP3   OH221376   0.746   4.414   5.713
 7147TIP3    H121377   0.743   4.506   5.745
 7147TIP3    H221378   0.672   4.373   5.764
 7148TIP3   OH221379   0.513   4.543   4.663
 7148TIP3    H121380   0.461   4.524   4.583
 7148TIP3    H221381   0.479   4.631   4.690
 7149TIP3   OH221382   0.712   4.446   4.301
 7149TIP3    H121383   0.769   4.374   4.267
 7149TIP3    H221384   0.744   4.454   4.393
 7150TIP3   OH221385   0.763   4.493   4.571
 7150TIP3    H121386   0.673   4.503   4.610
 7150TIP3    H221387   0.809   4.449   4.644
 7151TIP3   OH221388   1.528   3.758   5.854
 7151TIP3    H121389   1.447   3.767   5.801
 7151TIP3    H221390   1.546   3.662   5.845
 7152TIP3   OH221391   0.528   2.989   5.665
 7152TIP3    H121392   0.439   2.959   5.637
 7152TIP3    H221393   0.501   3.070   5.713
 7153TIP3   OH221394   1.063   3.103   5.858
 7153TIP3    H121395   1.132   3.076   5.922
 7153TIP3    H221396   0.980   3.084   5.906
 7154TIP3   OH221397   1.297   3.533   5.774
 7154TIP3    H121398   1.248   3.531   5.860
 7154TIP3    H221399   1.274   3.620   5.738
 7155TIP3   OH221400   0.670   3.030   4.633
 7155TIP3    H121401   0.638   3.035   4.724
 7155TIP3    H221402   0.628   2.949   4.602
 7156TIP3   OH221403   0.462   3.502   5.687
 7156TIP3    H121404   0.403   3.525   5.762
 7156TIP3    H221405   0.456   3.585   5.632
 7157TIP3   OH221406   0.345   3.388   5.194
 7157TIP3    H121407   0.249   3.374   5.208
 7157TIP3    H221408   0.355   3.351   5.103
 7158TIP3   OH221409   0.832   3.474   4.925
 7158TIP3    H121410   0.781   3.547   4.883
 7158TIP3    H221411   0.886   3.443   4.850
 7159TIP3   OH221412   1.008   3.755   6.010
 7159TIP3    H121413   0.985   3.681   6.071
 7159TIP3    H221414   1.103   3.764   6.030
 7160TIP3   OH221415   0.990   3.504   5.159
 7160TIP3    H121416   0.927   3.532   5.090
 7160TIP3    H221417   1.024   3.423   5.115
 7161TIP3   OH221418   0.290   3.523   5.900
 7161TIP3    H121419   0.286   3.599   5.961
 7161TIP3    H221420   0.275   3.447   5.959
 7162TIP3   OH221421   0.330   3.008   4.605
 7162TIP3    H121422   0.316   3.016   4.701
 7162TIP3    H221423   0.256   3.063   4.571
 7163TIP3   OH221424  -0.109   3.068   5.457
 7163TIP3    H121425  -0.036   3.091   5.518
 7163TIP3    H221426  -0.074   2.991   5.411
 7164TIP3   OH221427  -0.136   3.095   5.019
 7164TIP3    H121428  -0.112   3.107   4.923
 7164TIP3    H221429  -0.150   3.188   5.043
 7165TIP3   OH221430   1.004   3.750   5.583
 7165TIP3    H121431   1.035   3.679   5.523
 7165TIP3    H221432   0.971   3.697   5.658
 7166TIP3   OH221433   0.676   3.206   5.254
 7166TIP3    H121434   0.594   3.210   5.308
 7166TIP3    H221435   0.745   3.208   5.322
 7167TIP3   OH221436   0.104   3.262   5.264
 7167TIP3    H121437   0.012   3.235   5.262
 7167TIP3    H221438   0.151   3.178   5.248
 7168TIP3   OH221439   0.371   3.262   4.952
 7168TIP3    H121440   0.464   3.286   4.930
 7168TIP3    H221441   0.322   3.289   4.871
 7169TIP3   OH221442   1.163   3.290   5.458
 7169TIP3    H121443   1.131   3.303   5.550
 7169TIP3    H221444   1.093   3.231   5.423
 7170TIP3   OH221445   0.218   3.292   4.729
 7170TIP3    H121446   0.153   3.252   4.669
 7170TIP3    H221447   0.273   3.339   4.663
 7171TIP3   OH221448   1.331   4.979   5.679
 7171TIP3    H121449   1.334   5.003   5.585
 7171TIP3    H221450   1.414   5.022   5.712
 7172TIP3   OH221451   0.294   4.075   6.114
 7172TIP3    H121452   0.366   4.111   6.170
 7172TIP3    H221453   0.217   4.123   6.150
 7173TIP3   OH221454   0.753   3.543   5.352
 7173TIP3    H121455   0.828   3.504   5.305
 7173TIP3    H221456   0.757   3.500   5.440
 7174TIP3   OH221457   0.266   3.032   5.239
 7174TIP3    H121458   0.233   2.952   5.284
 7174TIP3    H221459   0.312   2.995   5.162
 7175TIP3   OH221460   0.728   3.441   5.642
 7175TIP3    H121461   0.637   3.475   5.656
 7175TIP3    H221462   0.784   3.504   5.692
 7176TIP3   OH221463   0.474   3.837   4.742
 7176TIP3    H121464   0.408   3.763   4.733
 7176TIP3    H221465   0.452   3.868   4.833
 7177TIP3   OH221466   1.363   4.066   5.365
 7177TIP3    H121467   1.388   4.115   5.283
 7177TIP3    H221468   1.279   4.023   5.338
 7178TIP3   OH221469   0.925   3.135   4.606
 7178TIP3    H121470   0.827   3.126   4.606
 7178TIP3    H221471   0.937   3.232   4.618
 7179TIP3   OH221472   0.870   4.152   5.732
 7179TIP3    H121473   0.888   4.123   5.822
 7179TIP3    H221474   0.826   4.238   5.744
 7180TIP3   OH221475   0.993   3.387   4.709
 7180TIP3    H121476   1.089   3.400   4.718
 7180TIP3    H221477   0.966   3.464   4.654
 7181TIP3   OH221478   0.165   3.845   5.419
 7181TIP3    H121479   0.207   3.801   5.343
 7181TIP3    H221480   0.179   3.781   5.493
 7182TIP3   OH221481   0.610   3.982   4.560
 7182TIP3    H121482   0.562   4.068   4.566
 7182TIP3    H221483   0.557   3.927   4.621
 7183TIP3   OH221484   0.765   3.889   6.049
 7183TIP3    H121485   0.700   3.832   6.004
 7183TIP3    H221486   0.849   3.851   6.017
 7184TIP3   OH221487   1.025   4.417   5.631
 7184TIP3    H121488   0.929   4.406   5.645
 7184TIP3    H221489   1.050   4.466   5.711
 7185TIP3   OH221490   1.429   3.482   4.537
 7185TIP3    H121491   1.370   3.435   4.473
 7185TIP3    H221492   1.424   3.571   4.495
 7186TIP3   OH221493   1.654   4.342   5.619
 7186TIP3    H121494   1.556   4.333   5.611
 7186TIP3    H221495   1.681   4.311   5.530
 7187TIP3   OH221496   1.152   4.296   4.454
 7187TIP3    H121497   1.106   4.233   4.512
 7187TIP3    H221498   1.146   4.252   4.367
 7188TIP3   OH221499   1.131   3.929   5.281
 7188TIP3    H121500   1.037   3.903   5.295
 7188TIP3    H221501   1.165   3.849   5.237
 7189TIP3   OH221502   0.267   4.159   5.041
 7189TIP3    H121503   0.253   4.236   4.982
 7189TIP3    H221504   0.179   4.145   5.078
 7190TIP3   OH221505  -0.174   3.461   4.778
 7190TIP3    H121506  -0.117   3.523   4.727
 7190TIP3    H221507  -0.248   3.521   4.796
 7191TIP3   OH221508   0.400   3.922   4.987
 7191TIP3    H121509   0.362   4.011   5.004
 7191TIP3    H221510   0.358   3.869   5.058
 7192TIP3   OH221511   0.539   4.502   5.509
 7192TIP3    H121512   0.582   4.570   5.453
 7192TIP3    H221513   0.616   4.458   5.548
 7193TIP3   OH221514   0.176   4.400   4.894
 7193TIP3    H121515   0.095   4.418   4.944
 7193TIP3    H221516   0.217   4.489   4.893
 7194TIP3   OH221517   0.917   4.137   5.464
 7194TIP3    H121518   0.907   4.134   5.562
 7194TIP3    H221519   0.991   4.076   5.451
 7195TIP3   OH221520   0.894   4.036   4.348
 7195TIP3    H121521   0.946   4.010   4.428
 7195TIP3    H221522   0.808   3.997   4.370
 7196TIP3   OH221523   1.165   4.668   5.519
 7196TIP3    H121524   1.087   4.609   5.513
 7196TIP3    H221525   1.147   4.729   5.445
 7197TIP3   OH221526   1.246   4.502   4.177
 7197TIP3    H121527   1.277   4.575   4.120
 7197TIP3    H221528   1.163   4.542   4.209
 7198TIP3   OH221529   0.259   3.263   6.045
 7198TIP3    H121530   0.165   3.262   6.068
 7198TIP3    H221531   0.297   3.210   6.118
 7199TIP3   OH221532   1.054   3.968   4.563
 7199TIP3    H121533   1.042   3.902   4.635
 7199TIP3    H221534   1.151   3.961   4.551
 7200TIP3   OH221535   0.257   3.999   4.338
 7200TIP3    H121536   0.280   3.907   4.318
 7200TIP3    H221537   0.240   3.994   4.435
 7201TIP3   OH221538   0.224   4.013   4.605
 7201TIP3    H121539   0.272   3.975   4.680
 7201TIP3    H221540   0.213   4.106   4.632
 7202TIP3   OH221541  -0.028   3.718   4.833
 7202TIP3    H121542  -0.110   3.763   4.857
 7202TIP3    H221543  -0.037   3.714   4.734
 7203TIP3   OH221544   1.090   3.341   5.718
 7203TIP3    H121545   1.171   3.380   5.755
 7203TIP3    H221546   1.078   3.260   5.772
 7204TIP3   OH221547   0.974   3.087   4.884
 7204TIP3    H121548   0.955   3.112   4.790
 7204TIP3    H221549   1.011   3.171   4.919
 7205TIP3   OH221550   0.474   4.217   4.572
 7205TIP3    H121551   0.384   4.231   4.608
 7205TIP3    H221552   0.479   4.289   4.508
 7206TIP3   OH221553   0.655   3.271   4.984
 7206TIP3    H121554   0.717   3.344   4.964
 7206TIP3    H221555   0.661   3.265   5.081
 7207TIP3   OH221556   0.926   3.589   5.789
 7207TIP3    H121557   0.949   3.640   5.869
 7207TIP3    H221558   0.979   3.508   5.800
 7208TIP3   OH221559   0.801   2.993   5.085
 7208TIP3    H121560   0.789   3.071   5.142
 7208TIP3    H221561   0.863   3.030   5.017
 7209TIP3   OH221562   0.215   4.286   4.642
 7209TIP3    H121563   0.186   4.356   4.579
 7209TIP3    H221564   0.197   4.330   4.729
 7210TIP3   OH221565   0.313   2.999   4.882
 7210TIP3    H121566   0.309   3.092   4.912
 7210TIP3    H221567   0.409   2.985   4.889
 7211TIP3   OH221568   1.564   3.492   5.776
 7211TIP3    H121569   1.466   3.489   5.780
 7211TIP3    H221570   1.578   3.450   5.689
 7212TIP3   OH221571   1.216   3.686   5.161
 7212TIP3    H121572   1.140   3.626   5.171
 7212TIP3    H221573   1.287   3.638   5.209
 7213TIP3   OH221574  -0.150   3.188   4.763
 7213TIP3    H121575  -0.145   3.286   4.771
 7213TIP3    H221576  -0.178   3.181   4.670
 7214TIP3   OH221577   1.186   4.646   5.109
 7214TIP3    H121578   1.144   4.693   5.033
 7214TIP3    H221579   1.281   4.663   5.088
 7215TIP3   OH221580   0.266   2.907   5.633
 7215TIP3    H121581   0.233   2.871   5.548
 7215TIP3    H221582   0.254   2.830   5.693
 7216TIP3   OH221583   0.448   4.659   6.142
 7216TIP3    H121584   0.531   4.607   6.140
 7216TIP3    H221585   0.393   4.601   6.084
 7217TIP3   OH221586   0.418   4.207   4.260
 7217TIP3    H121587   0.361   4.136   4.298
 7217TIP3    H221588   0.495   4.154   4.232
 7218TIP3   OH221589   1.070   4.548   5.873
 7218TIP3    H121590   1.068   4.473   5.937
 7218TIP3    H221591   1.155   4.591   5.897
 7219TIP3   OH221592   0.856   4.248   4.176
 7219TIP3    H121593   0.888   4.176   4.236
 7219TIP3    H221594   0.916   4.240   4.099
 7220TIP3   OH221595   0.692   4.164   6.061
 7220TIP3    H121596   0.650   4.176   5.974
 7220TIP3    H221597   0.724   4.071   6.056
 7221TIP3   OH221598   0.590   3.925   4.293
 7221TIP3    H121599   0.589   3.937   4.391
 7221TIP3    H221600   0.559   3.834   4.285
 7222TIP3   OH221601   1.190   4.176   5.673
 7222TIP3    H121602   1.264   4.219   5.627
 7222TIP3    H221603   1.118   4.238   5.655
 7223TIP3   OH221604   0.205   3.795   6.287
 7223TIP3    H121605   0.270   3.754   6.228
 7223TIP3    H221606   0.261   3.840   6.353
 7224TIP3   OH221607   0.310   3.625   4.730
 7224TIP3    H121608   0.250   3.589   4.796
 7224TIP3    H221609   0.316   3.554   4.664
 7225TIP3   OH221610   0.549   3.709   5.943
 7225TIP3    H121611   0.462   3.754   5.935
 7225TIP3    H221612   0.594   3.737   5.860
 7226TIP3   OH221613   0.372   3.418   4.548
 7226TIP3    H121614   0.352   3.431   4.453
 7226TIP3    H221615   0.471   3.421   4.548
 7227TIP3   OH221616   1.065   4.098   6.067
 7227TIP3    H121617   1.136   4.063   6.012
 7227TIP3    H221618   1.057   4.030   6.136
 7228TIP3   OH221619   1.213   3.755   4.191
 7228TIP3    H121620   1.155   3.696   4.139
 7228TIP3    H221621   1.168   3.840   4.174
 7229TIP3   OH221622   0.670   3.489   6.057
 7229TIP3    H121623   0.666   3.409   6.000
 7229TIP3    H221624   0.623   3.555   6.001
 7230TIP3   OH221625   0.670   3.271   5.867
 7230TIP3    H121626   0.696   3.315   5.783
 7230TIP3    H221627   0.576   3.249   5.850
 7231TIP3   OH221628   0.696   3.815   5.745
 7231TIP3    H121629   0.775   3.816   5.689
 7231TIP3    H221630   0.635   3.872   5.694
 7232TIP3   OH221631   1.276   3.772   6.119
 7232TIP3    H121632   1.321   3.687   6.131
 7232TIP3    H221633   1.346   3.825   6.078
 7233TIP3   OH221634   1.317   4.029   5.861
 7233TIP3    H121635   1.261   4.084   5.800
 7233TIP3    H221636   1.405   4.047   5.821
 7234TIP3   OH221637   0.548   3.602   6.293
 7234TIP3    H121638   0.486   3.526   6.300
 7234TIP3    H221639   0.580   3.590   6.201
 7235TIP3   OH221640   0.801   3.034   5.936
 7235TIP3    H121641   0.752   3.116   5.912
 7235TIP3    H221642   0.731   2.966   5.925
 7236TIP3   OH221643   0.927   3.537   6.151
 7236TIP3    H121644   0.910   3.521   6.245
 7236TIP3    H221645   0.838   3.514   6.114
 7237TIP3   OH221646   1.166   3.491   6.006
 7237TIP3    H121647   1.090   3.490   6.068
 7237TIP3    H221648   1.240   3.459   6.063
 7238TIP3   OH221649   1.393   3.430   6.156
 7238TIP3    H121650   1.408   3.334   6.171
 7238TIP3    H221651   1.391   3.465   6.247
 7239TIP3   OH221652   0.400   3.376   6.343
 7239TIP3    H121653   0.400   3.288   6.302
 7239TIP3    H221654   0.432   3.355   6.433
 7240TIP3   OH221655   0.893   3.044   6.194
 7240TIP3    H121656   0.961   2.973   6.188
 7240TIP3    H221657   0.854   3.039   6.105
 7241TIP3   OH221658   0.962   3.258   6.351
 7241TIP3    H121659   0.940   3.186   6.288
 7241TIP3    H221660   0.883   3.316   6.344
 7242TIP3   OH221661   0.188   4.488   4.454
 7242TIP3    H121662   0.282   4.482   4.429
 7242TIP3    H221663   0.153   4.538   4.379
 7243TIP3   OH221664   1.443   4.729   5.069
 7243TIP3    H121665   1.466   4.761   5.158
 7243TIP3    H221666   1.506   4.777   5.013
 7244TIP3   OH221667   1.468   4.752   5.351
 7244TIP3    H121668   1.424   4.664   5.349
 7244TIP3    H221669   1.543   4.731   5.409
 7245TIP3   OH221670   1.518   4.434   5.927
 7245TIP3    H121671   1.444   4.442   5.991
 7245TIP3    H221672   1.559   4.522   5.935
 7246TIP3   OH221673   1.335   3.942   4.544
 7246TIP3    H121674   1.412   3.993   4.517
 7246TIP3    H221675   1.370   3.897   4.625
 7247TIP3   OH221676   1.461   3.814   4.748
 7247TIP3    H121677   1.398   3.769   4.809
 7247TIP3    H221678   1.532   3.845   4.809
 7248TIP3   OH221679   1.515   4.202   5.177
 7248TIP3    H121680   1.571   4.134   5.133
 7248TIP3    H221681   1.509   4.271   5.108
 7249TIP3   OH221682   1.343   4.503   5.372
 7249TIP3    H121683   1.271   4.542   5.424
 7249TIP3    H221684   1.294   4.455   5.301
 7250TIP3   OH221685   1.394   3.717   4.390
 7250TIP3    H121686   1.328   3.719   4.316
 7250TIP3    H221687   1.359   3.790   4.444
 7251TIP3   OH221688   1.272   3.384   4.340
 7251TIP3    H121689   1.206   3.430   4.285
 7251TIP3    H221690   1.249   3.291   4.321
 7252TIP3   OH221691   1.274   3.668   4.890
 7252TIP3    H121692   1.280   3.571   4.882
 7252TIP3    H221693   1.258   3.680   4.987
 7253TIP3   OH221694   1.562   4.091   5.751
 7253TIP3    H121695   1.633   4.024   5.741
 7253TIP3    H221696   1.588   4.158   5.685
 7254TIP3   OH221697   1.745   3.893   5.763
 7254TIP3    H121698   1.669   3.843   5.801
 7254TIP3    H221699   1.818   3.829   5.779
 7255TIP3   OH221700   1.221   3.112   4.315
 7255TIP3    H121701   1.287   3.092   4.384
 7255TIP3    H221702   1.138   3.077   4.352
 7256TIP3   OH221703   1.273   3.387   4.785
 7256TIP3    H121704   1.314   3.298   4.801
 7256TIP3    H221705   1.329   3.419   4.712
 7257TIP3   OH221706   1.428   3.553   5.282
 7257TIP3    H121707   1.514   3.578   5.240
 7257TIP3    H221708   1.444   3.591   5.370
 7258TIP3   OH221709   1.502   3.701   5.513
 7258TIP3    H121710   1.424   3.735   5.560
 7258TIP3    H221711   1.534   3.781   5.466
 7259TIP3   OH221712   0.137   3.352   6.442
 7259TIP3    H121713   0.211   3.376   6.382
 7259TIP3    H221714   0.061   3.388   6.393
 7260TIP3   OH221715   1.949   3.294   6.068
 7260TIP3    H121716   2.010   3.228   6.027
 7260TIP3    H221717   1.921   3.346   5.990
 7261TIP3   OH221718   1.379   3.134   4.824
 7261TIP3    H121719   1.427   3.118   4.907
 7261TIP3    H221720   1.317   3.058   4.822
 7262TIP3   OH221721   0.090   3.119   5.643
 7262TIP3    H121722   0.154   3.045   5.651
 7262TIP3    H221723   0.152   3.194   5.630
 7263TIP3   OH221724   1.819   3.429   5.870
 7263TIP3    H121725   1.732   3.470   5.886
 7263TIP3    H221726   1.792   3.354   5.814
 7264TIP3   OH221727   1.456   3.064   4.462
 7264TIP3    H121728   1.499   2.997   4.405
 7264TIP3    H221729   1.521   3.138   4.459
 7265TIP3   OH221730  -0.124   2.898   5.207
 7265TIP3    H121731  -0.199   2.927   5.261
 7265TIP3    H221732  -0.119   2.970   5.140
 7266TIP3   OH221733   1.025   4.601   4.724
 7266TIP3    H121734   1.077   4.588   4.642
 7266TIP3    H221735   1.078   4.667   4.772
 7267TIP3   OH221736   0.079   2.982   6.043
 7267TIP3    H121737   0.039   2.986   6.131
 7267TIP3    H221738   0.018   3.037   5.992
 7268TIP3   OH221739   0.311   4.480   5.671
 7268TIP3    H121740   0.284   4.543   5.601
 7268TIP3    H221741   0.398   4.456   5.636
 7269TIP3   OH221742   0.746   4.681   5.797
 7269TIP3    H121743   0.792   4.677   5.883
 7269TIP3    H221744   0.812   4.730   5.743
 7270TIP3   OH221745   0.924   4.834   5.656
 7270TIP3    H121746   0.992   4.783   5.610
 7270TIP3    H221747   0.980   4.890   5.714
 7271TIP3   OH221748   1.721   3.192   5.754
 7271TIP3    H121749   1.631   3.181   5.718
 7271TIP3    H221750   1.756   3.100   5.743
 7272TIP3   OH221751   0.218   4.693   5.507
 7272TIP3    H121752   0.185   4.778   5.544
 7272TIP3    H221753   0.161   4.680   5.430
 7273TIP3   OH221754   0.642   4.698   5.340
 7273TIP3    H121755   0.590   4.716   5.260
 7273TIP3    H221756   0.656   4.788   5.377
 7274TIP3   OH221757   0.910   4.640   5.394
 7274TIP3    H121758   0.817   4.655   5.370
 7274TIP3    H221759   0.955   4.710   5.343
 7275TIP3   OH221760   1.112   4.829   5.301
 7275TIP3    H121761   1.100   4.913   5.253
 7275TIP3    H221762   1.141   4.769   5.229
 7276TIP3   OH221763   0.089   4.367   5.277
 7276TIP3    H121764   0.092   4.275   5.312
 7276TIP3    H221765   0.183   4.390   5.277
 7277TIP3   OH221766   0.369   4.460   5.285
 7277TIP3    H121767   0.390   4.365   5.269
 7277TIP3    H221768   0.417   4.470   5.370
 7278TIP3   OH221769   0.927   3.109   5.375
 7278TIP3    H121770   0.884   3.036   5.424
 7278TIP3    H221771   1.002   3.063   5.331
 7279TIP3   OH221772   1.444   2.985   5.274
 7279TIP3    H121773   1.483   3.039   5.201
 7279TIP3    H221774   1.351   3.013   5.271
 7280TIP3   OH221775   1.543   3.086   5.040
 7280TIP3    H121776   1.617   3.034   5.002
 7280TIP3    H221777   1.578   3.177   5.026
 7281TIP3   OH221778   0.169   2.814   5.387
 7281TIP3    H121779   0.078   2.780   5.389
 7281TIP3    H221780   0.219   2.729   5.384
 7282TIP3   OH221781  -0.013   2.685   5.047
 7282TIP3    H121782   0.002   2.741   4.969
 7282TIP3    H221783  -0.057   2.749   5.108
 7283TIP3   OH221784   0.622   2.846   5.270
 7283TIP3    H121785   0.675   2.899   5.208
 7283TIP3    H221786   0.645   2.887   5.355
 7284TIP3   OH221787   1.159   2.997   5.256
 7284TIP3    H121788   1.165   2.960   5.167
 7284TIP3    H221789   1.148   2.916   5.311
 7285TIP3   OH221790   1.193   2.922   4.814
 7285TIP3    H121791   1.111   2.971   4.833
 7285TIP3    H221792   1.177   2.838   4.862
 7286TIP3   OH221793   0.080   2.844   4.810
 7286TIP3    H121794   0.127   2.785   4.748
 7286TIP3    H221795   0.154   2.900   4.844
 7287TIP3   OH221796   0.591   3.021   4.899
 7287TIP3    H121797   0.654   2.981   4.962
 7287TIP3    H221798   0.606   3.116   4.920
 7288TIP3   OH221799   0.451   4.443   4.395
 7288TIP3    H121800   0.540   4.465   4.359
 7288TIP3    H221801   0.429   4.367   4.336
 7289TIP3   OH221802   1.174   4.566   4.492
 7289TIP3    H121803   1.166   4.468   4.482
 7289TIP3    H221804   1.124   4.597   4.413
 7290TIP3   OH221805   0.381   3.103   6.273
 7290TIP3    H121806   0.343   3.031   6.328
 7290TIP3    H221807   0.473   3.099   6.305
 7291TIP3   OH221808   0.629   3.097   6.400
 7291TIP3    H121809   0.714   3.072   6.360
 7291TIP3    H221810   0.616   3.024   6.464
 7292TIP3   OH221811   1.458   3.160   6.186
 7292TIP3    H121812   1.476   3.128   6.277
 7292TIP3    H221813   1.547   3.154   6.145
 7293TIP3   OH221814   1.393   4.710   5.678
 7293TIP3    H121815   1.315   4.681   5.627
 7293TIP3    H221816   1.375   4.806   5.684
 7294TIP3   OH221817   1.958   3.979   5.191
 7294TIP3    H121818   1.993   3.916   5.257
 7294TIP3    H221819   2.037   3.991   5.134
 7295TIP3   OH221820   1.931   4.375   4.912
 7295TIP3    H121821   1.921   4.282   4.885
 7295TIP3    H221822   2.011   4.370   4.966
 7296TIP3   OH221823   1.630   3.584   4.695
 7296TIP3    H121824   1.588   3.670   4.711
 7296TIP3    H221825   1.559   3.537   4.649
 7297TIP3   OH221826   1.709   3.880   4.871
 7297TIP3    H121827   1.752   3.800   4.908
 7297TIP3    H221828   1.782   3.916   4.817
 7298TIP3   OH221829   2.558   4.842   4.531
 7298TIP3    H121830   2.599   4.773   4.474
 7298TIP3    H221831   2.564   4.798   4.618
 7299TIP3   OH221832   3.474   3.620   4.879
 7299TIP3    H121833   3.506   3.703   4.920
 7299TIP3    H221834   3.441   3.651   4.792
 7300TIP3   OH221835   2.212   3.458   4.880
 7300TIP3    H121836   2.198   3.532   4.817
 7300TIP3    H221837   2.160   3.389   4.834
 7301TIP3   OH221838   2.911   3.542   4.481
 7301TIP3    H121839   2.974   3.541   4.557
 7301TIP3    H221840   2.961   3.599   4.420
 7302TIP3   OH221841   1.841   3.669   4.984
 7302TIP3    H121842   1.928   3.654   5.026
 7302TIP3    H221843   1.853   3.614   4.903
 7303TIP3   OH221844   3.541   3.836   5.037
 7303TIP3    H121845   3.455   3.881   5.025
 7303TIP3    H221846   3.567   3.868   5.124
 7304TIP3   OH221847   2.204   3.451   5.306
 7304TIP3    H121848   2.149   3.488   5.235
 7304TIP3    H221849   2.149   3.472   5.384
 7305TIP3   OH221850   2.571   4.320   4.286
 7305TIP3    H121851   2.516   4.287   4.214
 7305TIP3    H221852   2.512   4.389   4.324
 7306TIP3   OH221853   2.318   4.236   5.093
 7306TIP3    H121854   2.247   4.288   5.137
 7306TIP3    H221855   2.372   4.306   5.056
 7307TIP3   OH221856   3.107   3.566   4.675
 7307TIP3    H121857   3.087   3.533   4.764
 7307TIP3    H221858   3.164   3.643   4.695
 7308TIP3   OH221859   2.077   3.566   5.090
 7308TIP3    H121860   2.140   3.638   5.111
 7308TIP3    H221861   2.125   3.524   5.015
 7309TIP3   OH221862   2.137   4.426   5.189
 7309TIP3    H121863   2.116   4.519   5.165
 7309TIP3    H221864   2.061   4.407   5.248
 7310TIP3   OH221865   1.532   4.145   4.423
 7310TIP3    H121866   1.487   4.129   4.337
 7310TIP3    H221867   1.462   4.186   4.476
 7311TIP3   OH221868   3.263   3.525   5.042
 7311TIP3    H121869   3.173   3.542   5.006
 7311TIP3    H221870   3.321   3.556   4.970
 7312TIP3   OH221871   2.561   3.166   5.022
 7312TIP3    H121872   2.544   3.072   5.040
 7312TIP3    H221873   2.484   3.207   5.067
 7313TIP3   OH221874   2.667   4.680   4.335
 7313TIP3    H121875   2.722   4.600   4.320
 7313TIP3    H221876   2.729   4.748   4.301
 7314TIP3   OH221877   2.812   4.462   4.235
 7314TIP3    H121878   2.742   4.398   4.262
 7314TIP3    H221879   2.874   4.463   4.309
 7315TIP3   OH221880   3.200   4.562   5.029
 7315TIP3    H121881   3.210   4.488   4.964
 7315TIP3    H221882   3.179   4.636   4.967
 7316TIP3   OH221883   2.452   3.727   3.987
 7316TIP3    H121884   2.518   3.777   4.038
 7316TIP3    H221885   2.510   3.662   3.942
 7317TIP3   OH221886   3.388   4.171   4.860
 7317TIP3    H121887   3.322   4.244   4.850
 7317TIP3    H221888   3.413   4.154   4.768
 7318TIP3   OH221889   3.066   4.054   5.152
 7318TIP3    H121890   3.060   4.135   5.206
 7318TIP3    H221891   2.983   4.060   5.100
 7319TIP3   OH221892   2.200   3.985   5.030
 7319TIP3    H121893   2.188   3.976   4.934
 7319TIP3    H221894   2.251   4.068   5.036
 7320TIP3   OH221895   2.674   4.631   4.797
 7320TIP3    H121896   2.721   4.702   4.843
 7320TIP3    H221897   2.704   4.551   4.846
 7321TIP3   OH221898   2.345   4.538   5.345
 7321TIP3    H121899   2.285   4.602   5.389
 7321TIP3    H221900   2.280   4.486   5.294
 7322TIP3   OH221901   2.689   3.868   4.074
 7322TIP3    H121902   2.727   3.948   4.114
 7322TIP3    H221903   2.707   3.887   3.979
 7323TIP3   OH221904   2.107   4.098   5.456
 7323TIP3    H121905   2.104   4.187   5.496
 7323TIP3    H221906   2.012   4.079   5.445
 7324TIP3   OH221907   2.425   4.553   4.335
 7324TIP3    H121908   2.509   4.601   4.351
 7324TIP3    H221909   2.365   4.625   4.311
 7325TIP3   OH221910   2.140   4.704   5.430
 7325TIP3    H121911   2.104   4.711   5.339
 7325TIP3    H221912   2.059   4.685   5.483
 7326TIP3   OH221913   3.191   3.112   4.118
 7326TIP3    H121914   3.114   3.142   4.170
 7326TIP3    H221915   3.211   3.192   4.065
 7327TIP3   OH221916   1.934   3.806   4.400
 7327TIP3    H121917   1.856   3.864   4.388
 7327TIP3    H221918   1.942   3.800   4.497
 7328TIP3   OH221919   2.997   4.479   3.672
 7328TIP3    H121920   3.004   4.575   3.657
 7328TIP3    H221921   3.090   4.450   3.659
 7329TIP3   OH221922   1.718   4.243   5.375
 7329TIP3    H121923   1.652   4.219   5.308
 7329TIP3    H221924   1.757   4.157   5.401
 7330TIP3   OH221925   1.573   4.437   5.003
 7330TIP3    H121926   1.669   4.435   5.007
 7330TIP3    H221927   1.553   4.513   5.061
 7331TIP3   OH221928   3.429   4.890   5.056
 7331TIP3    H121929   3.437   4.795   5.073
 7331TIP3    H221930   3.348   4.911   5.109
 7332TIP3   OH221931   2.542   4.669   5.202
 7332TIP3    H121932   2.540   4.763   5.231
 7332TIP3    H221933   2.472   4.630   5.257
 7333TIP3   OH221934   2.296   4.792   4.153
 7333TIP3    H121935   2.263   4.782   4.062
 7333TIP3    H221936   2.271   4.884   4.176
 7334TIP3   OH221937   2.506   4.701   3.791
 7334TIP3    H121938   2.564   4.630   3.754
 7334TIP3    H221939   2.543   4.711   3.881
 7335TIP3   OH221940   2.554   4.751   4.062
 7335TIP3    H121941   2.467   4.754   4.107
 7335TIP3    H221942   2.610   4.714   4.133
 7336TIP3   OH221943   3.323   4.012   5.342
 7336TIP3    H121944   3.242   4.019   5.290
 7336TIP3    H221945   3.343   3.916   5.333
 7337TIP3   OH221946   1.923   4.425   5.357
 7337TIP3    H121947   1.972   4.410   5.441
 7337TIP3    H221948   1.849   4.361   5.366
 7338TIP3   OH221949   2.323   3.243   5.152
 7338TIP3    H121950   2.233   3.217   5.123
 7338TIP3    H221951   2.302   3.329   5.193
 7339TIP3   OH221952   2.859   3.365   5.342
 7339TIP3    H121953   2.928   3.336   5.405
 7339TIP3    H221954   2.776   3.343   5.389
 7340TIP3   OH221955   3.097   3.794   5.265
 7340TIP3    H121956   3.045   3.790   5.349
 7340TIP3    H221957   3.065   3.877   5.224
 7341TIP3   OH221958   2.749   3.918   3.815
 7341TIP3    H121959   2.720   3.893   3.725
 7341TIP3    H221960   2.835   3.960   3.795
 7342TIP3   OH221961   2.464   3.297   4.120
 7342TIP3    H121962   2.435   3.294   4.214
 7342TIP3    H221963   2.428   3.211   4.090
 7343TIP3   OH221964   2.254   3.759   5.169
 7343TIP3    H121965   2.204   3.783   5.249
 7343TIP3    H221966   2.243   3.840   5.114
 7344TIP3   OH221967   2.145   3.623   4.686
 7344TIP3    H121968   2.049   3.633   4.697
 7344TIP3    H221969   2.152   3.599   4.592
 7345TIP3   OH221970   2.627   3.714   4.377
 7345TIP3    H121971   2.593   3.778   4.314
 7345TIP3    H221972   2.698   3.671   4.325
 7346TIP3   OH221973   2.808   4.017   5.501
 7346TIP3    H121974   2.782   3.938   5.555
 7346TIP3    H221975   2.903   4.019   5.519
 7347TIP3   OH221976   2.070   3.795   5.379
 7347TIP3    H121977   2.114   3.852   5.443
 7347TIP3    H221978   2.062   3.710   5.428
 7348TIP3   OH221979   2.119   3.266   4.085
 7348TIP3    H121980   2.115   3.266   4.183
 7348TIP3    H221981   2.046   3.328   4.065
 7349TIP3   OH221982   1.671   3.308   4.960
 7349TIP3    H121983   1.741   3.347   5.016
 7349TIP3    H221984   1.717   3.292   4.877
 7350TIP3   OH221985   1.631   3.292   4.474
 7350TIP3    H121986   1.678   3.329   4.396
 7350TIP3    H221987   1.573   3.368   4.495
 7351TIP3   OH221988   2.469   3.458   4.739
 7351TIP3    H121989   2.388   3.468   4.792
 7351TIP3    H221990   2.539   3.472   4.805
 7352TIP3   OH221991   1.889   3.521   4.763
 7352TIP3    H121992   1.800   3.526   4.723
 7352TIP3    H221993   1.927   3.438   4.727
 7353TIP3   OH221994   2.165   3.511   4.435
 7353TIP3    H121995   2.258   3.539   4.421
 7353TIP3    H221996   2.118   3.543   4.355
 7354TIP3   OH221997   2.981   3.534   4.951
 7354TIP3    H121998   2.936   3.566   5.032
 7354TIP3    H221999   2.907   3.487   4.908
 7355TIP3   OH222000   2.018   3.542   4.207
 7355TIP3    H122001   1.941   3.510   4.157
 7355TIP3    H222002   2.067   3.590   4.138
 7356TIP3   OH222003   3.132   5.235   5.165
 7356TIP3    H122004   3.130   5.260   5.071
 7356TIP3    H222005   3.212   5.282   5.196
 7357TIP3   OH222006   2.080   4.349   5.582
 7357TIP3    H122007   2.159   4.383   5.628
 7357TIP3    H222008   2.016   4.347   5.656
 7358TIP3   OH222009   2.061   3.288   4.722
 7358TIP3    H122010   2.032   3.206   4.767
 7358TIP3    H222011   2.116   3.254   4.651
 7359TIP3   OH222012   2.521   3.672   5.156
 7359TIP3    H122013   2.435   3.717   5.142
 7359TIP3    H222014   2.580   3.744   5.185
 7360TIP3   OH222015   2.224   4.111   4.224
 7360TIP3    H122016   2.171   4.031   4.200
 7360TIP3    H222017   2.249   4.087   4.315
 7361TIP3   OH222018   3.192   4.372   4.840
 7361TIP3    H122019   3.190   4.421   4.753
 7361TIP3    H222020   3.098   4.359   4.856
 7362TIP3   OH222021   2.713   3.399   4.068
 7362TIP3    H122022   2.620   3.381   4.095
 7362TIP3    H222023   2.732   3.487   4.107
 7363TIP3   OH222024   2.652   4.404   5.218
 7363TIP3    H122025   2.683   4.385   5.307
 7363TIP3    H222026   2.623   4.497   5.224
 7364TIP3   OH222027   2.796   3.632   4.179
 7364TIP3    H122028   2.893   3.636   4.201
 7364TIP3    H222029   2.783   3.717   4.132
 7365TIP3   OH222030   2.401   4.233   4.049
 7365TIP3    H122031   2.353   4.319   4.051
 7365TIP3    H222032   2.344   4.180   4.109
 7366TIP3   OH222033   1.831   4.034   5.516
 7366TIP3    H122034   1.855   4.016   5.609
 7366TIP3    H222035   1.768   3.963   5.497
 7367TIP3   OH222036   2.563   4.143   5.538
 7367TIP3    H122037   2.504   4.091   5.480
 7367TIP3    H222038   2.650   4.108   5.509
 7368TIP3   OH222039   2.825   4.666   5.121
 7368TIP3    H122040   2.728   4.666   5.126
 7368TIP3    H222041   2.848   4.720   5.200
 7369TIP3   OH222042   3.230   3.741   4.019
 7369TIP3    H122043   3.163   3.698   3.961
 7369TIP3    H222044   3.228   3.831   3.980
 7370TIP3   OH222045   3.455   4.595   5.106
 7370TIP3    H122046   3.357   4.594   5.100
 7370TIP3    H222047   3.479   4.569   5.015
 7371TIP3   OH222048   2.932   4.560   3.938
 7371TIP3    H122049   2.896   4.496   4.002
 7371TIP3    H222050   2.942   4.507   3.857
 7372TIP3   OH222051   1.618   3.715   4.229
 7372TIP3    H122052   1.667   3.795   4.256
 7372TIP3    H222053   1.542   3.718   4.292
 7373TIP3   OH222054   2.327   4.751   4.989
 7373TIP3    H122055   2.368   4.825   4.939
 7373TIP3    H222056   2.406   4.716   5.035
 7374TIP3   OH222057   2.746   4.405   4.956
 7374TIP3    H122058   2.712   4.403   5.048
 7374TIP3    H222059   2.773   4.314   4.943
 7375TIP3   OH222060   2.688   4.287   3.836
 7375TIP3    H122061   2.744   4.255   3.911
 7375TIP3    H222062   2.601   4.257   3.866
 7376TIP3   OH222063   2.964   4.924   5.004
 7376TIP3    H122064   2.882   4.870   4.998
 7376TIP3    H222065   2.946   4.992   4.936
 7377TIP3   OH222066   3.025   4.755   3.653
 7377TIP3    H122067   3.059   4.826   3.596
 7377TIP3    H222068   2.947   4.800   3.690
 7378TIP3   OH222069   2.044   3.537   5.520
 7378TIP3    H122070   1.947   3.536   5.530
 7378TIP3    H222071   2.072   3.477   5.591
 7379TIP3   OH222072   2.851   4.195   4.039
 7379TIP3    H122073   2.840   4.191   4.135
 7379TIP3    H222074   2.948   4.202   4.031
 7380TIP3   OH222075   1.766   4.615   5.153
 7380TIP3    H122076   1.817   4.548   5.200
 7380TIP3    H222077   1.787   4.694   5.204
 7381TIP3   OH222078   2.048   4.265   3.839
 7381TIP3    H122079   2.064   4.173   3.809
 7381TIP3    H222080   2.030   4.251   3.934
 7382TIP3   OH222081   1.998   4.271   4.118
 7382TIP3    H122082   2.079   4.231   4.157
 7382TIP3    H222083   2.016   4.367   4.129
 7383TIP3   OH222084   1.720   3.964   4.310
 7383TIP3    H122085   1.663   4.018   4.368
 7383TIP3    H222086   1.747   4.031   4.243
 7384TIP3   OH222087   2.882   3.610   5.208
 7384TIP3    H122088   2.969   3.637   5.239
 7384TIP3    H222089   2.867   3.526   5.255
 7385TIP3   OH222090   2.767   3.341   4.370
 7385TIP3    H122091   2.757   3.374   4.279
 7385TIP3    H222092   2.814   3.417   4.412
 7386TIP3   OH222093   2.254   4.461   4.054
 7386TIP3    H122094   2.179   4.501   4.100
 7386TIP3    H222095   2.282   4.533   3.996
 7387TIP3   OH222096   2.446   3.528   4.470
 7387TIP3    H122097   2.515   3.596   4.452
 7387TIP3    H222098   2.452   3.521   4.568
 7388TIP3   OH222099   2.706   3.842   5.278
 7388TIP3    H122100   2.747   3.894   5.349
 7388TIP3    H222101   2.766   3.766   5.269
 7389TIP3   OH222102   2.594   3.249   4.572
 7389TIP3    H122103   2.583   3.325   4.632
 7389TIP3    H222104   2.657   3.286   4.506
 7390TIP3   OH222105   1.998   4.557   4.139
 7390TIP3    H122106   1.970   4.603   4.056
 7390TIP3    H222107   2.020   4.635   4.193
 7391TIP3   OH222108   2.111   3.251   4.360
 7391TIP3    H122109   2.107   3.343   4.394
 7391TIP3    H222110   2.207   3.235   4.372
 7392TIP3   OH222111   3.361   3.746   5.260
 7392TIP3    H122112   3.263   3.748   5.267
 7392TIP3    H222113   3.372   3.698   5.177
 7393TIP3   OH222114   1.736   4.177   4.115
 7393TIP3    H122115   1.821   4.226   4.117
 7393TIP3    H222116   1.763   4.109   4.050
 7394TIP3   OH222117   1.663   3.442   4.245
 7394TIP3    H122118   1.674   3.539   4.247
 7394TIP3    H222119   1.573   3.433   4.213
 7395TIP3   OH222120   2.980   4.923   4.616
 7395TIP3    H122121   2.935   4.954   4.535
 7395TIP3    H222122   3.071   4.912   4.580
 7396TIP3   OH222123   2.055   3.167   5.123
 7396TIP3    H122124   2.027   3.134   5.035
 7396TIP3    H222125   2.046   3.088   5.179
 7397TIP3   OH222126   1.759   4.936   5.574
 7397TIP3    H122127   1.843   4.941   5.625
 7397TIP3    H222128   1.741   4.841   5.576
 7398TIP3   OH222129   2.227   4.880   5.631
 7398TIP3    H122130   2.323   4.893   5.625
 7398TIP3    H222131   2.210   4.821   5.555
 7399TIP3   OH222132   2.216   4.466   3.746
 7399TIP3    H122133   2.163   4.394   3.787
 7399TIP3    H222134   2.291   4.416   3.710
 7400TIP3   OH222135   2.869   4.805   5.356
 7400TIP3    H122136   2.866   4.732   5.422
 7400TIP3    H222137   2.950   4.854   5.384
 7401TIP3   OH222138   2.650   4.506   3.660
 7401TIP3    H122139   2.692   4.441   3.720
 7401TIP3    H222140   2.708   4.503   3.581
 7402TIP3   OH222141   1.883   4.333   5.777
 7402TIP3    H122142   1.901   4.236   5.779
 7402TIP3    H222143   1.797   4.336   5.731
 7403TIP3   OH222144   1.861   3.982   3.976
 7403TIP3    H122145   1.918   3.945   4.047
 7403TIP3    H222146   1.927   3.986   3.904
 7404TIP3   OH222147   2.491   4.418   5.550
 7404TIP3    H122148   2.452   4.439   5.462
 7404TIP3    H222149   2.523   4.325   5.537
 7405TIP3   OH222150   2.374   4.181   3.778
 7405TIP3    H122151   2.377   4.192   3.876
 7405TIP3    H222152   2.375   4.083   3.772
 7406TIP3   OH222153   2.990   4.429   5.151
 7406TIP3    H122154   3.065   4.483   5.118
 7406TIP3    H222155   2.916   4.489   5.130
 7407TIP3   OH222156   2.002   4.073   5.761
 7407TIP3    H122157   2.077   4.023   5.727
 7407TIP3    H222158   2.034   4.101   5.849
 7408TIP3   OH222159   2.068   3.892   4.181
 7408TIP3    H122160   2.030   3.856   4.265
 7408TIP3    H222161   2.106   3.809   4.143
 7409TIP3   OH222162   2.333   3.947   5.424
 7409TIP3    H122163   2.258   4.011   5.427
 7409TIP3    H222164   2.386   3.985   5.349
 7410TIP3   OH222165   2.173   3.681   4.029
 7410TIP3    H122166   2.147   3.691   3.935
 7410TIP3    H222167   2.271   3.688   4.023
 7411TIP3   OH222168   2.860   4.354   5.555
 7411TIP3    H122169   2.934   4.326   5.500
 7411TIP3    H222170   2.853   4.282   5.619
 7412TIP3   OH222171   2.985   4.011   3.699
 7412TIP3    H122172   2.968   3.965   3.614
 7412TIP3    H222173   2.953   4.101   3.675
 7413TIP3   OH222174   2.462   3.741   5.547
 7413TIP3    H122175   2.464   3.661   5.491
 7413TIP3    H222176   2.420   3.806   5.487
 7414TIP3   OH222177   2.461   3.521   5.370
 7414TIP3    H122178   2.492   3.566   5.288
 7414TIP3    H222179   2.368   3.499   5.345
 7415TIP3   OH222180   2.485   4.070   5.243
 7415TIP3    H122181   2.560   4.038   5.191
 7415TIP3    H222182   2.437   4.127   5.179
 7416TIP3   OH222183   3.073   4.031   5.610
 7416TIP3    H122184   3.114   3.943   5.615
 7416TIP3    H222185   3.144   4.083   5.569
 7417TIP3   OH222186   3.112   4.286   5.345
 7417TIP3    H122187   3.058   4.340   5.283
 7417TIP3    H222188   3.201   4.302   5.307
 7418TIP3   OH222189   2.343   3.849   5.781
 7418TIP3    H122190   2.275   3.780   5.794
 7418TIP3    H222191   2.375   3.826   5.691
 7419TIP3   OH222192   2.599   3.288   5.424
 7419TIP3    H122193   2.549   3.370   5.403
 7419TIP3    H222194   2.530   3.220   5.411
 7420TIP3   OH222195   2.720   3.796   5.636
 7420TIP3    H122196   2.702   3.777   5.730
 7420TIP3    H222197   2.633   3.772   5.598
 7421TIP3   OH222198   2.966   3.757   5.497
 7421TIP3    H122199   2.888   3.748   5.555
 7421TIP3    H222200   3.037   3.719   5.552
 7422TIP3   OH222201   3.190   3.686   5.645
 7422TIP3    H122202   3.205   3.590   5.659
 7422TIP3    H222203   3.189   3.721   5.736
 7423TIP3   OH222204   2.179   3.630   5.834
 7423TIP3    H122205   2.184   3.539   5.797
 7423TIP3    H222206   2.218   3.615   5.922
 7424TIP3   OH222207   2.688   3.300   5.683
 7424TIP3    H122208   2.756   3.230   5.676
 7424TIP3    H222209   2.651   3.296   5.593
 7425TIP3   OH222210   2.758   3.515   5.838
 7425TIP3    H122211   2.736   3.443   5.775
 7425TIP3    H222212   2.679   3.573   5.830
 7426TIP3   OH222213   1.980   4.737   3.934
 7426TIP3    H122214   2.076   4.734   3.915
 7426TIP3    H222215   1.951   4.791   3.858
 7427TIP3   OH222216   1.462   4.126   4.156
 7427TIP3    H122217   1.556   4.145   4.135
 7427TIP3    H222218   1.451   4.038   4.111
 7428TIP3   OH222219   1.379   4.732   4.565
 7428TIP3    H122220   1.307   4.674   4.532
 7428TIP3    H222221   1.418   4.675   4.635
 7429TIP3   OH222222   1.512   4.588   4.755
 7429TIP3    H122223   1.496   4.517   4.819
 7429TIP3    H222224   1.568   4.646   4.809
 7430TIP3   OH222225   3.239   5.004   4.551
 7430TIP3    H122226   3.256   5.009   4.647
 7430TIP3    H222227   3.323   5.033   4.515
 7431TIP3   OH222228   3.268   5.007   4.834
 7431TIP3    H122229   3.220   4.921   4.833
 7431TIP3    H222230   3.342   4.981   4.893
 7432TIP3   OH222231   3.312   4.686   5.410
 7432TIP3    H122232   3.241   4.695   5.476
 7432TIP3    H222233   3.355   4.774   5.414
 7433TIP3   OH222234   3.129   4.201   4.037
 7433TIP3    H122235   3.192   4.266   3.998
 7433TIP3    H222236   3.174   4.178   4.119
 7434TIP3   OH222237   3.136   4.762   4.848
 7434TIP3    H122238   3.060   4.801   4.895
 7434TIP3    H222239   3.096   4.730   4.765
 7435TIP3   OH222240   3.190   3.981   3.877
 7435TIP3    H122241   3.118   3.977   3.810
 7435TIP3    H222242   3.159   4.057   3.931
 7436TIP3   OH222243   3.052   3.650   3.830
 7436TIP3    H122244   3.015   3.674   3.745
 7436TIP3    H222245   3.039   3.553   3.829
 7437TIP3   OH222246   1.695   4.000   5.124
 7437TIP3    H122247   1.696   3.961   5.034
 7437TIP3    H222248   1.792   4.000   5.144
 7438TIP3   OH222249   3.358   4.348   5.235
 7438TIP3    H122250   3.429   4.280   5.228
 7438TIP3    H222251   3.390   4.418   5.176
 7439TIP3   OH222252   3.538   4.150   5.253
 7439TIP3    H122253   3.464   4.097   5.291
 7439TIP3    H222254   3.612   4.086   5.266
 7440TIP3   OH222255   3.022   3.378   3.815
 7440TIP3    H122256   3.103   3.349   3.862
 7440TIP3    H222257   2.954   3.319   3.850
 7441TIP3   OH222258   3.061   3.630   4.252
 7441TIP3    H122259   3.103   3.544   4.272
 7441TIP3    H222260   3.133   3.673   4.202
 7442TIP3   OH222261   3.255   3.799   4.759
 7442TIP3    H122262   3.264   3.869   4.692
 7442TIP3    H222263   3.264   3.849   4.843
 7443TIP3   OH222264   3.291   3.956   4.996
 7443TIP3    H122265   3.215   3.989   5.048
 7443TIP3    H222266   3.326   4.039   4.956
 7444TIP3   OH222267   1.912   3.682   5.802
 7444TIP3    H122268   2.010   3.676   5.804
 7444TIP3    H222269   1.889   3.595   5.840
 7445TIP3   OH222270   3.745   3.550   5.555
 7445TIP3    H122271   3.806   3.485   5.514
 7445TIP3    H222272   3.717   3.603   5.477
 7446TIP3   OH222273   3.172   3.386   4.311
 7446TIP3    H122274   3.220   3.374   4.395
 7446TIP3    H222275   3.110   3.310   4.313
 7447TIP3   OH222276   1.872   3.378   5.140
 7447TIP3    H122277   1.935   3.303   5.143
 7447TIP3    H222278   1.933   3.452   5.124
 7448TIP3   OH222279   1.672   3.648   5.203
 7448TIP3    H122280   1.723   3.641   5.120
 7448TIP3    H222281   1.711   3.728   5.241
 7449TIP3   OH222282   3.616   3.685   5.357
 7449TIP3    H122283   3.528   3.727   5.371
 7449TIP3    H222284   3.588   3.609   5.301
 7450TIP3   OH222285   3.270   3.321   3.938
 7450TIP3    H122286   3.352   3.266   3.935
 7450TIP3    H222287   3.315   3.408   3.940
 7451TIP3   OH222288   1.659   3.142   4.698
 7451TIP3    H122289   1.568   3.147   4.732
 7451TIP3    H222290   1.656   3.206   4.624
 7452TIP3   OH222291   2.814   4.866   4.208
 7452TIP3    H122292   2.870   4.850   4.129
 7452TIP3    H222293   2.876   4.912   4.267
 7453TIP3   OH222294   1.881   3.233   5.520
 7453TIP3    H122295   1.828   3.228   5.601
 7453TIP3    H222296   1.816   3.270   5.458
 7454TIP3   OH222297   1.919   4.658   5.593
 7454TIP3    H122298   1.825   4.636   5.578
 7454TIP3    H222299   1.927   4.647   5.688
 7455TIP3   OH222300   2.102   4.695   5.142
 7455TIP3    H122301   2.053   4.771   5.104
 7455TIP3    H222302   2.188   4.711   5.097
 7456TIP3   OH222303   2.537   4.937   5.278
 7456TIP3    H122304   2.580   4.937   5.367
 7456TIP3    H222305   2.603   4.990   5.227
 7457TIP3   OH222306   2.716   5.094   5.142
 7457TIP3    H122307   2.783   5.042   5.095
 7457TIP3    H222308   2.772   5.147   5.202
 7458TIP3   OH222309   3.516   3.448   5.242
 7458TIP3    H122310   3.426   3.438   5.205
 7458TIP3    H222311   3.551   3.356   5.231
 7459TIP3   OH222312   1.773   4.947   5.170
 7459TIP3    H122313   1.683   4.979   5.149
 7459TIP3    H222314   1.791   4.998   5.251
 7460TIP3   OH222315   2.009   4.928   5.027
 7460TIP3    H122316   1.922   4.940   5.071
 7460TIP3    H222317   1.991   4.961   4.937
 7461TIP3   OH222318   2.435   4.954   4.827
 7461TIP3    H122319   2.371   4.978   4.758
 7461TIP3    H222320   2.451   5.040   4.870
 7462TIP3   OH222321   2.712   4.903   4.885
 7462TIP3    H122322   2.617   4.906   4.861
 7462TIP3    H222323   2.750   4.972   4.829
 7463TIP3   OH222324   2.916   5.104   4.802
 7463TIP3    H122325   2.897   5.184   4.748
 7463TIP3    H222326   2.942   5.039   4.731
 7464TIP3   OH222327   1.689   4.742   4.908
 7464TIP3    H122328   1.716   4.713   4.997
 7464TIP3    H222329   1.760   4.697   4.855
 7465TIP3   OH222330   1.879   4.608   4.767
 7465TIP3    H122331   1.897   4.524   4.814
 7465TIP3    H222332   1.968   4.647   4.761
 7466TIP3   OH222333   2.147   4.714   4.770
 7466TIP3    H122334   2.205   4.649   4.728
 7466TIP3    H222335   2.193   4.728   4.856
 7467TIP3   OH222336   2.725   3.364   4.860
 7467TIP3    H122337   2.682   3.293   4.910
 7467TIP3    H222338   2.801   3.320   4.819
 7468TIP3   OH222339   3.241   3.245   4.762
 7468TIP3    H122340   3.278   3.299   4.688
 7468TIP3    H222341   3.147   3.270   4.759
 7469TIP3   OH222342   3.340   3.351   4.529
 7469TIP3    H122343   3.411   3.296   4.490
 7469TIP3    H222344   3.382   3.439   4.523
 7470TIP3   OH222345   1.970   3.071   4.875
 7470TIP3    H122346   1.878   3.038   4.878
 7470TIP3    H222347   2.019   2.986   4.872
 7471TIP3   OH222348   1.756   2.943   4.523
 7471TIP3    H122349   1.788   3.002   4.452
 7471TIP3    H222350   1.728   3.008   4.590
 7472TIP3   OH222351   2.416   3.104   4.757
 7472TIP3    H122352   2.470   3.154   4.693
 7472TIP3    H222353   2.441   3.147   4.840
 7473TIP3   OH222354   2.956   3.253   4.743
 7473TIP3    H122355   2.960   3.218   4.652
 7473TIP3    H222356   2.945   3.171   4.796
 7474TIP3   OH222357   2.988   3.177   4.302
 7474TIP3    H122358   2.904   3.223   4.323
 7474TIP3    H222359   2.974   3.091   4.346
 7475TIP3   OH222360   1.513   4.513   4.317
 7475TIP3    H122361   1.433   4.467   4.289
 7475TIP3    H222362   1.484   4.603   4.296
 7476TIP3   OH222363   1.877   3.103   4.287
 7476TIP3    H122364   1.928   3.042   4.229
 7476TIP3    H222365   1.949   3.159   4.323
 7477TIP3   OH222366   2.389   3.277   4.385
 7477TIP3    H122367   2.452   3.237   4.447
 7477TIP3    H222368   2.400   3.371   4.410
 7478TIP3   OH222369   2.248   4.700   3.885
 7478TIP3    H122370   2.336   4.723   3.848
 7478TIP3    H222371   2.226   4.625   3.825
 7479TIP3   OH222372   2.967   4.825   3.980
 7479TIP3    H122373   2.960   4.727   3.969
 7479TIP3    H222374   2.921   4.855   3.900
 7480TIP3   OH222375   2.177   3.354   5.768
 7480TIP3    H122376   2.144   3.282   5.825
 7480TIP3    H222377   2.272   3.354   5.793
 7481TIP3   OH222378   2.428   3.353   5.885
 7481TIP3    H122379   2.512   3.328   5.844
 7481TIP3    H222380   2.417   3.281   5.951
 7482TIP3   OH222381   1.550   4.536   3.935
 7482TIP3    H122382   1.554   4.570   4.025
 7482TIP3    H222383   1.638   4.493   3.923
 7483TIP3   OH222384   3.254   3.416   5.673
 7483TIP3    H122385   3.273   3.385   5.764
 7483TIP3    H222386   3.343   3.411   5.631
 7484TIP3   OH222387   3.186   4.964   5.168
 7484TIP3    H122388   3.109   4.933   5.116
 7484TIP3    H222389   3.167   5.060   5.172
 7485TIP3   OH222390   4.452   4.354   3.926
 7485TIP3    H122391   4.412   4.439   3.897
 7485TIP3    H222392   4.385   4.291   3.895
 7486TIP3   OH222393   3.742   4.651   4.417
 7486TIP3    H122394   3.724   4.558   4.432
 7486TIP3    H222395   3.832   4.657   4.455
 7487TIP3   OH222396   4.353   5.103   4.016
 7487TIP3    H122397   4.396   5.034   3.961
 7487TIP3    H222398   4.346   5.057   4.101
 7488TIP3   OH222399   4.251   4.562   4.320
 7488TIP3    H122400   4.277   4.471   4.339
 7488TIP3    H222401   4.315   4.610   4.374
 7489TIP3   OH222402   5.273   3.881   4.356
 7489TIP3    H122403   5.300   3.967   4.394
 7489TIP3    H222404   5.302   3.890   4.263
 7490TIP3   OH222405   4.002   3.731   4.349
 7490TIP3    H122406   3.953   3.814   4.338
 7490TIP3    H222407   3.943   3.666   4.307
 7491TIP3   OH222408   5.350   4.094   4.525
 7491TIP3    H122409   5.263   4.136   4.506
 7491TIP3    H222410   5.356   4.112   4.620
 7492TIP3   OH222411   4.019   3.671   4.819
 7492TIP3    H122412   3.941   3.660   4.763
 7492TIP3    H222413   3.975   3.699   4.902
 7493TIP3   OH222414   4.347   4.567   3.793
 7493TIP3    H122415   4.302   4.542   3.711
 7493TIP3    H222416   4.297   4.648   3.818
 7494TIP3   OH222417   3.321   4.372   3.925
 7494TIP3    H122418   3.288   4.395   3.836
 7494TIP3    H222419   3.359   4.458   3.955
 7495TIP3   OH222420   4.785   4.893   4.169
 7495TIP3    H122421   4.695   4.870   4.201
 7495TIP3    H222422   4.765   4.975   4.120
 7496TIP3   OH222423   5.079   3.787   4.534
 7496TIP3    H122424   4.993   3.823   4.508
 7496TIP3    H222425   5.135   3.812   4.457
 7497TIP3   OH222426   4.359   3.409   4.522
 7497TIP3    H122427   4.335   3.316   4.533
 7497TIP3    H222428   4.280   3.453   4.560
 7498TIP3   OH222429   4.468   4.934   3.831
 7498TIP3    H122430   4.516   4.850   3.811
 7498TIP3    H222431   4.530   4.998   3.791
 7499TIP3   OH222432   4.610   4.718   3.739
 7499TIP3    H122433   4.570   4.648   3.684
 7499TIP3    H222434   4.655   4.665   3.805
 7500TIP3   OH222435   5.000   4.794   4.502
 7500TIP3    H122436   4.982   4.717   4.444
 7500TIP3    H222437   4.977   4.870   4.443
 7501TIP3   OH222438   4.288   4.196   3.775
 7501TIP3    H122439   4.210   4.240   3.738
 7501TIP3    H222440   4.339   4.172   3.695
 7502TIP3   OH222441   4.247   3.981   3.473
 7502TIP3    H122442   4.315   4.028   3.526
 7502TIP3    H222443   4.303   3.915   3.427
 7503TIP3   OH222444   5.198   4.433   4.358
 7503TIP3    H122445   5.116   4.486   4.349
 7503TIP3    H222446   5.212   4.400   4.268
 7504TIP3   OH222447   4.639   4.272   3.747
 7504TIP3    H122448   4.577   4.301   3.819
 7504TIP3    H222449   4.696   4.213   3.798
 7505TIP3   OH222450   4.879   4.310   4.649
 7505TIP3    H122451   4.865   4.396   4.693
 7505TIP3    H222452   4.791   4.299   4.604
 7506TIP3   OH222453   4.012   4.718   4.276
 7506TIP3    H122454   3.986   4.651   4.211
 7506TIP3    H222455   4.086   4.672   4.321
 7507TIP3   OH222456   4.538   4.876   4.280
 7507TIP3    H122457   4.523   4.952   4.338
 7507TIP3    H222458   4.516   4.800   4.338
 7508TIP3   OH222459   4.138   4.788   4.817
 7508TIP3    H122460   4.068   4.842   4.859
 7508TIP3    H222461   4.086   4.728   4.759
 7509TIP3   OH222462   4.474   4.132   3.567
 7509TIP3    H122463   4.536   4.189   3.617
 7509TIP3    H222464   4.500   4.153   3.474
 7510TIP3   OH222465   3.903   4.344   4.946
 7510TIP3    H122466   3.904   4.439   4.972
 7510TIP3    H222467   3.807   4.327   4.946
 7511TIP3   OH222468   4.219   4.809   3.831
 7511TIP3    H122469   4.299   4.862   3.847
 7511TIP3    H222470   4.159   4.872   3.790
 7512TIP3   OH222471   3.938   4.963   4.923
 7512TIP3    H122472   3.906   4.965   4.830
 7512TIP3    H222473   3.855   4.944   4.972
 7513TIP3   OH222474   4.992   3.368   3.610
 7513TIP3    H122475   4.911   3.391   3.661
 7513TIP3    H222476   5.004   3.450   3.558
 7514TIP3   OH222477   3.751   4.106   3.913
 7514TIP3    H122478   3.662   4.136   3.884
 7514TIP3    H222479   3.730   4.042   3.983
 7515TIP3   OH222480   4.795   4.737   3.161
 7515TIP3    H122481   4.803   4.833   3.142
 7515TIP3    H222482   4.887   4.706   3.147
 7516TIP3   OH222483   3.518   4.496   4.859
 7516TIP3    H122484   3.471   4.461   4.782
 7516TIP3    H222485   3.559   4.414   4.897
 7517TIP3   OH222486   3.392   4.732   4.459
 7517TIP3    H122487   3.461   4.671   4.487
 7517TIP3    H222488   3.320   4.711   4.521
 7518TIP3   OH222489   5.234   5.145   4.553
 7518TIP3    H122490   5.233   5.049   4.568
 7518TIP3    H222491   5.150   5.170   4.598
 7519TIP3   OH222492   4.333   4.927   4.682
 7519TIP3    H122493   4.330   5.019   4.717
 7519TIP3    H222494   4.261   4.885   4.735
 7520TIP3   OH222495   4.102   5.054   3.638
 7520TIP3    H122496   4.055   5.034   3.555
 7520TIP3    H222497   4.067   5.143   3.661
 7521TIP3   OH222498   3.541   4.907   4.026
 7521TIP3    H122499   3.587   4.889   4.112
 7521TIP3    H222500   3.489   4.825   4.016
 7522TIP3   OH222501   4.302   4.958   3.276
 7522TIP3    H122502   4.360   4.887   3.240
 7522TIP3    H222503   4.337   4.967   3.368
 7523TIP3   OH222504   4.353   5.007   3.546
 7523TIP3    H122505   4.265   5.015   3.588
 7523TIP3    H222506   4.403   4.963   3.618
 7524TIP3   OH222507   5.123   4.274   4.826
 7524TIP3    H122508   5.040   4.285   4.776
 7524TIP3    H222509   5.139   4.179   4.816
 7525TIP3   OH222510   3.694   4.714   4.875
 7525TIP3    H122511   3.773   4.678   4.919
 7525TIP3    H222512   3.641   4.633   4.860
 7526TIP3   OH222513   4.126   3.494   4.633
 7526TIP3    H122514   4.034   3.468   4.606
 7526TIP3    H222515   4.107   3.576   4.681
 7527TIP3   OH222516   4.654   3.622   4.824
 7527TIP3    H122517   4.721   3.593   4.890
 7527TIP3    H222518   4.570   3.600   4.870
 7528TIP3   OH222519   4.898   4.048   4.753
 7528TIP3    H122520   4.844   4.042   4.836
 7528TIP3    H222521   4.868   4.132   4.715
 7529TIP3   OH222522   4.549   4.176   3.307
 7529TIP3    H122523   4.516   4.151   3.219
 7529TIP3    H222524   4.636   4.214   3.283
 7530TIP3   OH222525   4.262   3.551   3.603
 7530TIP3    H122526   4.230   3.548   3.696
 7530TIP3    H222527   4.221   3.468   3.571
 7531TIP3   OH222528   4.599   4.268   4.984
 7531TIP3    H122529   4.575   4.194   5.044
 7531TIP3    H222530   4.694   4.277   5.005
 7532TIP3   OH222531   3.919   3.524   3.571
 7532TIP3    H122532   3.912   3.512   3.669
 7532TIP3    H222533   3.840   3.578   3.554
 7533TIP3   OH222534   3.487   3.573   4.462
 7533TIP3    H122535   3.577   3.605   4.449
 7533TIP3    H222536   3.468   3.540   4.371
 7534TIP3   OH222537   3.422   3.548   3.952
 7534TIP3    H122538   3.477   3.590   3.882
 7534TIP3    H222539   3.370   3.624   3.985
 7535TIP3   OH222540   4.627   4.252   4.546
 7535TIP3    H122541   4.568   4.225   4.474
 7535TIP3    H222542   4.579   4.214   4.623
 7536TIP3   OH222543   4.239   3.699   4.224
 7536TIP3    H122544   4.146   3.701   4.255
 7536TIP3    H222545   4.278   3.741   4.302
 7537TIP3   OH222546   3.661   3.747   4.234
 7537TIP3    H122547   3.594   3.696   4.187
 7537TIP3    H222548   3.741   3.694   4.214
 7538TIP3   OH222549   3.962   3.762   3.921
 7538TIP3    H122550   4.047   3.807   3.914
 7538TIP3    H222551   3.908   3.802   3.849
 7539TIP3   OH222552   3.801   3.824   3.702
 7539TIP3    H122553   3.733   3.773   3.654
 7539TIP3    H222554   3.857   3.854   3.628
 7540TIP3   OH222555   4.928   5.492   4.653
 7540TIP3    H122556   4.926   5.516   4.559
 7540TIP3    H222557   5.008   5.539   4.684
 7541TIP3   OH222558   3.883   4.603   5.066
 7541TIP3    H122559   3.962   4.631   5.116
 7541TIP3    H222560   3.816   4.601   5.137
 7542TIP3   OH222561   3.857   3.550   4.206
 7542TIP3    H122562   3.826   3.469   4.254
 7542TIP3    H222563   3.891   3.512   4.123
 7543TIP3   OH222564   4.304   3.952   4.649
 7543TIP3    H122565   4.270   3.997   4.569
 7543TIP3    H222566   4.379   4.010   4.673
 7544TIP3   OH222567   4.053   4.347   3.706
 7544TIP3    H122568   3.984   4.277   3.695
 7544TIP3    H222569   4.038   4.374   3.800
 7545TIP3   OH222570   4.961   4.571   4.326
 7545TIP3    H122571   4.974   4.628   4.247
 7545TIP3    H222572   4.868   4.541   4.317
 7546TIP3   OH222573   4.516   3.641   3.579
 7546TIP3    H122574   4.418   3.631   3.584
 7546TIP3    H222575   4.530   3.736   3.600
 7547TIP3   OH222576   4.486   4.684   4.707
 7547TIP3    H122577   4.468   4.630   4.785
 7547TIP3    H222578   4.415   4.751   4.712
 7548TIP3   OH222579   4.586   3.887   3.673
 7548TIP3    H122580   4.683   3.897   3.690
 7548TIP3    H222581   4.563   3.975   3.639
 7549TIP3   OH222582   4.204   4.493   3.534
 7549TIP3    H122583   4.154   4.578   3.539
 7549TIP3    H222584   4.149   4.436   3.592
 7550TIP3   OH222585   3.628   4.290   5.002
 7550TIP3    H122586   3.656   4.277   5.095
 7550TIP3    H222587   3.567   4.216   4.989
 7551TIP3   OH222588   4.351   4.398   5.022
 7551TIP3    H122589   4.284   4.340   4.978
 7551TIP3    H222590   4.435   4.358   4.989
 7552TIP3   OH222591   4.619   4.942   4.596
 7552TIP3    H122592   4.527   4.918   4.613
 7552TIP3    H222593   4.643   4.983   4.682
 7553TIP3   OH222594   5.007   3.978   3.523
 7553TIP3    H122595   4.950   3.949   3.448
 7553TIP3    H222596   5.044   4.060   3.486
 7554TIP3   OH222597   5.248   4.855   4.592
 7554TIP3    H122598   5.150   4.847   4.584
 7554TIP3    H222599   5.275   4.826   4.502
 7555TIP3   OH222600   4.728   4.813   3.423
 7555TIP3    H122601   4.705   4.739   3.481
 7555TIP3    H222602   4.744   4.769   3.337
 7556TIP3   OH222603   4.718   4.443   4.265
 7556TIP3    H122604   4.628   4.436   4.299
 7556TIP3    H222605   4.714   4.378   4.194
 7557TIP3   OH222606   3.847   4.659   4.001
 7557TIP3    H122607   3.850   4.743   3.951
 7557TIP3    H222608   3.753   4.651   4.020
 7558TIP3   OH222609   3.412   3.973   3.715
 7558TIP3    H122610   3.462   4.054   3.738
 7558TIP3    H222611   3.337   3.979   3.778
 7559TIP3   OH222612   3.993   4.427   3.959
 7559TIP3    H122613   3.956   4.517   3.973
 7559TIP3    H222614   3.949   4.375   4.027
 7560TIP3   OH222615   4.120   5.014   4.474
 7560TIP3    H122616   4.172   5.084   4.429
 7560TIP3    H222617   4.190   4.968   4.524
 7561TIP3   OH222618   3.767   4.913   3.862
 7561TIP3    H122619   3.683   4.919   3.911
 7561TIP3    H222620   3.799   5.006   3.868
 7562TIP3   OH222621   4.516   4.643   4.440
 7562TIP3    H122622   4.498   4.651   4.537
 7562TIP3    H222623   4.600   4.595   4.442
 7563TIP3   OH222624   4.487   4.545   3.327
 7563TIP3    H122625   4.539   4.518   3.406
 7563TIP3    H222626   4.400   4.510   3.351
 7564TIP3   OH222627   4.760   5.178   4.492
 7564TIP3    H122628   4.685   5.116   4.495
 7564TIP3    H222629   4.735   5.238   4.419
 7565TIP3   OH222630   4.823   5.013   3.141
 7565TIP3    H122631   4.860   5.087   3.090
 7565TIP3    H222632   4.742   5.057   3.176
 7566TIP3   OH222633   3.862   3.750   5.029
 7566TIP3    H122634   3.771   3.780   5.038
 7566TIP3    H222635   3.876   3.697   5.109
 7567TIP3   OH222636   4.644   4.478   3.548
 7567TIP3    H122637   4.635   4.408   3.615
 7567TIP3    H222638   4.740   4.469   3.527
 7568TIP3   OH222639   3.583   4.911   4.645
 7568TIP3    H122640   3.615   4.821   4.636
 7568TIP3    H222641   3.614   4.932   4.732
 7569TIP3   OH222642   3.847   4.521   3.324
 7569TIP3    H122643   3.861   4.428   3.297
 7569TIP3    H222644   3.827   4.509   3.419
 7570TIP3   OH222645   3.790   4.525   3.596
 7570TIP3    H122646   3.866   4.492   3.647
 7570TIP3    H222647   3.799   4.623   3.607
 7571TIP3   OH222648   3.518   4.215   3.800
 7571TIP3    H122649   3.455   4.264   3.857
 7571TIP3    H222650   3.540   4.284   3.734
 7572TIP3   OH222651   4.666   3.877   4.709
 7572TIP3    H122652   4.760   3.893   4.727
 7572TIP3    H222653   4.655   3.785   4.740
 7573TIP3   OH222654   4.559   3.633   3.858
 7573TIP3    H122655   4.533   3.621   3.764
 7573TIP3    H222656   4.616   3.711   3.848
 7574TIP3   OH222657   4.061   4.722   3.543
 7574TIP3    H122658   3.974   4.748   3.580
 7574TIP3    H222659   4.075   4.794   3.480
 7575TIP3   OH222660   4.245   3.795   3.962
 7575TIP3    H122661   4.338   3.815   3.945
 7575TIP3    H222662   4.241   3.775   4.058
 7576TIP3   OH222663   4.517   4.109   4.755
 7576TIP3    H122664   4.543   4.153   4.839
 7576TIP3    H222665   4.570   4.026   4.757
 7577TIP3   OH222666   4.392   3.508   4.056
 7577TIP3    H122667   4.366   3.579   4.117
 7577TIP3    H222668   4.455   3.553   3.996
 7578TIP3   OH222669   3.807   4.799   3.613
 7578TIP3    H122670   3.777   4.870   3.551
 7578TIP3    H222671   3.790   4.842   3.700
 7579TIP3   OH222672   3.920   3.506   3.843
 7579TIP3    H122673   3.916   3.597   3.878
 7579TIP3    H222674   4.016   3.488   3.854
 7580TIP3   OH222675   5.163   4.004   4.744
 7580TIP3    H122676   5.065   4.008   4.758
 7580TIP3    H222677   5.165   3.956   4.660
 7581TIP3   OH222678   3.524   4.425   3.602
 7581TIP3    H122679   3.599   4.487   3.611
 7581TIP3    H222680   3.566   4.363   3.537
 7582TIP3   OH222681   3.471   3.703   3.725
 7582TIP3    H122682   3.471   3.800   3.726
 7582TIP3    H222683   3.379   3.682   3.707
 7583TIP3   OH222684   4.779   5.161   4.081
 7583TIP3    H122685   4.735   5.208   4.007
 7583TIP3    H222686   4.873   5.176   4.060
 7584TIP3   OH222687   3.864   3.425   4.611
 7584TIP3    H122688   3.822   3.401   4.525
 7584TIP3    H222689   3.840   3.348   4.666
 7585TIP3   OH222690   3.392   4.645   3.988
 7585TIP3    H122691   3.330   4.673   4.056
 7585TIP3    H222692   3.353   4.688   3.907
 7586TIP3   OH222693   3.552   5.188   5.060
 7586TIP3    H122694   3.639   5.185   5.106
 7586TIP3    H222695   3.531   5.092   5.059
 7587TIP3   OH222696   4.031   5.146   5.106
 7587TIP3    H122697   4.124   5.123   5.111
 7587TIP3    H222698   4.001   5.083   5.036
 7588TIP3   OH222699   4.012   4.722   3.234
 7588TIP3    H122700   3.956   4.650   3.273
 7588TIP3    H222701   4.087   4.671   3.201
 7589TIP3   OH222702   4.669   5.057   4.842
 7589TIP3    H122703   4.662   4.986   4.910
 7589TIP3    H222704   4.747   5.107   4.873
 7590TIP3   OH222705   4.447   4.761   3.149
 7590TIP3    H122706   4.486   4.695   3.209
 7590TIP3    H222707   4.506   4.756   3.071
 7591TIP3   OH222708   3.683   4.593   5.262
 7591TIP3    H122709   3.701   4.497   5.266
 7591TIP3    H222710   3.596   4.594   5.215
 7592TIP3   OH222711   3.659   4.236   3.460
 7592TIP3    H122712   3.716   4.203   3.532
 7592TIP3    H222713   3.726   4.242   3.388
 7593TIP3   OH222714   4.282   4.678   5.032
 7593TIP3    H122715   4.238   4.694   4.947
 7593TIP3    H222716   4.311   4.584   5.024
 7594TIP3   OH222717   4.173   4.439   3.265
 7594TIP3    H122718   4.174   4.450   3.362
 7594TIP3    H222719   4.174   4.341   3.259
 7595TIP3   OH222720   4.783   4.678   4.641
 7595TIP3    H122721   4.845   4.740   4.602
 7595TIP3    H222722   4.700   4.729   4.642
 7596TIP3   OH222723   3.793   4.331   5.244
 7596TIP3    H122724   3.869   4.287   5.204
 7596TIP3    H222725   3.828   4.357   5.332
 7597TIP3   OH222726   3.862   4.151   3.668
 7597TIP3    H122727   3.831   4.122   3.757
 7597TIP3    H222728   3.898   4.067   3.632
 7598TIP3   OH222729   4.150   4.239   4.883
 7598TIP3    H122730   4.060   4.269   4.908
 7598TIP3    H222731   4.157   4.280   4.794
 7599TIP3   OH222732   3.969   3.938   3.517
 7599TIP3    H122733   3.944   3.946   3.422
 7599TIP3    H222734   4.067   3.944   3.510
 7600TIP3   OH222735   4.657   4.614   5.045
 7600TIP3    H122736   4.724   4.575   4.987
 7600TIP3    H222737   4.646   4.545   5.112
 7601TIP3   OH222738   4.780   4.269   3.185
 7601TIP3    H122739   4.763   4.223   3.100
 7601TIP3    H222740   4.748   4.359   3.160
 7602TIP3   OH222741   4.257   4.011   5.027
 7602TIP3    H122742   4.259   3.927   4.977
 7602TIP3    H222743   4.221   4.073   4.960
 7603TIP3   OH222744   4.266   3.782   4.860
 7603TIP3    H122745   4.283   3.835   4.779
 7603TIP3    H222746   4.176   3.748   4.841
 7604TIP3   OH222747   4.869   4.287   5.094
 7604TIP3    H122748   4.910   4.199   5.097
 7604TIP3    H222749   4.938   4.341   5.052
 7605TIP3   OH222750   4.911   4.543   4.836
 7605TIP3    H122751   4.853   4.594   4.774
 7605TIP3    H222752   4.998   4.561   4.795
 7606TIP3   OH222753   4.142   4.103   5.267
 7606TIP3    H122754   4.070   4.037   5.280
 7606TIP3    H222755   4.171   4.081   5.176
 7607TIP3   OH222756   4.398   3.543   4.911
 7607TIP3    H122757   4.349   3.626   4.891
 7607TIP3    H222758   4.328   3.476   4.896
 7608TIP3   OH222759   4.518   4.048   5.122
 7608TIP3    H122760   4.498   4.033   5.217
 7608TIP3    H222761   4.429   4.029   5.085
 7609TIP3   OH222762   4.765   4.011   4.985
 7609TIP3    H122763   4.684   4.003   5.039
 7609TIP3    H222764   4.833   3.971   5.042
 7610TIP3   OH222765   5.000   3.945   5.132
 7610TIP3    H122766   5.006   3.848   5.146
 7610TIP3    H222767   4.988   3.980   5.223
 7611TIP3   OH222768   3.973   3.888   5.322
 7611TIP3    H122769   3.980   3.800   5.281
 7611TIP3    H222770   4.012   3.871   5.410
 7612TIP3   OH222771   4.487   3.556   5.169
 7612TIP3    H122772   4.552   3.484   5.162
 7612TIP3    H222773   4.447   3.553   5.080
 7613TIP3   OH222774   4.554   3.772   5.325
 7613TIP3    H122775   4.532   3.700   5.261
 7613TIP3    H222776   4.476   3.830   5.317
 7614TIP3   OH222777   3.778   5.006   3.428
 7614TIP3    H122778   3.872   4.994   3.406
 7614TIP3    H222779   3.749   5.054   3.347
 7615TIP3   OH222780   3.256   4.382   3.643
 7615TIP3    H122781   3.351   4.404   3.626
 7615TIP3    H222782   3.250   4.294   3.600
 7616TIP3   OH222783   3.168   4.999   4.054
 7616TIP3    H122784   3.103   4.935   4.016
 7616TIP3    H222785   3.214   4.940   4.117
 7617TIP3   OH222786   3.298   4.848   4.233
 7617TIP3    H122787   3.282   4.763   4.278
 7617TIP3    H222788   3.341   4.890   4.309
 7618TIP3   OH222789   5.040   5.234   4.044
 7618TIP3    H122790   5.059   5.271   4.133
 7618TIP3    H222791   5.095   5.290   3.987
 7619TIP3   OH222792   5.063   5.266   4.324
 7619TIP3    H122793   5.016   5.180   4.323
 7619TIP3    H222794   5.136   5.243   4.384
 7620TIP3   OH222795   5.109   4.943   4.897
 7620TIP3    H122796   5.036   4.951   4.962
 7620TIP3    H222797   5.150   5.031   4.902
 7621TIP3   OH222798   4.920   4.456   3.519
 7621TIP3    H122799   4.986   4.518   3.480
 7621TIP3    H222800   4.951   4.451   3.610
 7622TIP3   OH222801   5.114   4.705   4.127
 7622TIP3    H122802   5.173   4.675   4.057
 7622TIP3    H222803   5.097   4.797   4.099
 7623TIP3   OH222804   4.940   5.020   4.352
 7623TIP3    H122805   4.869   5.062   4.405
 7623TIP3    H222806   4.887   4.974   4.282
 7624TIP3   OH222807   4.988   4.234   3.362
 7624TIP3    H122808   4.915   4.231   3.297
 7624TIP3    H222809   4.958   4.307   3.420
 7625TIP3   OH222810   4.851   3.903   3.308
 7625TIP3    H122811   4.811   3.934   3.226
 7625TIP3    H222812   4.832   3.807   3.303
 7626TIP3   OH222813   5.155   4.605   4.725
 7626TIP3    H122814   5.225   4.537   4.712
 7626TIP3    H222815   5.179   4.673   4.660
 7627TIP3   OH222816   5.339   4.407   4.730
 7627TIP3    H122817   5.263   4.359   4.769
 7627TIP3    H222818   5.411   4.342   4.750
 7628TIP3   OH222819   4.800   3.633   3.293
 7628TIP3    H122820   4.873   3.607   3.353
 7628TIP3    H222821   4.726   3.578   3.323
 7629TIP3   OH222822   4.852   3.886   3.731
 7629TIP3    H122823   4.902   3.807   3.758
 7629TIP3    H222824   4.917   3.928   3.671
 7630TIP3   OH222825   5.104   4.215   4.501
 7630TIP3    H122826   5.022   4.245   4.545
 7630TIP3    H222827   5.132   4.296   4.454
 7631TIP3   OH222828   3.706   3.937   5.284
 7631TIP3    H122829   3.804   3.934   5.288
 7631TIP3    H222830   3.684   3.851   5.324
 7632TIP3   OH222831   5.549   3.812   5.041
 7632TIP3    H122832   5.605   3.744   4.997
 7632TIP3    H222833   5.514   3.862   4.964
 7633TIP3   OH222834   4.974   3.643   3.797
 7633TIP3    H122835   5.020   3.627   3.881
 7633TIP3    H222836   4.911   3.569   3.796
 7634TIP3   OH222837   5.414   3.942   4.845
 7634TIP3    H122838   5.328   3.985   4.865
 7634TIP3    H222839   5.381   3.869   4.789
 7635TIP3   OH222840   5.035   3.572   3.427
 7635TIP3    H122841   5.082   3.504   3.374
 7635TIP3    H222842   5.104   3.638   3.444
 7636TIP3   OH222843   3.447   3.460   4.220
 7636TIP3    H122844   3.361   3.414   4.220
 7636TIP3    H222845   3.475   3.447   4.128
 7637TIP3   OH222846   4.616   5.116   3.698
 7637TIP3    H122847   4.666   5.102   3.614
 7637TIP3    H222848   4.672   5.181   3.743
 7638TIP3   OH222849   3.679   3.482   5.009
 7638TIP3    H122850   3.626   3.481   5.090
 7638TIP3    H222851   3.615   3.522   4.946
 7639TIP3   OH222852   3.715   4.934   5.089
 7639TIP3    H122853   3.640   4.885   5.051
 7639TIP3    H222854   3.722   4.895   5.177
 7640TIP3   OH222855   3.892   4.968   4.653
 7640TIP3    H122856   3.857   5.038   4.596
 7640TIP3    H222857   3.970   4.941   4.602
 7641TIP3   OH222858   4.336   5.195   4.769
 7641TIP3    H122859   4.379   5.192   4.857
 7641TIP3    H222860   4.403   5.245   4.717
 7642TIP3   OH222861   4.515   5.349   4.628
 7642TIP3    H122862   4.583   5.293   4.587
 7642TIP3    H222863   4.570   5.404   4.688
 7643TIP3   OH222864   5.314   3.705   4.726
 7643TIP3    H122865   5.223   3.699   4.691
 7643TIP3    H222866   5.345   3.612   4.716
 7644TIP3   OH222867   3.569   5.229   4.634
 7644TIP3    H122868   3.475   5.258   4.639
 7644TIP3    H222869   3.592   5.225   4.728
 7645TIP3   OH222870   3.811   5.202   4.510
 7645TIP3    H122871   3.729   5.218   4.562
 7645TIP3    H222872   3.774   5.181   4.424
 7646TIP3   OH222873   4.239   5.213   4.311
 7646TIP3    H122874   4.180   5.233   4.236
 7646TIP3    H222875   4.248   5.301   4.354
 7647TIP3   OH222876   4.505   5.153   4.362
 7647TIP3    H122877   4.410   5.168   4.344
 7647TIP3    H222878   4.546   5.228   4.317
 7648TIP3   OH222879   4.709   5.344   4.275
 7648TIP3    H122880   4.694   5.428   4.226
 7648TIP3    H222881   4.734   5.283   4.203
 7649TIP3   OH222882   3.506   5.045   4.392
 7649TIP3    H122883   3.534   5.000   4.496
 7649TIP3    H222884   3.568   4.965   4.344
 7650TIP3   OH222885   3.681   4.872   4.261
 7650TIP3    H122886   3.692   4.788   4.313
 7650TIP3    H222887   3.772   4.901   4.256
 7651TIP3   OH222888   3.947   4.979   4.263
 7651TIP3    H122889   3.972   4.884   4.250
 7651TIP3    H222890   4.001   4.993   4.344
 7652TIP3   OH222891   5.051   3.506   4.258
 7652TIP3    H122892   5.082   3.554   4.179
 7652TIP3    H222893   4.953   3.512   4.247
 7653TIP3   OH222894   5.137   3.598   4.017
 7653TIP3    H122895   5.206   3.542   3.977
 7653TIP3    H222896   5.176   3.686   3.995
 7654TIP3   OH222897   3.764   3.334   4.364
 7654TIP3    H122898   3.672   3.300   4.362
 7654TIP3    H222899   3.814   3.250   4.357
 7655TIP3   OH222900   4.216   3.354   4.247
 7655TIP3    H122901   4.271   3.405   4.186
 7655TIP3    H222902   4.230   3.401   4.330
 7656TIP3   OH222903   4.783   3.496   4.220
 7656TIP3    H122904   4.736   3.468   4.140
 7656TIP3    H222905   4.752   3.429   4.285
 7657TIP3   OH222906   4.790   3.431   3.790
 7657TIP3    H122907   4.702   3.471   3.797
 7657TIP3    H222908   4.775   3.346   3.836
 7658TIP3   OH222909   3.268   4.776   3.786
 7658TIP3    H122910   3.183   4.742   3.753
 7658TIP3    H222911   3.260   4.868   3.757
 7659TIP3   OH222912   4.192   3.537   3.867
 7659TIP3    H122913   4.251   3.499   3.935
 7659TIP3    H222914   4.191   3.631   3.895
 7660TIP3   OH222915   4.043   4.956   3.372
 7660TIP3    H122916   4.131   4.979   3.335
 7660TIP3    H222917   4.020   4.881   3.312
 7661TIP3   OH222918   4.763   5.079   3.466
 7661TIP3    H122919   4.754   4.981   3.454
 7661TIP3    H222920   4.717   5.111   3.385
 7662TIP3   OH222921   3.969   3.606   5.258
 7662TIP3    H122922   3.939   3.533   5.315
 7662TIP3    H222923   4.064   3.609   5.282
 7663TIP3   OH222924   4.222   3.609   5.372
 7663TIP3    H122925   4.306   3.583   5.331
 7663TIP3    H222926   4.210   3.538   5.438
 7664TIP3   OH222927   3.347   4.795   3.427
 7664TIP3    H122928   3.351   4.811   3.522
 7664TIP3    H222929   3.434   4.751   3.410
 7665TIP3   OH222930   5.050   3.672   5.160
 7665TIP3    H122931   5.068   3.641   5.251
 7665TIP3    H222932   5.139   3.665   5.119
 7666TIP3   OH222933   4.987   5.222   4.651
 7666TIP3    H122934   4.908   5.192   4.602
 7666TIP3    H222935   4.966   5.318   4.659
 7667TIP3   OH222936   6.525   4.913   3.472
 7667TIP3    H122937   6.502   4.830   3.515
 7667TIP3    H222938   6.549   4.973   3.545
 7668TIP3   OH222939   6.160   5.366   3.501
 7668TIP3    H122940   6.180   5.291   3.440
 7668TIP3    H222941   6.124   5.317   3.577
 7669TIP3   OH222942   7.066   4.138   3.848
 7669TIP3    H122943   7.095   4.222   3.889
 7669TIP3    H222944   7.089   4.153   3.755
 7670TIP3   OH222945   6.472   4.320   3.878
 7670TIP3    H122946   6.519   4.235   3.884
 7670TIP3    H222947   6.428   4.311   3.791
 7671TIP3   OH222948   5.804   3.990   3.832
 7671TIP3    H122949   5.757   4.051   3.770
 7671TIP3    H222950   5.772   3.904   3.795
 7672TIP3   OH222951   6.498   4.072   3.467
 7672TIP3    H122952   6.573   4.062   3.531
 7672TIP3    H222953   6.547   4.107   3.389
 7673TIP3   OH222954   7.138   4.346   4.022
 7673TIP3    H122955   7.056   4.396   4.002
 7673TIP3    H222956   7.169   4.392   4.102
 7674TIP3   OH222957   5.816   3.964   4.294
 7674TIP3    H122958   5.758   3.992   4.221
 7674TIP3    H222959   5.757   3.981   4.370
 7675TIP3   OH222960   6.704   4.081   3.643
 7675TIP3    H122961   6.705   4.029   3.724
 7675TIP3    H222962   6.757   4.159   3.667
 7676TIP3   OH222963   5.689   4.061   4.072
 7676TIP3    H122964   5.751   4.134   4.089
 7676TIP3    H222965   5.722   4.029   3.985
 7677TIP3   OH222966   5.114   4.628   3.416
 7677TIP3    H122967   5.090   4.642   3.322
 7677TIP3    H222968   5.155   4.712   3.440
 7678TIP3   OH222969   6.556   5.142   3.658
 7678TIP3    H122970   6.465   5.132   3.693
 7678TIP3    H222971   6.550   5.225   3.607
 7679TIP3   OH222972   6.857   4.042   4.013
 7679TIP3    H122973   6.772   4.071   3.977
 7679TIP3    H222974   6.921   4.073   3.945
 7680TIP3   OH222975   6.161   3.682   4.020
 7680TIP3    H122976   6.133   3.589   4.008
 7680TIP3    H222977   6.076   3.720   4.051
 7681TIP3   OH222978   6.260   5.182   3.317
 7681TIP3    H122979   6.308   5.098   3.301
 7681TIP3    H222980   6.324   5.246   3.277
 7682TIP3   OH222981   6.397   4.957   3.231
 7682TIP3    H122982   6.323   4.894   3.244
 7682TIP3    H222983   6.449   4.938   3.312
 7683TIP3   OH222984   6.789   5.053   3.993
 7683TIP3    H122985   6.781   4.976   3.932
 7683TIP3    H222986   6.775   5.128   3.932
 7684TIP3   OH222987   6.062   4.408   3.223
 7684TIP3    H122988   5.990   4.475   3.229
 7684TIP3    H222989   6.133   4.463   3.186
 7685TIP3   OH222990   6.035   4.238   2.955
 7685TIP3    H122991   6.078   4.280   3.032
 7685TIP3    H222992   6.108   4.183   2.918
 7686TIP3   OH222993   6.987   4.690   3.839
 7686TIP3    H122994   6.904   4.743   3.841
 7686TIP3    H222995   7.019   4.714   3.749
 7687TIP3   OH222996   6.674   4.563   4.144
 7687TIP3    H122997   6.669   4.648   4.191
 7687TIP3    H222998   6.586   4.563   4.100
 7688TIP3   OH222999   6.322   5.111   3.818
 7688TIP3    H123000   6.298   5.206   3.807
 7688TIP3    H223001   6.358   5.117   3.909
 7689TIP3   OH223002   5.931   5.058   4.313
 7689TIP3    H123003   5.880   5.124   4.366
 7689TIP3    H223004   5.857   5.012   4.271
 7690TIP3   OH223005   6.306   4.391   3.053
 7690TIP3    H123006   6.333   4.478   3.085
 7690TIP3    H223007   6.313   4.405   2.956
 7691TIP3   OH223008   5.697   4.605   4.418
 7691TIP3    H123009   5.702   4.693   4.460
 7691TIP3    H223010   5.602   4.586   4.432
 7692TIP3   OH223011   5.979   5.131   3.371
 7692TIP3    H123012   6.073   5.106   3.347
 7692TIP3    H223013   5.946   5.159   3.282
 7693TIP3   OH223014   5.732   5.223   4.407
 7693TIP3    H123015   5.699   5.221   4.315
 7693TIP3    H223016   5.650   5.200   4.458
 7694TIP3   OH223017   6.789   3.627   3.100
 7694TIP3    H123018   6.706   3.651   3.146
 7694TIP3    H223019   6.805   3.708   3.047
 7695TIP3   OH223020   6.588   4.994   2.645
 7695TIP3    H123021   6.596   5.091   2.630
 7695TIP3    H223022   6.681   4.965   2.632
 7696TIP3   OH223023   5.314   4.751   4.348
 7696TIP3    H123024   5.245   4.723   4.285
 7696TIP3    H223025   5.351   4.665   4.378
 7697TIP3   OH223026   5.159   4.949   3.992
 7697TIP3    H123027   5.255   4.963   3.991
 7697TIP3    H223028   5.129   5.030   4.037
 7698TIP3   OH223029   7.030   5.400   4.041
 7698TIP3    H123030   7.029   5.304   4.056
 7698TIP3    H223031   6.946   5.426   4.086
 7699TIP3   OH223032   6.133   5.183   4.172
 7699TIP3    H123033   6.129   5.275   4.207
 7699TIP3    H223034   6.062   5.141   4.226
 7700TIP3   OH223035   5.902   5.311   3.124
 7700TIP3    H123036   5.851   5.291   3.043
 7700TIP3    H223037   5.865   5.398   3.150
 7701TIP3   OH223038   5.336   5.161   3.512
 7701TIP3    H123039   5.380   5.148   3.598
 7701TIP3    H223040   5.287   5.077   3.503
 7702TIP3   OH223041   6.098   5.215   2.763
 7702TIP3    H123042   6.156   5.144   2.727
 7702TIP3    H223043   6.132   5.224   2.854
 7703TIP3   OH223044   6.152   5.263   3.031
 7703TIP3    H123045   6.063   5.273   3.072
 7703TIP3    H223046   6.201   5.221   3.104
 7704TIP3   OH223047   6.918   4.527   4.317
 7704TIP3    H123048   6.838   4.541   4.264
 7704TIP3    H223049   6.933   4.431   4.306
 7705TIP3   OH223050   5.515   4.944   4.322
 7705TIP3    H123051   5.573   4.927   4.399
 7705TIP3    H223052   5.446   4.876   4.334
 7706TIP3   OH223053   5.919   3.767   4.127
 7706TIP3    H123054   5.831   3.735   4.097
 7706TIP3    H223055   5.890   3.843   4.182
 7707TIP3   OH223056   6.662   4.292   4.222
 7707TIP3    H123057   6.632   4.296   4.316
 7707TIP3    H223058   6.662   4.386   4.196
 7708TIP3   OH223059   6.347   4.428   2.789
 7708TIP3    H123060   6.313   4.407   2.700
 7708TIP3    H223061   6.429   4.477   2.766
 7709TIP3   OH223062   6.064   3.803   3.093
 7709TIP3    H123063   6.025   3.804   3.183
 7709TIP3    H223064   6.018   3.724   3.058
 7710TIP3   OH223065   5.878   4.261   4.145
 7710TIP3    H123066   5.819   4.278   4.222
 7710TIP3    H223067   5.859   4.336   4.087
 7711TIP3   OH223068   5.672   4.135   3.645
 7711TIP3    H123069   5.583   4.159   3.609
 7711TIP3    H223070   5.710   4.099   3.562
 7712TIP3   OH223071   6.221   4.254   3.388
 7712TIP3    H123072   6.163   4.321   3.344
 7712TIP3    H223073   6.273   4.222   3.312
 7713TIP3   OH223074   6.395   4.522   4.466
 7713TIP3    H123075   6.375   4.452   4.532
 7713TIP3    H223076   6.488   4.542   4.490
 7714TIP3   OH223077   6.381   4.278   3.618
 7714TIP3    H123078   6.319   4.309   3.548
 7714TIP3    H223079   6.413   4.198   3.571
 7715TIP3   OH223080   5.702   4.291   4.353
 7715TIP3    H123081   5.658   4.366   4.396
 7715TIP3    H223082   5.664   4.214   4.401
 7716TIP3   OH223083   5.722   3.784   3.060
 7716TIP3    H123084   5.706   3.782   3.157
 7716TIP3    H223085   5.644   3.838   3.032
 7717TIP3   OH223086   5.278   3.811   3.932
 7717TIP3    H123087   5.337   3.857   3.994
 7717TIP3    H223088   5.307   3.845   3.846
 7718TIP3   OH223089   6.418   4.526   4.043
 7718TIP3    H123090   6.427   4.452   3.979
 7718TIP3    H223091   6.371   4.481   4.115
 7719TIP3   OH223092   6.059   3.971   3.721
 7719TIP3    H123093   5.966   3.975   3.751
 7719TIP3    H223094   6.105   3.997   3.801
 7720TIP3   OH223095   5.772   4.033   3.410
 7720TIP3    H123096   5.853   4.065   3.369
 7720TIP3    H223097   5.706   4.053   3.340
 7721TIP3   OH223098   6.549   4.055   3.930
 7721TIP3    H123099   6.499   4.068   4.013
 7721TIP3    H223100   6.492   3.988   3.886
 7722TIP3   OH223101   5.619   4.061   3.193
 7722TIP3    H123102   5.536   4.026   3.156
 7722TIP3    H223103   5.662   4.098   3.113
 7723TIP3   OH223104   6.724   5.748   4.139
 7723TIP3    H123105   6.721   5.774   4.045
 7723TIP3    H223106   6.804   5.796   4.169
 7724TIP3   OH223107   5.681   4.857   4.552
 7724TIP3    H123108   5.757   4.889   4.603
 7724TIP3    H223109   5.612   4.857   4.621
 7725TIP3   OH223110   6.169   4.322   3.837
 7725TIP3    H123111   6.209   4.289   3.755
 7725TIP3    H223112   6.175   4.249   3.897
 7726TIP3   OH223113   5.720   3.769   3.703
 7726TIP3    H123114   5.651   3.711   3.745
 7726TIP3    H223115   5.678   3.789   3.618
 7727TIP3   OH223116   6.138   4.158   4.198
 7727TIP3    H123117   6.049   4.181   4.163
 7727TIP3    H223118   6.184   4.243   4.183
 7728TIP3   OH223119   5.852   4.602   3.204
 7728TIP3    H123120   5.783   4.533   3.191
 7728TIP3    H223121   5.829   4.634   3.295
 7729TIP3   OH223122   6.753   4.837   3.823
 7729TIP3    H123123   6.784   4.888   3.744
 7729TIP3    H223124   6.668   4.800   3.793
 7730TIP3   OH223125   6.313   3.906   3.066
 7730TIP3    H123126   6.216   3.888   3.072
 7730TIP3    H223127   6.319   4.001   3.088
 7731TIP3   OH223128   6.220   4.902   4.208
 7731TIP3    H123129   6.281   4.898   4.283
 7731TIP3    H223130   6.208   4.998   4.196
 7732TIP3   OH223131   6.378   4.156   3.168
 7732TIP3    H123132   6.475   4.164   3.181
 7732TIP3    H223133   6.357   4.239   3.120
 7733TIP3   OH223134   5.993   4.745   3.006
 7733TIP3    H123135   5.956   4.834   3.025
 7733TIP3    H223136   5.956   4.694   3.081
 7734TIP3   OH223137   5.433   4.536   4.483
 7734TIP3    H123138   5.443   4.523   4.580
 7734TIP3    H223139   5.358   4.477   4.464
 7735TIP3   OH223140   6.153   4.659   4.510
 7735TIP3    H123141   6.087   4.599   4.472
 7735TIP3    H223142   6.237   4.623   4.475
 7736TIP3   OH223143   6.398   5.166   4.083
 7736TIP3    H123144   6.304   5.177   4.109
 7736TIP3    H223145   6.441   5.217   4.156
 7737TIP3   OH223146   6.823   4.253   2.999
 7737TIP3    H123147   6.761   4.208   2.936
 7737TIP3    H223148   6.818   4.342   2.959
 7738TIP3   OH223149   7.041   5.109   4.081
 7738TIP3    H123150   6.943   5.103   4.072
 7738TIP3    H223151   7.068   5.080   3.991
 7739TIP3   OH223152   6.528   5.070   2.912
 7739TIP3    H123153   6.495   5.002   2.973
 7739TIP3    H223154   6.537   5.021   2.828
 7740TIP3   OH223155   6.514   4.687   3.746
 7740TIP3    H123156   6.502   4.630   3.824
 7740TIP3    H223157   6.547   4.620   3.681
 7741TIP3   OH223158   5.646   4.935   3.494
 7741TIP3    H123159   5.649   5.014   3.438
 7741TIP3    H223160   5.552   4.914   3.493
 7742TIP3   OH223161   5.206   4.233   3.196
 7742TIP3    H123162   5.258   4.312   3.223
 7742TIP3    H223163   5.137   4.232   3.267
 7743TIP3   OH223164   5.768   4.688   3.453
 7743TIP3    H123165   5.732   4.778   3.470
 7743TIP3    H223166   5.735   4.637   3.528
 7744TIP3   OH223167   5.921   5.259   3.957
 7744TIP3    H123168   5.957   5.338   3.913
 7744TIP3    H223169   5.995   5.235   4.015
 7745TIP3   OH223170   5.563   5.169   3.348
 7745TIP3    H123171   5.478   5.178   3.396
 7745TIP3    H223172   5.596   5.261   3.352
 7746TIP3   OH223173   6.279   4.800   2.810
 7746TIP3    H123174   6.333   4.767   2.885
 7746TIP3    H223175   6.191   4.772   2.839
 7747TIP3   OH223176   6.549   5.434   3.975
 7747TIP3    H123177   6.468   5.381   3.963
 7747TIP3    H223178   6.538   5.501   3.903
 7748TIP3   OH223179   6.619   5.270   2.628
 7748TIP3    H123180   6.657   5.345   2.578
 7748TIP3    H223181   6.538   5.314   2.663
 7749TIP3   OH223182   5.636   4.046   4.497
 7749TIP3    H123183   5.538   4.052   4.502
 7749TIP3    H223184   5.654   3.981   4.567
 7750TIP3   OH223185   6.440   4.709   3.018
 7750TIP3    H123186   6.427   4.715   3.114
 7750TIP3    H223187   6.537   4.713   3.011
 7751TIP3   OH223188   5.368   5.123   4.128
 7751TIP3    H123189   5.423   5.062   4.181
 7751TIP3    H223190   5.381   5.206   4.177
 7752TIP3   OH223191   5.642   4.777   2.811
 7752TIP3    H123192   5.657   4.685   2.783
 7752TIP3    H223193   5.623   4.766   2.906
 7753TIP3   OH223194   5.589   4.783   3.082
 7753TIP3    H123195   5.666   4.751   3.132
 7753TIP3    H223196   5.597   4.881   3.094
 7754TIP3   OH223197   5.320   4.473   3.263
 7754TIP3    H123198   5.283   4.498   3.348
 7754TIP3    H223199   5.333   4.558   3.218
 7755TIP3   OH223200   6.478   4.081   4.210
 7755TIP3    H123201   6.530   4.164   4.205
 7755TIP3    H223202   6.549   4.021   4.241
 7756TIP3   OH223203   6.365   3.855   3.344
 7756TIP3    H123204   6.341   3.877   3.252
 7756TIP3    H223205   6.397   3.942   3.377
 7757TIP3   OH223206   5.863   4.985   3.035
 7757TIP3    H123207   5.774   5.006   3.071
 7757TIP3    H223208   5.870   5.053   2.966
 7758TIP3   OH223209   6.071   4.031   3.446
 7758TIP3    H123210   6.121   4.114   3.427
 7758TIP3    H223211   6.050   4.042   3.540
 7759TIP3   OH223212   6.320   4.368   4.251
 7759TIP3    H123213   6.336   4.434   4.323
 7759TIP3    H223214   6.381   4.298   4.279
 7760TIP3   OH223215   6.194   3.772   3.555
 7760TIP3    H123216   6.156   3.855   3.592
 7760TIP3    H223217   6.250   3.808   3.482
 7761TIP3   OH223218   5.605   5.057   3.099
 7761TIP3    H123219   5.573   5.126   3.037
 7761TIP3    H223220   5.586   5.099   3.186
 7762TIP3   OH223221   5.697   3.768   3.335
 7762TIP3    H123222   5.686   3.859   3.368
 7762TIP3    H223223   5.794   3.758   3.346
 7763TIP3   OH223224   6.941   4.263   4.237
 7763TIP3    H123225   6.845   4.249   4.232
 7763TIP3    H223226   6.969   4.236   4.148
 7764TIP3   OH223227   6.604   4.457   3.622
 7764TIP3    H123228   6.530   4.394   3.624
 7764TIP3    H223229   6.676   4.406   3.664
 7765TIP3   OH223230   5.321   4.693   3.083
 7765TIP3    H123231   5.401   4.749   3.091
 7765TIP3    H223232   5.357   4.626   3.021
 7766TIP3   OH223233   5.260   3.961   3.173
 7766TIP3    H123234   5.268   4.055   3.197
 7766TIP3    H223235   5.211   3.927   3.248
 7767TIP3   OH223236   6.574   5.410   3.569
 7767TIP3    H123237   6.531   5.457   3.494
 7767TIP3    H223238   6.668   5.430   3.548
 7768TIP3   OH223239   5.656   3.684   4.095
 7768TIP3    H123240   5.620   3.653   4.008
 7768TIP3    H223241   5.642   3.605   4.151
 7769TIP3   OH223242   5.195   4.911   3.477
 7769TIP3    H123243   5.121   4.929   3.537
 7769TIP3    H223244   5.158   4.948   3.392
 7770TIP3   OH223245   5.349   5.447   4.547
 7770TIP3    H123246   5.434   5.448   4.597
 7770TIP3    H223247   5.328   5.352   4.549
 7771TIP3   OH223248   5.825   5.402   4.596
 7771TIP3    H123249   5.920   5.384   4.599
 7771TIP3    H223250   5.797   5.341   4.524
 7772TIP3   OH223251   5.807   4.978   2.722
 7772TIP3    H123252   5.750   4.907   2.760
 7772TIP3    H223253   5.883   4.924   2.692
 7773TIP3   OH223254   6.472   5.301   4.315
 7773TIP3    H123255   6.461   5.237   4.389
 7773TIP3    H223256   6.544   5.358   4.349
 7774TIP3   OH223257   6.244   5.019   2.636
 7774TIP3    H123258   6.280   4.951   2.696
 7774TIP3    H223259   6.303   5.013   2.559
 7775TIP3   OH223260   5.479   4.849   4.746
 7775TIP3    H123261   5.495   4.753   4.753
 7775TIP3    H223262   5.390   4.852   4.704
 7776TIP3   OH223263   5.451   4.500   2.942
 7776TIP3    H123264   5.498   4.461   3.019
 7776TIP3    H223265   5.523   4.501   2.876
 7777TIP3   OH223266   6.084   4.936   4.521
 7777TIP3    H123267   6.044   4.953   4.433
 7777TIP3    H223268   6.116   4.844   4.511
 7778TIP3   OH223269   5.965   4.694   2.743
 7778TIP3    H123270   5.965   4.708   2.840
 7778TIP3    H223271   5.965   4.596   2.740
 7779TIP3   OH223272   6.577   4.944   4.135
 7779TIP3    H123273   6.652   4.987   4.090
 7779TIP3    H223274   6.504   5.004   4.113
 7780TIP3   OH223275   5.596   4.589   4.734
 7780TIP3    H123276   5.666   4.526   4.712
 7780TIP3    H223277   5.624   4.619   4.823
 7781TIP3   OH223278   5.664   4.400   3.167
 7781TIP3    H123279   5.612   4.353   3.234
 7781TIP3    H223280   5.701   4.325   3.115
 7782TIP3   OH223281   5.954   4.482   4.404
 7782TIP3    H123282   5.862   4.520   4.406
 7782TIP3    H223283   5.985   4.515   4.317
 7783TIP3   OH223284   5.762   4.199   3.000
 7783TIP3    H123285   5.735   4.205   2.907
 7783TIP3    H223286   5.860   4.205   2.991
 7784TIP3   OH223287   6.447   4.867   4.524
 7784TIP3    H123288   6.530   4.842   4.481
 7784TIP3    H223289   6.443   4.805   4.599
 7785TIP3   OH223290   6.584   4.525   2.671
 7785TIP3    H123291   6.562   4.480   2.587
 7785TIP3    H223292   6.551   4.615   2.650
 7786TIP3   OH223293   6.056   4.245   4.494
 7786TIP3    H123294   5.974   4.194   4.484
 7786TIP3    H223295   6.028   4.331   4.456
 7787TIP3   OH223296   6.067   4.586   4.183
 7787TIP3    H123297   6.135   4.545   4.127
 7787TIP3    H223298   6.076   4.679   4.156
 7788TIP3   OH223299   6.664   4.542   4.577
 7788TIP3    H123300   6.717   4.463   4.597
 7788TIP3    H223301   6.730   4.602   4.540
 7789TIP3   OH223302   6.708   4.793   4.316
 7789TIP3    H123303   6.650   4.849   4.259
 7789TIP3    H223304   6.795   4.816   4.277
 7790TIP3   OH223305   5.939   4.360   4.755
 7790TIP3    H123306   5.868   4.294   4.771
 7790TIP3    H223307   5.954   4.351   4.660
 7791TIP3   OH223308   6.314   4.302   4.609
 7791TIP3    H123309   6.304   4.294   4.706
 7791TIP3    H223310   6.223   4.283   4.581
 7792TIP3   OH223311   6.551   4.253   4.465
 7792TIP3    H123312   6.480   4.262   4.533
 7792TIP3    H223313   6.628   4.226   4.521
 7793TIP3   OH223314   6.776   4.197   4.614
 7793TIP3    H123315   6.794   4.102   4.632
 7793TIP3    H223316   6.775   4.236   4.705
 7794TIP3   OH223317   5.776   4.142   4.803
 7794TIP3    H123318   5.771   4.049   4.773
 7794TIP3    H223319   5.809   4.130   4.894
 7795TIP3   OH223320   6.280   3.833   4.562
 7795TIP3    H123321   6.362   3.779   4.575
 7795TIP3    H223322   6.214   3.763   4.579
 7796TIP3   OH223323   6.341   4.021   4.804
 7796TIP3    H123324   6.318   3.970   4.725
 7796TIP3    H223325   6.267   4.086   4.809
 7797TIP3   OH223326   5.573   5.263   2.914
 7797TIP3    H123327   5.668   5.252   2.892
 7797TIP3    H223328   5.544   5.311   2.834
 7798TIP3   OH223329   5.054   4.640   3.130
 7798TIP3    H123330   5.148   4.663   3.112
 7798TIP3    H223331   5.048   4.551   3.088
 7799TIP3   OH223332   4.965   5.253   3.542
 7799TIP3    H123333   4.900   5.190   3.503
 7799TIP3    H223334   5.010   5.194   3.606
 7800TIP3   OH223335   5.097   5.103   3.730
 7800TIP3    H123336   5.084   5.030   3.793
 7800TIP3    H223337   5.152   5.163   3.784
 7801TIP3   OH223338   6.829   5.500   3.530
 7801TIP3    H123339   6.856   5.536   3.616
 7801TIP3    H223340   6.893   5.542   3.470
 7802TIP3   OH223341   6.856   5.523   3.814
 7802TIP3    H123342   6.815   5.435   3.807
 7802TIP3    H223343   6.934   5.502   3.867
 7803TIP3   OH223344   6.904   5.199   4.384
 7803TIP3    H123345   6.832   5.208   4.450
 7803TIP3    H223346   6.946   5.287   4.388
 7804TIP3   OH223347   6.721   4.711   3.003
 7804TIP3    H123348   6.787   4.777   2.973
 7804TIP3    H223349   6.767   4.673   3.081
 7805TIP3   OH223350   6.855   4.581   3.203
 7805TIP3    H123351   6.791   4.533   3.261
 7805TIP3    H223352   6.918   4.618   3.269
 7806TIP3   OH223353   6.903   4.972   3.637
 7806TIP3    H123354   6.956   4.906   3.590
 7806TIP3    H223355   6.903   5.047   3.574
 7807TIP3   OH223356   6.732   5.272   3.834
 7807TIP3    H123357   6.662   5.318   3.884
 7807TIP3    H223358   6.681   5.227   3.763
 7808TIP3   OH223359   6.785   4.488   2.852
 7808TIP3    H123360   6.713   4.490   2.785
 7808TIP3    H223361   6.758   4.563   2.908
 7809TIP3   OH223362   6.660   4.157   2.803
 7809TIP3    H123363   6.609   4.198   2.732
 7809TIP3    H223364   6.636   4.063   2.792
 7810TIP3   OH223365   6.691   4.430   3.356
 7810TIP3    H123366   6.666   4.338   3.342
 7810TIP3    H223367   6.650   4.451   3.442
 7811TIP3   OH223368   6.951   4.861   4.210
 7811TIP3    H123369   7.022   4.795   4.198
 7811TIP3    H223370   6.978   4.931   4.148
 7812TIP3   OH223371   7.132   4.662   4.219
 7812TIP3    H123372   7.059   4.613   4.262
 7812TIP3    H223373   7.206   4.600   4.235
 7813TIP3   OH223374   6.601   3.890   2.785
 7813TIP3    H123375   6.669   3.860   2.848
 7813TIP3    H223376   6.522   3.837   2.808
 7814TIP3   OH223377   6.656   4.154   3.247
 7814TIP3    H123378   6.700   4.066   3.259
 7814TIP3    H223379   6.714   4.192   3.178
 7815TIP3   OH223380   6.818   4.321   3.742
 7815TIP3    H123381   6.903   4.346   3.699
 7815TIP3    H223382   6.834   4.361   3.830
 7816TIP3   OH223383   6.891   4.470   3.973
 7816TIP3    H123384   6.814   4.506   4.022
 7816TIP3    H223385   6.923   4.550   3.927
 7817TIP3   OH223386   5.508   4.198   4.781
 7817TIP3    H123387   5.605   4.189   4.780
 7817TIP3    H223388   5.482   4.110   4.816
 7818TIP3   OH223389   7.338   4.063   4.528
 7818TIP3    H123390   7.399   3.998   4.486
 7818TIP3    H223391   7.309   4.116   4.451
 7819TIP3   OH223392   6.770   3.904   3.283
 7819TIP3    H123393   6.815   3.887   3.368
 7819TIP3    H223394   6.706   3.830   3.280
 7820TIP3   OH223395   5.465   3.895   4.123
 7820TIP3    H123396   5.527   3.820   4.119
 7820TIP3    H223397   5.526   3.969   4.105
 7821TIP3   OH223398   7.206   4.201   4.334
 7821TIP3    H123399   7.121   4.242   4.359
 7821TIP3    H223400   7.174   4.128   4.277
 7822TIP3   OH223401   6.845   3.833   2.923
 7822TIP3    H123402   6.885   3.766   2.863
 7822TIP3    H223403   6.909   3.907   2.916
 7823TIP3   OH223404   5.242   3.678   3.625
 7823TIP3    H123405   5.163   3.684   3.682
 7823TIP3    H223406   5.269   3.771   3.616
 7824TIP3   OH223407   6.412   5.366   3.187
 7824TIP3    H123408   6.463   5.355   3.103
 7824TIP3    H223409   6.465   5.434   3.232
 7825TIP3   OH223410   5.475   3.747   4.494
 7825TIP3    H123411   5.421   3.739   4.575
 7825TIP3    H223412   5.409   3.785   4.432
 7826TIP3   OH223413   5.513   5.172   4.570
 7826TIP3    H123414   5.419   5.150   4.552
 7826TIP3    H223415   5.519   5.156   4.665
 7827TIP3   OH223416   5.699   5.214   4.127
 7827TIP3    H123417   5.649   5.286   4.085
 7827TIP3    H223418   5.780   5.219   4.073
 7828TIP3   OH223419   6.133   5.448   4.252
 7828TIP3    H123420   6.174   5.448   4.341
 7828TIP3    H223421   6.199   5.501   4.202
 7829TIP3   OH223422   6.316   5.601   4.115
 7829TIP3    H123423   6.391   5.554   4.076
 7829TIP3    H223424   6.363   5.662   4.176
 7830TIP3   OH223425   7.110   3.965   4.214
 7830TIP3    H123426   7.021   3.959   4.175
 7830TIP3    H223427   7.143   3.873   4.203
 7831TIP3   OH223428   5.366   5.459   4.142
 7831TIP3    H123429   5.276   5.491   4.120
 7831TIP3    H223430   5.381   5.506   4.225
 7832TIP3   OH223431   5.604   5.442   4.000
 7832TIP3    H123432   5.516   5.452   4.044
 7832TIP3    H223433   5.584   5.473   3.910
 7833TIP3   OH223434   6.028   5.466   3.800
 7833TIP3    H123435   5.960   5.487   3.733
 7833TIP3    H223436   6.041   5.554   3.841
 7834TIP3   OH223437   6.298   5.391   3.830
 7834TIP3    H123438   6.204   5.417   3.820
 7834TIP3    H223439   6.343   5.469   3.793
 7835TIP3   OH223440   6.500   5.596   3.761
 7835TIP3    H123441   6.487   5.682   3.716
 7835TIP3    H223442   6.528   5.539   3.686
 7836TIP3   OH223443   5.284   5.252   3.883
 7836TIP3    H123444   5.309   5.227   3.974
 7836TIP3    H223445   5.356   5.206   3.834
 7837TIP3   OH223446   5.481   5.118   3.744
 7837TIP3    H123447   5.517   5.028   3.759
 7837TIP3    H223448   5.564   5.170   3.741
 7838TIP3   OH223449   5.735   5.235   3.741
 7838TIP3    H123450   5.781   5.165   3.692
 7838TIP3    H223451   5.788   5.240   3.824
 7839TIP3   OH223452   6.334   3.877   3.869
 7839TIP3    H123453   6.269   3.810   3.898
 7839TIP3    H223454   6.362   3.841   3.784
 7840TIP3   OH223455   6.837   3.758   3.746
 7840TIP3    H123456   6.876   3.807   3.671
 7840TIP3    H223457   6.741   3.776   3.735
 7841TIP3   OH223458   6.929   3.852   3.504
 7841TIP3    H123459   7.003   3.802   3.464
 7841TIP3    H223460   6.963   3.944   3.490
 7842TIP3   OH223461   5.560   3.587   3.856
 7842TIP3    H123462   5.466   3.557   3.857
 7842TIP3    H223463   5.606   3.502   3.844
 7843TIP3   OH223464   5.356   3.458   3.498
 7843TIP3    H123465   5.385   3.511   3.422
 7843TIP3    H223466   5.317   3.529   3.555
 7844TIP3   OH223467   6.026   3.607   3.737
 7844TIP3    H123468   6.074   3.667   3.677
 7844TIP3    H223469   5.963   3.667   3.779
 7845TIP3   OH223470   6.562   3.758   3.707
 7845TIP3    H123471   6.526   3.741   3.619
 7845TIP3    H223472   6.547   3.672   3.753
 7846TIP3   OH223473   6.585   3.693   3.279
 7846TIP3    H123474   6.501   3.742   3.293
 7846TIP3    H223475   6.564   3.607   3.320
 7847TIP3   OH223476   5.065   5.033   3.273
 7847TIP3    H123477   4.981   4.996   3.241
 7847TIP3    H223478   5.054   5.126   3.246
 7848TIP3   OH223479   5.463   3.610   3.266
 7848TIP3    H123480   5.515   3.555   3.204
 7848TIP3    H223481   5.532   3.671   3.301
 7849TIP3   OH223482   5.978   3.791   3.355
 7849TIP3    H123483   6.030   3.742   3.420
 7849TIP3    H223484   6.000   3.884   3.382
 7850TIP3   OH223485   5.838   5.213   2.856
 7850TIP3    H123486   5.926   5.236   2.821
 7850TIP3    H223487   5.816   5.138   2.797
 7851TIP3   OH223488   6.559   5.337   2.953
 7851TIP3    H123489   6.552   5.239   2.941
 7851TIP3    H223490   6.513   5.368   2.872
 7852TIP3   OH223491   5.769   3.870   4.747
 7852TIP3    H123492   5.732   3.797   4.799
 7852TIP3    H223493   5.863   3.865   4.773
 7853TIP3   OH223494   6.022   3.859   4.866
 7853TIP3    H123495   6.112   3.825   4.856
 7853TIP3    H223496   5.988   3.797   4.934
 7854TIP3   OH223497   5.144   5.054   2.914
 7854TIP3    H123498   5.146   5.066   3.010
 7854TIP3    H223499   5.230   5.009   2.897
 7855TIP3   OH223500   6.847   3.931   4.647
 7855TIP3    H123501   6.865   3.899   4.738
 7855TIP3    H223502   6.936   3.925   4.607
 7856TIP3   OH223503   6.781   5.478   4.139
 7856TIP3    H123504   6.702   5.449   4.089
 7856TIP3    H223505   6.764   5.574   4.144
 7857TIP3   OH223506   8.049   4.854   2.903
 7857TIP3    H123507   8.019   4.945   2.883
 7857TIP3    H223508   7.971   4.804   2.874
 7858TIP3   OH223509   8.045   4.852   3.288
 7858TIP3    H123510   8.075   4.836   3.380
 7858TIP3    H223511   8.005   4.766   3.266
 7859TIP3   OH223512   7.346   4.746   3.655
 7859TIP3    H123513   7.378   4.677   3.717
 7859TIP3    H223514   7.427   4.796   3.638
 7860TIP3   OH223515   8.292   5.151   2.970
 7860TIP3    H123516   8.276   5.089   3.043
 7860TIP3    H223517   8.324   5.230   3.017
 7861TIP3   OH223518   7.322   5.157   3.374
 7861TIP3    H123519   7.314   5.059   3.375
 7861TIP3    H223520   7.419   5.166   3.366
 7862TIP3   OH223521   7.027   4.357   3.157
 7862TIP3    H123522   6.979   4.440   3.176
 7862TIP3    H223523   6.955   4.307   3.114
 7863TIP3   OH223524   7.087   4.648   3.340
 7863TIP3    H123525   7.136   4.569   3.372
 7863TIP3    H223526   7.145   4.682   3.271
 7864TIP3   OH223527   7.945   5.616   2.985
 7864TIP3    H123528   7.987   5.543   2.934
 7864TIP3    H223529   7.939   5.576   3.073
 7865TIP3   OH223530   7.847   5.077   3.335
 7865TIP3    H123531   7.889   5.001   3.292
 7865TIP3    H223532   7.929   5.125   3.361
 7866TIP3   OH223533   8.252   4.598   3.363
 7866TIP3    H123534   8.265   4.505   3.390
 7866TIP3    H223535   8.207   4.583   3.277
 7867TIP3   OH223536   7.597   4.237   3.333
 7867TIP3    H123537   7.583   4.310   3.269
 7867TIP3    H223538   7.550   4.165   3.287
 7868TIP3   OH223539   8.287   4.331   2.965
 7868TIP3    H123540   8.351   4.271   3.008
 7868TIP3    H223541   8.346   4.378   2.904
 7869TIP3   OH223542   7.231   4.438   3.440
 7869TIP3    H123543   7.315   4.419   3.487
 7869TIP3    H223544   7.245   4.384   3.359
 7870TIP3   OH223545   7.672   4.637   3.236
 7870TIP3    H123546   7.766   4.613   3.247
 7870TIP3    H223547   7.634   4.553   3.202
 7871TIP3   OH223548   7.594   4.222   3.766
 7871TIP3    H123549   7.537   4.259   3.697
 7871TIP3    H223550   7.541   4.241   3.846
 7872TIP3   OH223551   7.945   5.077   2.766
 7872TIP3    H123552   7.897   5.058   2.683
 7872TIP3    H223553   7.895   5.155   2.798
 7873TIP3   OH223554   7.701   4.997   3.557
 7873TIP3    H123555   7.642   5.067   3.593
 7873TIP3    H223556   7.746   5.045   3.484
 7874TIP3   OH223557   7.467   4.336   3.550
 7874TIP3    H123558   7.528   4.410   3.572
 7874TIP3    H223559   7.515   4.296   3.474
 7875TIP3   OH223560   7.532   5.195   3.658
 7875TIP3    H123561   7.507   5.282   3.620
 7875TIP3    H223562   7.453   5.178   3.713
 7876TIP3   OH223563   6.922   4.883   2.894
 7876TIP3    H123564   6.881   4.909   2.809
 7876TIP3    H223565   6.953   4.970   2.928
 7877TIP3   OH223566   8.362   5.397   3.131
 7877TIP3    H123567   8.273   5.388   3.173
 7877TIP3    H223568   8.355   5.485   3.089
 7878TIP3   OH223569   7.939   3.931   3.483
 7878TIP3    H123570   7.920   3.836   3.500
 7878TIP3    H223571   7.861   3.973   3.527
 7879TIP3   OH223572   8.061   5.440   2.805
 7879TIP3    H123573   8.114   5.360   2.783
 7879TIP3    H223574   8.120   5.509   2.765
 7880TIP3   OH223575   8.201   5.217   2.716
 7880TIP3    H123576   8.132   5.150   2.709
 7880TIP3    H223577   8.246   5.191   2.800
 7881TIP3   OH223578   8.584   5.298   3.482
 7881TIP3    H123579   8.588   5.225   3.417
 7881TIP3    H223580   8.580   5.378   3.427
 7882TIP3   OH223581   7.879   4.704   2.737
 7882TIP3    H123582   7.797   4.755   2.719
 7882TIP3    H223583   7.921   4.703   2.650
 7883TIP3   OH223584   7.837   4.490   2.449
 7883TIP3    H123585   7.904   4.543   2.496
 7883TIP3    H223586   7.896   4.428   2.401
 7884TIP3   OH223587   8.221   4.781   2.707
 7884TIP3    H123588   8.166   4.812   2.783
 7884TIP3    H223589   8.295   4.739   2.755
 7885TIP3   OH223590   8.447   4.801   3.621
 7885TIP3    H123591   8.482   4.884   3.656
 7885TIP3    H223592   8.360   4.828   3.586
 7886TIP3   OH223593   7.461   4.782   3.125
 7886TIP3    H123594   7.420   4.723   3.057
 7886TIP3    H223595   7.537   4.728   3.155
 7887TIP3   OH223596   7.589   5.194   3.272
 7887TIP3    H123597   7.571   5.159   3.183
 7887TIP3    H223598   7.678   5.158   3.290
 7888TIP3   OH223599   7.592   4.756   3.479
 7888TIP3    H123600   7.627   4.731   3.391
 7888TIP3    H223601   7.638   4.841   3.497
 7889TIP3   OH223602   8.122   5.392   3.255
 7889TIP3    H123603   8.108   5.474   3.307
 7889TIP3    H223604   8.106   5.321   3.321
 7890TIP3   OH223605   7.736   5.311   3.805
 7890TIP3    H123606   7.674   5.373   3.849
 7890TIP3    H223607   7.672   5.258   3.753
 7891TIP3   OH223608   8.066   4.637   2.532
 7891TIP3    H123609   8.122   4.701   2.582
 7891TIP3    H223610   8.092   4.659   2.439
 7892TIP3   OH223611   7.492   4.863   3.912
 7892TIP3    H123612   7.496   4.953   3.950
 7892TIP3    H223613   7.396   4.846   3.918
 7893TIP3   OH223614   7.814   5.320   2.810
 7893TIP3    H123615   7.897   5.372   2.818
 7893TIP3    H223616   7.754   5.383   2.768
 7894TIP3   OH223617   7.529   5.477   3.890
 7894TIP3    H123618   7.495   5.480   3.798
 7894TIP3    H223619   7.448   5.456   3.941
 7895TIP3   OH223620   7.328   4.627   2.927
 7895TIP3    H123621   7.259   4.672   2.873
 7895TIP3    H223622   7.289   4.540   2.939
 7896TIP3   OH223623   8.381   5.256   2.134
 7896TIP3    H123624   8.381   5.350   2.111
 7896TIP3    H223625   8.466   5.226   2.097
 7897TIP3   OH223626   7.106   5.011   3.837
 7897TIP3    H123627   7.042   4.990   3.766
 7897TIP3    H223628   7.145   4.924   3.858
 7898TIP3   OH223629   6.963   5.201   3.474
 7898TIP3    H123630   7.058   5.196   3.458
 7898TIP3    H223631   6.956   5.283   3.525
 7899TIP3   OH223632   7.931   5.440   3.661
 7899TIP3    H123633   7.928   5.533   3.692
 7899TIP3    H223634   7.861   5.399   3.715
 7900TIP3   OH223635   7.694   5.565   2.615
 7900TIP3    H123636   7.650   5.548   2.529
 7900TIP3    H223637   7.662   5.654   2.638
 7901TIP3   OH223638   7.132   5.416   2.997
 7901TIP3    H123639   7.178   5.408   3.083
 7901TIP3    H223640   7.080   5.334   2.995
 7902TIP3   OH223641   7.893   5.472   2.251
 7902TIP3    H123642   7.950   5.402   2.213
 7902TIP3    H223643   7.931   5.481   2.341
 7903TIP3   OH223644   7.945   5.520   2.520
 7903TIP3    H123645   7.858   5.527   2.565
 7903TIP3    H223646   8.001   5.483   2.591
 7904TIP3   OH223647   7.313   5.193   3.821
 7904TIP3    H123648   7.362   5.177   3.904
 7904TIP3    H223649   7.238   5.131   3.829
 7905TIP3   OH223650   7.709   4.015   3.613
 7905TIP3    H123651   7.620   3.986   3.584
 7905TIP3    H223652   7.685   4.098   3.658
 7906TIP3   OH223653   8.209   4.153   3.785
 7906TIP3    H123654   8.276   4.118   3.848
 7906TIP3    H223655   8.126   4.130   3.832
 7907TIP3   OH223656   8.519   4.555   3.731
 7907TIP3    H123657   8.459   4.561   3.808
 7907TIP3    H223658   8.496   4.639   3.683
 7908TIP3   OH223659   8.144   4.685   2.277
 7908TIP3    H123660   8.117   4.661   2.186
 7908TIP3    H223661   8.208   4.755   2.259
 7909TIP3   OH223662   7.867   4.062   2.583
 7909TIP3    H123663   7.830   4.061   2.673
 7909TIP3    H223664   7.825   3.982   2.546
 7910TIP3   OH223665   7.642   4.533   3.627
 7910TIP3    H123666   7.593   4.554   3.709
 7910TIP3    H223667   7.626   4.615   3.574
 7911TIP3   OH223668   7.527   4.419   3.143
 7911TIP3    H123669   7.434   4.392   3.161
 7911TIP3    H223670   7.540   4.377   3.055
 7912TIP3   OH223671   8.018   4.506   2.869
 7912TIP3    H123672   7.963   4.576   2.828
 7912TIP3    H223673   8.074   4.478   2.796
 7913TIP3   OH223674   8.190   4.781   3.956
 7913TIP3    H123675   8.169   4.708   4.018
 7913TIP3    H223676   8.286   4.790   3.970
 7914TIP3   OH223677   8.160   4.537   3.109
 7914TIP3    H123678   8.101   4.553   3.033
 7914TIP3    H223679   8.198   4.452   3.080
 7915TIP3   OH223680   7.463   4.562   3.837
 7915TIP3    H123681   7.495   4.626   3.903
 7915TIP3    H223682   7.453   4.480   3.890
 7916TIP3   OH223683   7.514   4.040   2.547
 7916TIP3    H123684   7.503   4.039   2.644
 7916TIP3    H223685   7.437   4.092   2.520
 7917TIP3   OH223686   7.056   4.075   3.424
 7917TIP3    H123687   7.130   4.112   3.475
 7917TIP3    H223688   7.095   4.054   3.338
 7918TIP3   OH223689   7.021   4.062   2.936
 7918TIP3    H123690   7.065   4.101   2.857
 7918TIP3    H223691   6.960   4.136   2.957
 7919TIP3   OH223692   8.158   4.787   3.533
 7919TIP3    H123693   8.203   4.721   3.474
 7919TIP3    H223694   8.139   4.729   3.610
 7920TIP3   OH223695   7.848   4.262   3.201
 7920TIP3    H123696   7.777   4.247   3.265
 7920TIP3    H223697   7.925   4.219   3.245
 7921TIP3   OH223698   7.288   4.298   3.210
 7921TIP3    H123699   7.194   4.305   3.181
 7921TIP3    H223700   7.312   4.207   3.185
 7922TIP3   OH223701   7.553   4.289   2.902
 7922TIP3    H123702   7.647   4.306   2.883
 7922TIP3    H223703   7.507   4.314   2.818
 7923TIP3   OH223704   8.269   4.332   3.401
 7923TIP3    H123705   8.259   4.340   3.497
 7923TIP3    H223706   8.351   4.276   3.394
 7924TIP3   OH223707   7.404   4.326   2.676
 7924TIP3    H123708   7.334   4.281   2.627
 7924TIP3    H223709   7.456   4.364   2.603
 7925TIP3   OH223710   8.511   6.012   3.626
 7925TIP3    H123711   8.504   6.015   3.528
 7925TIP3    H223712   8.582   6.075   3.641
 7926TIP3   OH223713   7.473   5.114   4.045
 7926TIP3    H123714   7.553   5.145   4.091
 7926TIP3    H223715   7.409   5.116   4.118
 7927TIP3   OH223716   7.939   4.573   3.304
 7927TIP3    H123717   8.002   4.526   3.247
 7927TIP3    H223718   7.944   4.522   3.386
 7928TIP3   OH223719   7.456   4.056   3.182
 7928TIP3    H123720   7.422   3.977   3.230
 7928TIP3    H223721   7.504   4.016   3.108
 7929TIP3   OH223722   7.912   4.465   3.597
 7929TIP3    H123723   7.823   4.504   3.606
 7929TIP3    H223724   7.970   4.530   3.643
 7930TIP3   OH223725   7.650   4.855   2.685
 7930TIP3    H123726   7.577   4.790   2.672
 7930TIP3    H223727   7.630   4.889   2.775
 7931TIP3   OH223728   8.552   5.086   3.300
 7931TIP3    H123729   8.567   5.110   3.208
 7931TIP3    H223730   8.462   5.047   3.295
 7932TIP3   OH223731   8.119   4.163   2.549
 7932TIP3    H123732   8.023   4.139   2.557
 7932TIP3    H223733   8.118   4.260   2.559
 7933TIP3   OH223734   8.039   5.172   3.684
 7933TIP3    H123735   8.081   5.160   3.770
 7933TIP3    H223736   8.010   5.264   3.685
 7934TIP3   OH223737   8.205   4.424   2.632
 7934TIP3    H123738   8.288   4.471   2.645
 7934TIP3    H223739   8.152   4.492   2.586
 7935TIP3   OH223740   7.344   4.879   3.358
 7935TIP3    H123741   7.381   4.852   3.272
 7935TIP3    H223742   7.391   4.820   3.419
 7936TIP3   OH223743   7.798   5.005   2.509
 7936TIP3    H123744   7.749   5.091   2.512
 7936TIP3    H223745   7.742   4.950   2.568
 7937TIP3   OH223746   7.225   4.799   3.974
 7937TIP3    H123747   7.244   4.784   4.069
 7937TIP3    H223748   7.156   4.732   3.958
 7938TIP3   OH223749   7.950   4.914   3.995
 7938TIP3    H123750   7.890   4.858   3.943
 7938TIP3    H223751   8.037   4.879   3.966
 7939TIP3   OH223752   8.207   5.427   3.584
 7939TIP3    H123753   8.110   5.434   3.593
 7939TIP3    H223754   8.236   5.484   3.658
 7940TIP3   OH223755   8.300   5.332   2.395
 7940TIP3    H123756   8.315   5.278   2.473
 7940TIP3    H223757   8.335   5.279   2.322
 7941TIP3   OH223758   8.308   4.957   3.235
 7941TIP3    H123759   8.213   4.935   3.245
 7941TIP3    H223760   8.342   4.872   3.203
 7942TIP3   OH223761   7.446   5.184   2.987
 7942TIP3    H123762   7.445   5.265   2.932
 7942TIP3    H223763   7.352   5.167   2.997
 7943TIP3   OH223764   7.011   4.486   2.694
 7943TIP3    H123765   7.055   4.571   2.714
 7943TIP3    H223766   6.932   4.491   2.753
 7944TIP3   OH223767   7.577   4.947   2.928
 7944TIP3    H123768   7.544   5.037   2.947
 7944TIP3    H223769   7.541   4.897   3.004
 7945TIP3   OH223770   7.716   5.525   3.453
 7945TIP3    H123771   7.756   5.598   3.403
 7945TIP3    H223772   7.793   5.490   3.500
 7946TIP3   OH223773   7.363   5.422   2.838
 7946TIP3    H123774   7.277   5.431   2.884
 7946TIP3    H223775   7.395   5.515   2.841
 7947TIP3   OH223776   8.098   5.160   3.416
 7947TIP3    H123777   8.086   5.158   3.513
 7947TIP3    H223778   8.183   5.114   3.406
 7948TIP3   OH223779   8.059   5.054   2.310
 7948TIP3    H123780   8.118   5.028   2.384
 7948TIP3    H223781   7.972   5.031   2.347
 7949TIP3   OH223782   8.352   5.691   3.460
 7949TIP3    H123783   8.270   5.638   3.452
 7949TIP3    H223784   8.336   5.758   3.390
 7950TIP3   OH223785   7.434   4.304   3.981
 7950TIP3    H123786   7.337   4.304   3.993
 7950TIP3    H223787   7.463   4.247   4.054
 7951TIP3   OH223788   8.232   4.975   2.511
 7951TIP3    H123789   8.223   4.909   2.582
 7951TIP3    H223790   8.301   5.032   2.546
 7952TIP3   OH223791   7.151   5.389   3.613
 7952TIP3    H123792   7.207   5.317   3.648
 7952TIP3    H223793   7.181   5.464   3.666
 7953TIP3   OH223794   7.440   5.034   2.297
 7953TIP3    H123795   7.454   4.941   2.270
 7953TIP3    H223796   7.420   5.023   2.392
 7954TIP3   OH223797   7.385   5.039   2.569
 7954TIP3    H123798   7.459   5.013   2.625
 7954TIP3    H223799   7.388   5.137   2.576
 7955TIP3   OH223800   7.120   4.731   2.774
 7955TIP3    H123801   7.053   4.776   2.829
 7955TIP3    H223802   7.133   4.799   2.705
 7956TIP3   OH223803   8.271   4.395   3.671
 7956TIP3    H123804   8.361   4.412   3.702
 7956TIP3    H223805   8.249   4.309   3.715
 7957TIP3   OH223806   8.131   4.131   2.839
 7957TIP3    H123807   8.132   4.144   2.743
 7957TIP3    H223808   8.179   4.210   2.873
 7958TIP3   OH223809   7.653   5.234   2.517
 7958TIP3    H123810   7.566   5.260   2.552
 7958TIP3    H223811   7.671   5.308   2.458
 7959TIP3   OH223812   7.834   4.303   2.931
 7959TIP3    H123813   7.902   4.372   2.916
 7959TIP3    H223814   7.840   4.292   3.028
 7960TIP3   OH223815   8.107   4.614   3.738
 7960TIP3    H123816   8.139   4.662   3.816
 7960TIP3    H223817   8.169   4.538   3.732
 7961TIP3   OH223818   7.978   4.010   3.029
 7961TIP3    H123819   8.007   4.060   3.109
 7961TIP3    H223820   8.033   4.055   2.961
 7962TIP3   OH223821   7.399   5.311   2.587
 7962TIP3    H123822   7.369   5.381   2.524
 7962TIP3    H223823   7.383   5.355   2.673
 7963TIP3   OH223824   7.497   4.025   2.823
 7963TIP3    H123825   7.493   4.116   2.860
 7963TIP3    H223826   7.594   4.009   2.830
 7964TIP3   OH223827   8.396   4.697   3.142
 7964TIP3    H123828   8.311   4.658   3.114
 7964TIP3    H223829   8.406   4.653   3.229
 7965TIP3   OH223830   7.116   4.936   2.578
 7965TIP3    H123831   7.186   5.004   2.586
 7965TIP3    H223832   7.158   4.878   2.510
 7966TIP3   OH223833   7.056   4.214   2.711
 7966TIP3    H123834   7.059   4.312   2.710
 7966TIP3    H223835   6.972   4.198   2.666
 7967TIP3   OH223836   8.387   5.673   3.051
 7967TIP3    H123837   8.342   5.722   2.978
 7967TIP3    H223838   8.479   5.678   3.021
 7968TIP3   OH223839   7.446   3.936   3.582
 7968TIP3    H123840   7.416   3.903   3.495
 7968TIP3    H223841   7.435   3.857   3.639
 7969TIP3   OH223842   6.983   5.156   2.962
 7969TIP3    H123843   6.917   5.185   3.027
 7969TIP3    H223844   6.949   5.199   2.880
 7970TIP3   OH223845   7.145   5.703   4.037
 7970TIP3    H123846   7.232   5.705   4.084
 7970TIP3    H223847   7.127   5.607   4.035
 7971TIP3   OH223848   7.619   5.656   4.084
 7971TIP3    H123849   7.715   5.645   4.087
 7971TIP3    H223850   7.596   5.595   4.010
 7972TIP3   OH223851   7.604   5.236   2.206
 7972TIP3    H123852   7.550   5.163   2.245
 7972TIP3    H223853   7.680   5.187   2.171
 7973TIP3   OH223854   8.255   5.571   3.816
 7973TIP3    H123855   8.254   5.499   3.884
 7973TIP3    H223856   8.333   5.623   3.843
 7974TIP3   OH223857   8.033   5.278   2.117
 7974TIP3    H123858   8.081   5.222   2.180
 7974TIP3    H223859   8.088   5.274   2.036
 7975TIP3   OH223860   7.272   5.104   4.237
 7975TIP3    H123861   7.288   5.008   4.241
 7975TIP3    H223862   7.185   5.107   4.191
 7976TIP3   OH223863   7.251   4.751   2.432
 7976TIP3    H123864   7.309   4.721   2.505
 7976TIP3    H223865   7.317   4.756   2.359
 7977TIP3   OH223866   7.879   5.191   4.011
 7977TIP3    H123867   7.840   5.212   3.923
 7977TIP3    H223868   7.910   5.099   3.998
 7978TIP3   OH223869   7.760   4.952   2.239
 7978TIP3    H123870   7.763   4.964   2.336
 7978TIP3    H223871   7.764   4.854   2.233
 7979TIP3   OH223872   8.373   5.198   3.622
 7979TIP3    H123873   8.452   5.236   3.577
 7979TIP3    H223874   8.308   5.270   3.604
 7980TIP3   OH223875   7.391   4.839   4.222
 7980TIP3    H123876   7.471   4.795   4.190
 7980TIP3    H223877   7.420   4.871   4.310
 7981TIP3   OH223878   7.456   4.660   2.650
 7981TIP3    H123879   7.429   4.619   2.734
 7981TIP3    H223880   7.493   4.583   2.601
 7982TIP3   OH223881   7.727   4.720   3.879
 7982TIP3    H123882   7.651   4.782   3.881
 7982TIP3    H223883   7.778   4.755   3.802
 7983TIP3   OH223884   7.560   4.454   2.491
 7983TIP3    H123885   7.534   4.460   2.397
 7983TIP3    H223886   7.658   4.458   2.483
 7984TIP3   OH223887   8.247   5.125   4.013
 7984TIP3    H123888   8.318   5.095   3.955
 7984TIP3    H223889   8.241   5.055   4.079
 7985TIP3   OH223890   7.851   4.512   4.004
 7985TIP3    H123891   7.852   4.434   3.945
 7985TIP3    H223892   7.809   4.580   3.947
 7986TIP3   OH223893   7.852   4.298   3.816
 7986TIP3    H123894   7.882   4.341   3.733
 7986TIP3    H223895   7.759   4.277   3.794
 7987TIP3   OH223896   7.878   4.833   3.689
 7987TIP3    H123897   7.964   4.843   3.645
 7987TIP3    H223898   7.824   4.899   3.641
 7988TIP3   OH223899   8.466   4.803   4.071
 7988TIP3    H123900   8.506   4.717   4.055
 7988TIP3    H223901   8.527   4.863   4.025
 7989TIP3   OH223902   8.506   5.052   3.811
 7989TIP3    H123903   8.456   5.107   3.746
 7989TIP3    H223904   8.589   5.037   3.759
 7990TIP3   OH223905   7.731   4.617   4.240
 7990TIP3    H123906   7.662   4.549   4.253
 7990TIP3    H223907   7.764   4.594   4.150
 7991TIP3   OH223908   7.973   4.060   3.890
 7991TIP3    H123909   7.922   4.141   3.866
 7991TIP3    H223910   7.905   3.991   3.875
 7992TIP3   OH223911   8.111   4.560   4.096
 7992TIP3    H123912   8.093   4.547   4.191
 7992TIP3    H223913   8.022   4.539   4.060
 7993TIP3   OH223914   8.356   4.525   3.953
 7993TIP3    H123915   8.274   4.522   4.006
 7993TIP3    H223916   8.419   4.477   4.011
 7994TIP3   OH223917   8.548   4.420   4.116
 7994TIP3    H123918   8.609   4.347   4.135
 7994TIP3    H223919   8.562   4.480   4.191
 7995TIP3   OH223920   7.565   4.399   4.293
 7995TIP3    H123921   7.572   4.307   4.259
 7995TIP3    H223922   7.604   4.388   4.383
 7996TIP3   OH223923   8.075   4.068   4.144
 7996TIP3    H123924   8.135   3.991   4.137
 7996TIP3    H223925   8.035   4.068   4.055
 7997TIP3   OH223926   8.146   4.285   4.300
 7997TIP3    H123927   8.124   4.215   4.235
 7997TIP3    H223928   8.069   4.346   4.293
 7998TIP3   OH223929   7.369   5.514   2.399
 7998TIP3    H123930   7.464   5.505   2.380
 7998TIP3    H223931   7.341   5.565   2.321
 7999TIP3   OH223932   6.847   4.896   2.612
 7999TIP3    H123933   6.942   4.917   2.599
 7999TIP3    H223934   6.840   4.808   2.571
 8000TIP3   OH223935   6.762   5.508   3.030
 8000TIP3    H123936   6.696   5.446   2.991
 8000TIP3    H223937   6.807   5.448   3.094
 8001TIP3   OH223938   6.897   5.354   3.215
 8001TIP3    H123939   6.883   5.284   3.281
 8001TIP3    H223940   6.950   5.417   3.267
 8002TIP3   OH223941   8.683   5.758   3.285
 8002TIP3    H123942   8.634   5.673   3.281
 8002TIP3    H223943   8.682   5.774   3.380
 8003TIP3   OH223944   8.671   5.474   3.875
 8003TIP3    H123945   8.600   5.474   3.943
 8003TIP3    H223946   8.705   5.565   3.878
 8004TIP3   OH223947   8.533   5.523   3.320
 8004TIP3    H123948   8.464   5.568   3.374
 8004TIP3    H223949   8.478   5.477   3.254
 8005TIP3   OH223950   8.434   4.659   2.833
 8005TIP3    H123951   8.523   4.618   2.842
 8005TIP3    H223952   8.433   4.709   2.917
 8006TIP3   OH223953   7.082   4.764   3.591
 8006TIP3    H123954   7.079   4.731   3.498
 8006TIP3    H223955   7.179   4.767   3.605
 8007TIP3   OH223956   7.298   4.449   4.254
 8007TIP3    H123957   7.396   4.446   4.261
 8007TIP3    H223958   7.276   4.364   4.296
 8008TIP3   OH223959   7.263   4.145   3.596
 8008TIP3    H123960   7.326   4.071   3.602
 8008TIP3    H223961   7.324   4.220   3.585
 8009TIP3   OH223962   7.064   4.417   3.665
 8009TIP3    H123963   7.112   4.410   3.580
 8009TIP3    H223964   7.090   4.504   3.695
 8010TIP3   OH223965   7.048   3.919   3.164
 8010TIP3    H123966   6.955   3.917   3.192
 8010TIP3    H223967   7.044   3.979   3.086
 8011TIP3   OH223968   8.201   5.628   2.674
 8011TIP3    H123969   8.250   5.617   2.589
 8011TIP3    H223970   8.259   5.690   2.721
 8012TIP3   OH223971   7.270   3.999   3.978
 8012TIP3    H123972   7.221   3.999   4.061
 8012TIP3    H223973   7.205   4.039   3.917
 8013TIP3   OH223974   7.308   5.430   4.054
 8013TIP3    H123975   7.215   5.406   4.039
 8013TIP3    H223976   7.318   5.415   4.149
 8014TIP3   OH223977   7.490   5.466   3.604
 8014TIP3    H123978   7.442   5.542   3.565
 8014TIP3    H223979   7.575   5.478   3.558
 8015TIP3   OH223980   7.928   5.707   3.741
 8015TIP3    H123981   7.971   5.707   3.829
 8015TIP3    H223982   7.994   5.757   3.688
 8016TIP3   OH223983   8.107   5.860   3.603
 8016TIP3    H123984   8.179   5.814   3.556
 8016TIP3    H223985   8.159   5.918   3.662
 8017TIP3   OH223986   7.162   5.718   3.630
 8017TIP3    H123987   7.072   5.749   3.607
 8017TIP3    H223988   7.178   5.769   3.711
 8018TIP3   OH223989   7.398   5.698   3.487
 8018TIP3    H123990   7.311   5.710   3.530
 8018TIP3    H223991   7.380   5.730   3.397
 8019TIP3   OH223992   7.823   5.725   3.285
 8019TIP3    H123993   7.755   5.746   3.219
 8019TIP3    H223994   7.838   5.812   3.327
 8020TIP3   OH223995   8.092   5.658   3.339
 8020TIP3    H123996   8.000   5.683   3.318
 8020TIP3    H223997   8.142   5.731   3.296
 8021TIP3   OH223998   8.273   5.842   3.243
 8021TIP3    H123999   8.277   5.934   3.207
 8021TIP3    H224000   8.317   5.792   3.171
 8022TIP3   OH224001   7.073   5.511   3.371
 8022TIP3    H124002   7.100   5.484   3.462
 8022TIP3    H224003   7.146   5.470   3.320
 8023TIP3   OH224004   7.270   5.386   3.232
 8023TIP3    H124005   7.285   5.301   3.281
 8023TIP3    H224006   7.361   5.422   3.229
 8024TIP3   OH224007   7.536   5.477   3.237
 8024TIP3    H124008   7.567   5.385   3.225
 8024TIP3    H224009   7.585   5.501   3.318
 8025TIP3   OH224010   8.061   4.102   3.278
 8025TIP3    H124011   8.049   4.049   3.358
 8025TIP3    H224012   8.159   4.098   3.266
 8026TIP3   OH224013   7.358   3.842   3.335
 8026TIP3    H124014   7.265   3.810   3.335
 8026TIP3    H224015   7.406   3.756   3.331
 8027TIP3   OH224016   7.152   3.714   2.987
 8027TIP3    H124017   7.178   3.771   2.913
 8027TIP3    H224018   7.120   3.781   3.052
 8028TIP3   OH224019   7.805   3.874   3.217
 8028TIP3    H124020   7.857   3.921   3.149
 8028TIP3    H224021   7.837   3.916   3.298
 8029TIP3   OH224022   8.313   4.006   3.198
 8029TIP3    H124023   8.340   3.984   3.108
 8029TIP3    H224024   8.312   3.918   3.241
 8030TIP3   OH224025   6.862   5.288   2.760
 8030TIP3    H124026   6.776   5.255   2.728
 8030TIP3    H224027   6.853   5.382   2.736
 8031TIP3   OH224028   7.265   3.871   2.748
 8031TIP3    H124029   7.314   3.809   2.689
 8031TIP3    H224030   7.338   3.926   2.783
 8032TIP3   OH224031   7.774   4.051   2.844
 8032TIP3    H124032   7.835   4.007   2.906
 8032TIP3    H224033   7.792   4.145   2.868
 8033TIP3   OH224034   7.635   5.468   2.348
 8033TIP3    H124035   7.723   5.492   2.311
 8033TIP3    H224036   7.613   5.394   2.286
 8034TIP3   OH224037   8.331   5.598   2.438
 8034TIP3    H124038   8.329   5.500   2.427
 8034TIP3    H224039   8.311   5.626   2.347
 8035TIP3   OH224040   7.565   4.122   4.226
 8035TIP3    H124041   7.531   4.051   4.284
 8035TIP3    H224042   7.659   4.123   4.253
 8036TIP3   OH224043   7.814   4.122   4.345
 8036TIP3    H124044   7.900   4.099   4.306
 8036TIP3    H224045   7.803   4.051   4.411
 8037TIP3   OH224046   6.938   5.307   2.400
 8037TIP3    H124047   6.942   5.327   2.494
 8037TIP3    H224048   7.026   5.264   2.384
 8038TIP3   OH224049   8.564   5.742   3.640
 8038TIP3    H124050   8.495   5.709   3.579
 8038TIP3    H224051   8.550   5.838   3.634
 8039TIP3   OH224052   0.504   5.643   4.591
 8039TIP3    H124053   0.467   5.733   4.598
 8039TIP3    H224054   0.432   5.598   4.542
 8040TIP3   OH224055   0.519   5.625   4.966
 8040TIP3    H124056   0.543   5.603   5.057
 8040TIP3    H224057   0.470   5.546   4.939
 8041TIP3   OH224058   0.747   5.943   4.660
 8041TIP3    H124059   0.737   5.877   4.730
 8041TIP3    H224060   0.776   6.021   4.710
 8042TIP3   OH224061   0.444   6.425   4.659
 8042TIP3    H124062   0.492   6.343   4.639
 8042TIP3    H224063   0.377   6.394   4.723
 8043TIP3   OH224064   0.327   5.831   5.040
 8043TIP3    H124065   0.362   5.760   4.983
 8043TIP3    H224066   0.409   5.883   5.055
 8044TIP3   OH224067   1.315   5.185   5.023
 8044TIP3    H124068   1.345   5.268   5.066
 8044TIP3    H224069   1.339   5.203   4.930
 8045TIP3   OH224070   0.711   5.366   5.058
 8045TIP3    H124071   0.755   5.280   5.076
 8045TIP3    H224072   0.680   5.351   4.966
 8046TIP3   OH224073   0.747   5.122   4.642
 8046TIP3    H124074   0.819   5.106   4.708
 8046TIP3    H224075   0.800   5.154   4.567
 8047TIP3   OH224076   1.388   5.392   5.194
 8047TIP3    H124077   1.304   5.440   5.177
 8047TIP3    H224078   1.412   5.427   5.281
 8048TIP3   OH224079   0.367   5.875   4.475
 8048TIP3    H124080   0.359   5.828   4.391
 8048TIP3    H224081   0.447   5.931   4.458
 8049TIP3   OH224082   0.953   5.124   4.819
 8049TIP3    H124083   0.943   5.074   4.900
 8049TIP3    H224084   1.005   5.201   4.848
 8050TIP3   OH224085   0.811   6.184   4.819
 8050TIP3    H124086   0.721   6.178   4.859
 8050TIP3    H224087   0.808   6.273   4.779
 8051TIP3   OH224088   1.108   5.083   5.187
 8051TIP3    H124089   1.021   5.111   5.154
 8051TIP3    H224090   1.169   5.116   5.118
 8052TIP3   OH224091   0.410   4.713   5.159
 8052TIP3    H124092   0.403   4.617   5.177
 8052TIP3    H224093   0.359   4.749   5.233
 8053TIP3   OH224094   0.511   6.210   4.482
 8053TIP3    H124095   0.560   6.128   4.460
 8053TIP3    H224096   0.574   6.278   4.448
 8054TIP3   OH224097   0.629   5.976   4.412
 8054TIP3    H124098   0.668   5.913   4.346
 8054TIP3    H224099   0.685   5.959   4.491
 8055TIP3   OH224100   1.039   6.096   5.170
 8055TIP3    H124101   1.029   6.020   5.108
 8055TIP3    H224102   1.021   6.172   5.111
 8056TIP3   OH224103   0.333   5.511   4.428
 8056TIP3    H124104   0.252   5.457   4.449
 8056TIP3    H224105   0.354   5.484   4.337
 8057TIP3   OH224106   0.308   5.283   4.138
 8057TIP3    H124107   0.382   5.332   4.179
 8057TIP3    H224108   0.359   5.215   4.089
 8058TIP3   OH224109   1.235   5.735   5.013
 8058TIP3    H124110   1.152   5.788   5.017
 8058TIP3    H224111   1.267   5.759   4.924
 8059TIP3   OH224112   0.682   5.573   4.395
 8059TIP3    H124113   0.628   5.597   4.475
 8059TIP3    H224114   0.766   5.546   4.438
 8060TIP3   OH224115   0.916   5.612   5.315
 8060TIP3    H124116   0.915   5.695   5.366
 8060TIP3    H224117   0.832   5.619   5.267
 8061TIP3   OH224118   0.569   6.183   4.939
 8061TIP3    H124119   0.552   6.266   4.988
 8061TIP3    H224120   0.558   6.114   5.007
 8062TIP3   OH224121   0.521   5.431   4.223
 8062TIP3    H124122   0.577   5.492   4.277
 8062TIP3    H224123   0.549   5.456   4.132
 8063TIP3   OH224124   1.039   4.669   4.274
 8063TIP3    H124125   0.956   4.690   4.322
 8063TIP3    H224126   1.051   4.752   4.222
 8064TIP3   OH224127   0.838   6.040   3.824
 8064TIP3    H124128   0.845   6.136   3.805
 8064TIP3    H224129   0.931   6.011   3.809
 8065TIP3   OH224130   1.277   6.445   5.218
 8065TIP3    H124131   1.276   6.348   5.232
 8065TIP3    H224132   1.194   6.470   5.263
 8066TIP3   OH224133   0.347   6.260   3.938
 8066TIP3    H124134   0.407   6.190   3.908
 8066TIP3    H224135   0.367   6.266   4.034
 8067TIP3   OH224136   0.395   6.310   4.217
 8067TIP3    H124137   0.332   6.312   4.291
 8067TIP3    H224138   0.478   6.293   4.264
 8068TIP3   OH224139   1.165   5.572   5.493
 8068TIP3    H124140   1.087   5.582   5.438
 8068TIP3    H224141   1.184   5.476   5.483
 8069TIP3   OH224142   0.707   4.922   5.493
 8069TIP3    H124143   0.777   4.891   5.555
 8069TIP3    H224144   0.624   4.900   5.541
 8070TIP3   OH224145   0.929   5.345   5.407
 8070TIP3    H124146   0.884   5.345   5.494
 8070TIP3    H224147   0.912   5.436   5.374
 8071TIP3   OH224148   0.594   5.476   3.967
 8071TIP3    H124149   0.560   5.453   3.879
 8071TIP3    H224150   0.680   5.518   3.943
 8072TIP3   OH224151   0.295   4.865   4.241
 8072TIP3    H124152   0.285   4.864   4.340
 8072TIP3    H224153   0.269   4.772   4.224
 8073TIP3   OH224154   0.476   5.301   4.564
 8073TIP3    H124155   0.424   5.372   4.522
 8073TIP3    H224156   0.525   5.264   4.488
 8074TIP3   OH224157   0.672   5.561   5.636
 8074TIP3    H124158   0.647   5.488   5.697
 8074TIP3    H224159   0.767   5.571   5.660
 8075TIP3   OH224160   0.625   5.318   4.799
 8075TIP3    H124161   0.565   5.346   4.727
 8075TIP3    H224162   0.662   5.238   4.755
 8076TIP3   OH224163   0.631   5.564   5.222
 8076TIP3    H124164   0.669   5.496   5.161
 8076TIP3    H224165   0.606   5.504   5.297
 8077TIP3   OH224166   0.320   5.025   4.880
 8077TIP3    H124167   0.229   5.045   4.907
 8077TIP3    H224168   0.370   5.031   4.963
 8078TIP3   OH224169   0.797   5.104   5.100
 8078TIP3    H124170   0.761   5.117   5.191
 8078TIP3    H224171   0.732   5.040   5.065
 8079TIP3   OH224172   0.975   6.789   5.315
 8079TIP3    H124173   0.969   6.816   5.222
 8079TIP3    H224174   1.051   6.842   5.346
 8080TIP3   OH224175   0.403   5.348   4.989
 8080TIP3    H124176   0.474   5.314   4.931
 8080TIP3    H224177   0.423   5.305   5.074
 8081TIP3   OH224178   0.393   5.239   5.279
 8081TIP3    H124179   0.327   5.311   5.275
 8081TIP3    H224180   0.465   5.285   5.327
 8082TIP3   OH224181   1.002   5.880   5.001
 8082TIP3    H124182   1.028   5.931   4.921
 8082TIP3    H224183   0.918   5.839   4.972
 8083TIP3   OH224184   0.556   4.956   4.240
 8083TIP3    H124185   0.459   4.941   4.244
 8083TIP3    H224186   0.566   5.049   4.269
 8084TIP3   OH224187   0.486   5.960   5.369
 8084TIP3    H124188   0.525   5.963   5.458
 8084TIP3    H224189   0.437   6.046   5.367
 8085TIP3   OH224190   0.628   5.203   4.344
 8085TIP3    H124191   0.725   5.207   4.360
 8085TIP3    H224192   0.613   5.284   4.291
 8086TIP3   OH224193   0.240   5.794   4.206
 8086TIP3    H124194   0.179   5.869   4.207
 8086TIP3    H224195   0.188   5.728   4.256
 8087TIP3   OH224196   0.451   5.684   5.734
 8087TIP3    H124197   0.412   5.601   5.706
 8087TIP3    H224198   0.540   5.675   5.695
 8088TIP3   OH224199   0.663   6.212   5.267
 8088TIP3    H124200   0.568   6.227   5.276
 8088TIP3    H224201   0.697   6.267   5.341
 8089TIP3   OH224202   1.069   5.297   4.177
 8089TIP3    H124203   1.007   5.253   4.114
 8089TIP3    H224204   1.066   5.386   4.136
 8090TIP3   OH224205   1.290   6.153   5.257
 8090TIP3    H124206   1.192   6.147   5.248
 8090TIP3    H224207   1.317   6.124   5.167
 8091TIP3   OH224208   0.771   6.113   4.085
 8091TIP3    H124209   0.748   6.034   4.136
 8091TIP3    H224210   0.787   6.077   3.996
 8092TIP3   OH224211   0.772   5.743   4.914
 8092TIP3    H124212   0.680   5.716   4.929
 8092TIP3    H224213   0.808   5.662   4.871
 8093TIP3   OH224214   0.567   5.947   5.105
 8093TIP3    H124215   0.554   5.954   5.202
 8093TIP3    H224216   0.654   5.906   5.100
 8094TIP3   OH224217   0.538   5.842   3.986
 8094TIP3    H124218   0.580   5.818   4.072
 8094TIP3    H224219   0.448   5.809   3.998
 8095TIP3   OH224220   0.805   6.477   5.148
 8095TIP3    H124221   0.722   6.426   5.140
 8095TIP3    H224222   0.789   6.546   5.079
 8096TIP3   OH224223   0.868   6.314   3.804
 8096TIP3    H124224   0.906   6.387   3.753
 8096TIP3    H224225   0.789   6.360   3.839
 8097TIP3   OH224226   0.696   5.784   4.217
 8097TIP3    H124227   0.685   5.707   4.278
 8097TIP3    H224228   0.791   5.774   4.194
 8098TIP3   OH224229   0.719   5.163   5.361
 8098TIP3    H124230   0.806   5.199   5.385
 8098TIP3    H224231   0.716   5.079   5.412
 8099TIP3   OH224232   0.614   4.901   4.524
 8099TIP3    H124233   0.590   4.925   4.433
 8099TIP3    H224234   0.649   4.986   4.559
 8100TIP3   OH224235   0.287   5.104   4.620
 8100TIP3    H124236   0.358   5.170   4.609
 8100TIP3    H224237   0.292   5.085   4.716
 8101TIP3   OH224238   0.574   5.397   5.428
 8101TIP3    H124239   0.607   5.451   5.503
 8101TIP3    H224240   0.631   5.318   5.432
 8102TIP3   OH224241   0.447   4.810   4.740
 8102TIP3    H124242   0.420   4.895   4.781
 8102TIP3    H224243   0.498   4.843   4.662
 8103TIP3   OH224244   1.197   5.307   5.412
 8103TIP3    H124245   1.099   5.303   5.413
 8103TIP3    H224246   1.216   5.265   5.327
 8104TIP3   OH224247   0.854   5.499   4.797
 8104TIP3    H124248   0.777   5.440   4.810
 8104TIP3    H224249   0.925   5.451   4.846
 8105TIP3   OH224250   0.825   6.451   4.747
 8105TIP3    H124251   0.782   6.498   4.672
 8105TIP3    H224252   0.919   6.471   4.727
 8106TIP3   OH224253   0.730   6.348   5.490
 8106TIP3    H124254   0.709   6.294   5.570
 8106TIP3    H224255   0.793   6.413   5.526
 8107TIP3   OH224256   0.496   6.065   3.812
 8107TIP3    H124257   0.539   5.998   3.868
 8107TIP3    H224258   0.549   6.062   3.730
 8108TIP3   OH224259   0.236   5.745   3.932
 8108TIP3    H124260   0.228   5.756   4.028
 8108TIP3    H224261   0.226   5.647   3.923
 8109TIP3   OH224262   0.823   5.989   5.306
 8109TIP3    H124263   0.901   6.029   5.263
 8109TIP3    H224264   0.758   6.061   5.292
 8110TIP3   OH224265   0.044   5.259   4.225
 8110TIP3    H124266   0.022   5.256   4.129
 8110TIP3    H224267   0.142   5.258   4.219
 8111TIP3   OH224268   0.689   5.913   5.712
 8111TIP3    H124269   0.761   5.886   5.653
 8111TIP3    H224270   0.697   5.848   5.784
 8112TIP3   OH224271   0.829   5.567   3.851
 8112TIP3    H124272   0.811   5.524   3.765
 8112TIP3    H224273   0.799   5.659   3.828
 8113TIP3   OH224274   0.272   5.037   5.428
 8113TIP3    H124275   0.323   5.101   5.372
 8113TIP3    H224276   0.227   5.098   5.489
 8114TIP3   OH224277   0.386   5.679   5.332
 8114TIP3    H124278   0.476   5.656   5.302
 8114TIP3    H224279   0.376   5.767   5.288
 8115TIP3   OH224280   0.924   5.582   5.754
 8115TIP3    H124281   0.974   5.500   5.766
 8115TIP3    H224282   0.992   5.640   5.715
 8116TIP3   OH224283   0.953   5.842   5.493
 8116TIP3    H124284   0.897   5.898   5.433
 8116TIP3    H224285   1.041   5.862   5.455
 8117TIP3   OH224286   0.446   4.853   5.564
 8117TIP3    H124287   0.385   4.921   5.527
 8117TIP3    H224288   0.394   4.772   5.546
 8118TIP3   OH224289   0.570   5.360   5.796
 8118TIP3    H124290   0.602   5.358   5.888
 8118TIP3    H224291   0.485   5.313   5.804
 8119TIP3   OH224292   0.805   5.299   5.642
 8119TIP3    H124293   0.733   5.296   5.707
 8119TIP3    H224294   0.882   5.271   5.696
 8120TIP3   OH224295   1.024   5.242   5.796
 8120TIP3    H124296   1.044   5.147   5.810
 8120TIP3    H224297   1.026   5.278   5.887
 8121TIP3   OH224298   0.536   4.859   5.825
 8121TIP3    H124299   0.603   4.787   5.819
 8121TIP3    H224300   0.497   4.854   5.736
 8122TIP3   OH224301   0.608   5.065   5.985
 8122TIP3    H124302   0.591   4.993   5.920
 8122TIP3    H224303   0.528   5.120   5.974
 8123TIP3   OH224304   1.081   6.537   4.708
 8123TIP3    H124305   1.103   6.575   4.795
 8123TIP3    H224306   1.133   6.592   4.648
 8124TIP3   OH224307   1.107   6.567   4.990
 8124TIP3    H124308   1.062   6.479   4.984
 8124TIP3    H224309   1.181   6.543   5.047
 8125TIP3   OH224310   1.157   6.245   5.559
 8125TIP3    H124311   1.085   6.255   5.624
 8125TIP3    H224312   1.199   6.333   5.563
 8126TIP3   OH224313   0.968   5.756   4.179
 8126TIP3    H124314   1.035   5.821   4.148
 8126TIP3    H224315   1.015   5.718   4.257
 8127TIP3   OH224316   1.096   5.624   4.382
 8127TIP3    H124317   1.031   5.582   4.443
 8127TIP3    H224318   1.164   5.659   4.444
 8128TIP3   OH224319   1.152   6.017   4.814
 8128TIP3    H124320   1.206   5.951   4.767
 8128TIP3    H224321   1.151   6.092   4.751
 8129TIP3   OH224322   0.981   6.314   5.009
 8129TIP3    H124323   0.911   6.361   5.058
 8129TIP3    H224324   0.930   6.270   4.938
 8130TIP3   OH224325   1.034   5.532   4.029
 8130TIP3    H124326   0.961   5.534   3.962
 8130TIP3    H224327   1.007   5.609   4.084
 8131TIP3   OH224328   0.902   5.204   3.984
 8131TIP3    H124329   0.861   5.239   3.904
 8131TIP3    H224330   0.881   5.109   3.975
 8132TIP3   OH224331   0.908   5.481   4.527
 8132TIP3    H124332   0.917   5.385   4.521
 8132TIP3    H224333   0.894   5.495   4.624
 8133TIP3   OH224334   1.198   5.906   5.388
 8133TIP3    H124335   1.270   5.839   5.377
 8133TIP3    H224336   1.224   5.975   5.325
 8134TIP3   OH224337   1.380   5.707   5.397
 8134TIP3    H124338   1.307   5.656   5.438
 8134TIP3    H224339   1.455   5.645   5.412
 8135TIP3   OH224340   0.848   4.938   3.967
 8135TIP3    H124341   0.921   4.906   4.023
 8135TIP3    H224342   0.775   4.878   3.989
 8136TIP3   OH224343   0.906   5.197   4.420
 8136TIP3    H124344   0.947   5.109   4.435
 8136TIP3    H224345   0.964   5.231   4.349
 8137TIP3   OH224346   1.066   5.368   4.919
 8137TIP3    H124347   1.151   5.393   4.877
 8137TIP3    H224348   1.082   5.406   5.008
 8138TIP3   OH224349   1.138   5.515   5.150
 8138TIP3    H124350   1.061   5.551   5.198
 8138TIP3    H224351   1.171   5.596   5.104
 8139TIP3   OH224352   1.576   5.101   5.701
 8139TIP3    H124353   1.645   5.042   5.665
 8139TIP3    H224354   1.558   5.161   5.626
 8140TIP3   OH224355   1.015   4.948   4.461
 8140TIP3    H124356   1.062   4.930   4.545
 8140TIP3    H224357   0.953   4.872   4.458
 8141TIP3   OH224358   1.457   5.247   5.503
 8141TIP3    H124359   1.370   5.286   5.524
 8141TIP3    H224360   1.428   5.169   5.451
 8142TIP3   OH224361   1.093   4.879   4.096
 8142TIP3    H124362   1.132   4.809   4.039
 8142TIP3    H224363   1.159   4.950   4.091
 8143TIP3   OH224364   0.657   6.399   4.361
 8143TIP3    H124365   0.716   6.403   4.283
 8143TIP3    H224366   0.690   6.475   4.414
 8144TIP3   OH224367   0.553   6.634   5.306
 8144TIP3    H124368   0.616   6.581   5.256
 8144TIP3    H224369   0.614   6.694   5.355
 8145TIP3   OH224370   1.358   5.006   5.391
 8145TIP3    H124371   1.268   4.995   5.357
 8145TIP3    H224372   1.394   4.915   5.380
 8146TIP3   OH224373   0.543   6.456   5.032
 8146TIP3    H124374   0.456   6.492   5.056
 8146TIP3    H224375   0.578   6.530   4.978
 8147TIP3   OH224376   0.759   6.647   4.937
 8147TIP3    H124377   0.740   6.731   4.889
 8147TIP3    H224378   0.779   6.586   4.863
 8148TIP3   OH224379   0.577   4.924   5.026
 8148TIP3    H124380   0.525   4.847   5.057
 8148TIP3    H224381   0.638   4.882   4.962
 8149TIP3   OH224382   1.083   4.806   4.914
 8149TIP3    H124383   1.118   4.856   4.838
 8149TIP3    H224384   0.987   4.821   4.906
 8150TIP3   OH224385   1.181   4.899   4.676
 8150TIP3    H124386   1.256   4.849   4.638
 8150TIP3    H224387   1.214   4.991   4.663
 8151TIP3   OH224388   0.274   4.659   4.912
 8151TIP3    H124389   0.322   4.709   4.843
 8151TIP3    H224390   0.320   4.688   4.992
 8152TIP3   OH224391   0.801   4.810   4.888
 8152TIP3    H124392   0.795   4.768   4.801
 8152TIP3    H224393   0.789   4.733   4.948
 8153TIP3   OH224394   0.833   4.735   4.453
 8153TIP3    H124395   0.748   4.781   4.472
 8153TIP3    H224396   0.817   4.649   4.497
 8154TIP3   OH224397   0.274   4.850   4.508
 8154TIP3    H124398   0.263   4.793   4.585
 8154TIP3    H224399   0.263   4.939   4.547
 8155TIP3   OH224400   0.807   6.382   4.130
 8155TIP3    H124401   0.798   6.285   4.115
 8155TIP3    H224402   0.764   6.417   4.050
 8156TIP3   OH224403   1.096   4.974   5.825
 8156TIP3    H124404   1.118   4.941   5.914
 8156TIP3    H224405   1.184   4.971   5.780
 8157TIP3   OH224406   1.028   6.520   5.318
 8157TIP3    H124407   0.951   6.491   5.266
 8157TIP3    H224408   1.012   6.617   5.320
 8158TIP3   OH224409   2.301   5.899   4.077
 8158TIP3    H124410   2.268   5.989   4.055
 8158TIP3    H224411   2.225   5.846   4.046
 8159TIP3   OH224412   2.300   5.897   4.467
 8159TIP3    H124413   2.335   5.873   4.555
 8159TIP3    H224414   2.258   5.814   4.440
 8160TIP3   OH224415   1.594   5.788   4.830
 8160TIP3    H124416   1.625   5.720   4.894
 8160TIP3    H224417   1.673   5.843   4.824
 8161TIP3   OH224418   2.548   6.199   4.145
 8161TIP3    H124419   2.526   6.130   4.210
 8161TIP3    H224420   2.569   6.274   4.203
 8162TIP3   OH224421   1.570   6.201   4.549
 8162TIP3    H124422   1.561   6.103   4.550
 8162TIP3    H224423   1.667   6.209   4.546
 8163TIP3   OH224424   1.275   5.401   4.333
 8163TIP3    H124425   1.228   5.485   4.352
 8163TIP3    H224426   1.203   5.351   4.289
 8164TIP3   OH224427   1.332   5.690   4.512
 8164TIP3    H124428   1.383   5.613   4.547
 8164TIP3    H224429   1.395   5.729   4.451
 8165TIP3   OH224430   2.194   6.663   4.162
 8165TIP3    H124431   2.237   6.589   4.113
 8165TIP3    H224432   2.180   6.623   4.249
 8166TIP3   OH224433   2.096   6.123   4.510
 8166TIP3    H124434   2.136   6.045   4.468
 8166TIP3    H224435   2.178   6.169   4.536
 8167TIP3   OH224436   3.114   5.451   4.505
 8167TIP3    H124437   3.145   5.527   4.560
 8167TIP3    H224438   3.099   5.495   4.420
 8168TIP3   OH224439   2.511   5.624   4.539
 8168TIP3    H124440   2.552   5.538   4.562
 8168TIP3    H224441   2.477   5.605   4.450
 8169TIP3   OH224442   1.849   5.283   4.507
 8169TIP3    H124443   1.831   5.356   4.444
 8169TIP3    H224444   1.800   5.210   4.464
 8170TIP3   OH224445   2.543   5.375   4.127
 8170TIP3    H124446   2.615   5.360   4.193
 8170TIP3    H224447   2.596   5.409   4.053
 8171TIP3   OH224448   1.480   5.484   4.616
 8171TIP3    H124449   1.564   5.466   4.664
 8171TIP3    H224450   1.495   5.430   4.536
 8172TIP3   OH224451   1.920   5.682   4.411
 8172TIP3    H124452   2.015   5.658   4.424
 8172TIP3    H224453   1.883   5.598   4.379
 8173TIP3   OH224454   3.183   5.653   4.677
 8173TIP3    H124455   3.096   5.696   4.663
 8173TIP3    H224456   3.197   5.671   4.771
 8174TIP3   OH224457   1.844   5.266   4.942
 8174TIP3    H124458   1.785   5.304   4.875
 8174TIP3    H224459   1.791   5.284   5.023
 8175TIP3   OH224460   2.191   6.120   3.946
 8175TIP3    H124461   2.146   6.100   3.862
 8175TIP3    H224462   2.144   6.201   3.974
 8176TIP3   OH224463   1.950   6.042   4.733
 8176TIP3    H124464   1.889   6.111   4.770
 8176TIP3    H224465   1.993   6.091   4.660
 8177TIP3   OH224466   2.748   5.381   4.305
 8177TIP3    H124467   2.736   5.330   4.387
 8177TIP3    H224468   2.796   5.459   4.337
 8178TIP3   OH224469   1.715   5.382   4.726
 8178TIP3    H124470   1.777   5.455   4.749
 8178TIP3    H224471   1.766   5.341   4.651
 8179TIP3   OH224472   1.780   6.239   4.833
 8179TIP3    H124473   1.754   6.326   4.798
 8179TIP3    H224474   1.701   6.221   4.889
 8180TIP3   OH224475   1.168   5.927   4.071
 8180TIP3    H124476   1.130   5.954   3.985
 8180TIP3    H224477   1.199   6.013   4.106
 8181TIP3   OH224478   2.603   6.440   4.304
 8181TIP3    H124479   2.519   6.423   4.353
 8181TIP3    H224480   2.584   6.528   4.268
 8182TIP3   OH224481   2.904   5.351   4.675
 8182TIP3    H124482   2.814   5.373   4.643
 8182TIP3    H224483   2.960   5.376   4.600
 8183TIP3   OH224484   2.194   4.986   4.652
 8183TIP3    H124485   2.182   4.892   4.678
 8183TIP3    H224486   2.119   5.027   4.700
 8184TIP3   OH224487   2.313   6.488   3.985
 8184TIP3    H124488   2.362   6.405   3.965
 8184TIP3    H224489   2.374   6.553   3.943
 8185TIP3   OH224490   2.457   6.272   3.895
 8185TIP3    H124491   2.410   6.194   3.863
 8185TIP3    H224492   2.496   6.239   3.978
 8186TIP3   OH224493   2.837   6.353   4.655
 8186TIP3    H124494   2.824   6.275   4.597
 8186TIP3    H224495   2.820   6.427   4.594
 8187TIP3   OH224496   2.129   5.748   3.916
 8187TIP3    H124497   2.049   5.800   3.893
 8187TIP3    H224498   2.174   5.744   3.829
 8188TIP3   OH224499   2.088   5.535   3.624
 8188TIP3    H124500   2.155   5.585   3.674
 8188TIP3    H224501   2.145   5.472   3.577
 8189TIP3   OH224502   3.033   5.991   4.497
 8189TIP3    H124503   2.949   6.042   4.504
 8189TIP3    H224504   3.063   6.017   4.408
 8190TIP3   OH224505   2.478   5.833   3.881
 8190TIP3    H124506   2.423   5.857   3.959
 8190TIP3    H224507   2.561   5.806   3.926
 8191TIP3   OH224508   2.711   5.868   4.800
 8191TIP3    H124509   2.709   5.951   4.853
 8191TIP3    H224510   2.625   5.874   4.755
 8192TIP3   OH224511   1.710   5.827   4.301
 8192TIP3    H124512   1.669   5.769   4.234
 8192TIP3    H224513   1.786   5.773   4.332
 8193TIP3   OH224514   1.840   6.241   4.447
 8193TIP3    H124515   1.820   6.204   4.360
 8193TIP3    H224516   1.929   6.205   4.465
 8194TIP3   OH224517   1.842   5.800   4.655
 8194TIP3    H124518   1.877   5.775   4.567
 8194TIP3    H224519   1.887   5.885   4.673
 8195TIP3   OH224520   2.371   6.435   4.436
 8195TIP3    H124521   2.358   6.515   4.489
 8195TIP3    H224522   2.354   6.363   4.500
 8196TIP3   OH224523   1.985   6.354   4.978
 8196TIP3    H124524   1.925   6.416   5.025
 8196TIP3    H224525   1.920   6.302   4.928
 8197TIP3   OH224526   2.314   5.689   3.714
 8197TIP3    H124527   2.374   5.749   3.764
 8197TIP3    H224528   2.341   5.712   3.621
 8198TIP3   OH224529   1.739   5.911   5.084
 8198TIP3    H124530   1.744   6.000   5.125
 8198TIP3    H224531   1.644   5.891   5.096
 8199TIP3   OH224532   2.064   6.364   3.984
 8199TIP3    H124533   2.143   6.420   3.997
 8199TIP3    H224534   2.001   6.426   3.943
 8200TIP3   OH224535   1.779   6.517   5.066
 8200TIP3    H124536   1.743   6.522   4.975
 8200TIP3    H224537   1.698   6.499   5.119
 8201TIP3   OH224538   2.834   4.927   3.760
 8201TIP3    H124539   2.751   4.949   3.809
 8201TIP3    H224540   2.847   5.008   3.707
 8202TIP3   OH224541   1.577   5.672   4.103
 8202TIP3    H124542   1.507   5.716   4.050
 8202TIP3    H224543   1.538   5.584   4.116
 8203TIP3   OH224544   2.632   6.297   3.306
 8203TIP3    H124545   2.637   6.395   3.293
 8203TIP3    H224546   2.725   6.272   3.291
 8204TIP3   OH224547   1.355   6.055   5.014
 8204TIP3    H124548   1.289   6.034   4.945
 8204TIP3    H224549   1.394   5.968   5.036
 8205TIP3   OH224550   1.209   6.246   4.648
 8205TIP3    H124551   1.306   6.247   4.640
 8205TIP3    H224552   1.194   6.328   4.698
 8206TIP3   OH224553   3.085   6.698   4.715
 8206TIP3    H124554   3.078   6.602   4.730
 8206TIP3    H224555   2.996   6.726   4.747
 8207TIP3   OH224556   2.180   6.486   4.836
 8207TIP3    H124557   2.177   6.578   4.869
 8207TIP3    H224558   2.109   6.445   4.891
 8208TIP3   OH224559   1.946   6.614   3.788
 8208TIP3    H124560   1.896   6.595   3.707
 8208TIP3    H224561   1.910   6.700   3.815
 8209TIP3   OH224562   1.381   6.462   4.173
 8209TIP3    H124563   1.428   6.453   4.260
 8209TIP3    H224564   1.323   6.384   4.175
 8210TIP3   OH224565   2.144   6.517   3.427
 8210TIP3    H124566   2.201   6.446   3.391
 8210TIP3    H224567   2.178   6.526   3.518
 8211TIP3   OH224568   2.196   6.564   3.696
 8211TIP3    H124569   2.107   6.575   3.736
 8211TIP3    H224570   2.244   6.521   3.769
 8212TIP3   OH224571   2.966   5.830   4.976
 8212TIP3    H124572   2.880   5.839   4.932
 8212TIP3    H224573   2.982   5.734   4.968
 8213TIP3   OH224574   1.562   6.237   4.997
 8213TIP3    H124575   1.610   6.223   5.081
 8213TIP3    H224576   1.487   6.175   5.006
 8214TIP3   OH224577   1.960   5.061   4.789
 8214TIP3    H124578   1.871   5.032   4.761
 8214TIP3    H224579   1.935   5.143   4.838
 8215TIP3   OH224580   2.496   5.175   4.981
 8215TIP3    H124581   2.567   5.148   5.044
 8215TIP3    H224582   2.414   5.155   5.031
 8216TIP3   OH224583   2.731   5.607   4.901
 8216TIP3    H124584   2.682   5.602   4.986
 8216TIP3    H224585   2.706   5.694   4.866
 8217TIP3   OH224586   2.398   5.741   3.464
 8217TIP3    H124587   2.355   5.719   3.380
 8217TIP3    H224588   2.482   5.781   3.433
 8218TIP3   OH224589   2.103   5.109   3.758
 8218TIP3    H124590   2.070   5.105   3.850
 8218TIP3    H224591   2.064   5.026   3.724
 8219TIP3   OH224592   1.891   5.578   4.804
 8219TIP3    H124593   1.843   5.598   4.887
 8219TIP3    H224594   1.875   5.659   4.752
 8220TIP3   OH224595   1.776   5.464   4.318
 8220TIP3    H124596   1.683   5.437   4.337
 8220TIP3    H224597   1.788   5.422   4.230
 8221TIP3   OH224598   2.266   5.548   4.049
 8221TIP3    H124599   2.215   5.619   4.004
 8221TIP3    H224600   2.321   5.514   3.975
 8222TIP3   OH224601   2.441   5.824   5.130
 8222TIP3    H124602   2.418   5.752   5.192
 8222TIP3    H224603   2.535   5.839   5.153
 8223TIP3   OH224604   2.423   5.575   4.283
 8223TIP3    H124605   2.359   5.601   4.213
 8223TIP3    H224606   2.459   5.494   4.239
 8224TIP3   OH224607   1.711   5.605   5.014
 8224TIP3    H124608   1.746   5.667   5.080
 8224TIP3    H224609   1.701   5.523   5.066
 8225TIP3   OH224610   1.761   5.083   3.723
 8225TIP3    H124611   1.752   5.083   3.821
 8225TIP3    H224612   1.684   5.137   3.697
 8226TIP3   OH224613   1.304   5.124   4.596
 8226TIP3    H124614   1.378   5.160   4.650
 8226TIP3    H224615   1.347   5.101   4.513
 8227TIP3   OH224616   1.269   5.106   4.113
 8227TIP3    H124617   1.314   5.144   4.035
 8227TIP3    H224618   1.209   5.180   4.134
 8228TIP3   OH224619   2.433   5.821   4.705
 8228TIP3    H124620   2.467   5.750   4.646
 8228TIP3    H224621   2.404   5.767   4.782
 8229TIP3   OH224622   2.108   5.288   4.379
 8229TIP3    H124623   2.029   5.283   4.435
 8229TIP3    H224624   2.180   5.276   4.444
 8230TIP3   OH224625   1.537   5.343   4.386
 8230TIP3    H124626   1.443   5.349   4.358
 8230TIP3    H224627   1.563   5.252   4.362
 8231TIP3   OH224628   1.802   5.335   4.078
 8231TIP3    H124629   1.896   5.351   4.058
 8231TIP3    H224630   1.756   5.358   3.994
 8232TIP3   OH224631   2.598   5.362   4.582
 8232TIP3    H124632   2.566   5.374   4.675
 8232TIP3    H224633   2.530   5.301   4.548
 8233TIP3   OH224634   1.652   5.371   3.852
 8233TIP3    H124635   1.583   5.325   3.802
 8233TIP3    H224636   1.705   5.409   3.779
 8234TIP3   OH224637   2.770   7.050   4.809
 8234TIP3    H124638   2.765   7.089   4.721
 8234TIP3    H224639   2.850   7.094   4.845
 8235TIP3   OH224640   1.722   6.159   5.222
 8235TIP3    H124641   1.803   6.189   5.269
 8235TIP3    H224642   1.658   6.160   5.295
 8236TIP3   OH224643   2.186   5.617   4.479
 8236TIP3    H124644   2.256   5.573   4.429
 8236TIP3    H224645   2.189   5.572   4.565
 8237TIP3   OH224646   1.702   5.101   4.359
 8237TIP3    H124647   1.671   5.021   4.406
 8237TIP3    H224648   1.763   5.064   4.294
 8238TIP3   OH224649   2.162   5.515   4.764
 8238TIP3    H124650   2.072   5.550   4.781
 8238TIP3    H224651   2.219   5.575   4.816
 8239TIP3   OH224652   1.899   5.900   3.861
 8239TIP3    H124653   1.826   5.835   3.849
 8239TIP3    H224654   1.879   5.934   3.952
 8240TIP3   OH224655   2.798   6.135   4.489
 8240TIP3    H124656   2.821   6.186   4.409
 8240TIP3    H224657   2.713   6.093   4.464
 8241TIP3   OH224658   2.356   5.208   3.734
 8241TIP3    H124659   2.259   5.191   3.738
 8241TIP3    H224660   2.364   5.304   3.753
 8242TIP3   OH224661   2.299   6.221   4.859
 8242TIP3    H124662   2.329   6.201   4.949
 8242TIP3    H224663   2.258   6.308   4.869
 8243TIP3   OH224664   2.424   5.461   3.831
 8243TIP3    H124665   2.521   5.467   3.843
 8243TIP3    H224666   2.405   5.540   3.777
 8244TIP3   OH224667   1.591   5.921   4.535
 8244TIP3    H124668   1.631   5.895   4.450
 8244TIP3    H224669   1.639   5.865   4.598
 8245TIP3   OH224670   2.044   6.051   3.686
 8245TIP3    H124671   1.996   6.136   3.690
 8245TIP3    H224672   1.989   5.995   3.745
 8246TIP3   OH224673   1.475   5.844   5.152
 8246TIP3    H124674   1.496   5.831   5.246
 8246TIP3    H224675   1.407   5.776   5.137
 8247TIP3   OH224676   2.201   5.961   5.169
 8247TIP3    H124677   2.142   5.899   5.123
 8247TIP3    H224678   2.289   5.925   5.142
 8248TIP3   OH224679   2.455   6.486   4.750
 8248TIP3    H124680   2.360   6.481   4.768
 8248TIP3    H224681   2.486   6.532   4.831
 8249TIP3   OH224682   2.866   5.553   3.664
 8249TIP3    H124683   2.803   5.509   3.602
 8249TIP3    H224684   2.864   5.642   3.622
 8250TIP3   OH224685   3.087   6.407   4.745
 8250TIP3    H124686   2.989   6.402   4.736
 8250TIP3    H224687   3.113   6.379   4.655
 8251TIP3   OH224688   2.576   6.369   3.576
 8251TIP3    H124689   2.540   6.302   3.637
 8251TIP3    H224690   2.581   6.321   3.491
 8252TIP3   OH224691   2.565   6.001   4.402
 8252TIP3    H124692   2.472   5.975   4.419
 8252TIP3    H224693   2.598   5.919   4.361
 8253TIP3   OH224694   1.693   6.228   4.162
 8253TIP3    H124695   1.690   6.310   4.108
 8253TIP3    H224696   1.600   6.212   4.176
 8254TIP3   OH224697   1.259   5.531   3.869
 8254TIP3    H124698   1.303   5.616   3.890
 8254TIP3    H224699   1.181   5.536   3.929
 8255TIP3   OH224700   1.826   5.992   4.104
 8255TIP3    H124701   1.792   6.081   4.123
 8255TIP3    H224702   1.791   5.942   4.180
 8256TIP3   OH224703   1.964   6.569   4.631
 8256TIP3    H124704   2.005   6.642   4.582
 8256TIP3    H224705   2.040   6.534   4.681
 8257TIP3   OH224706   1.611   6.465   4.015
 8257TIP3    H124707   1.525   6.475   4.061
 8257TIP3    H224708   1.644   6.558   4.018
 8258TIP3   OH224709   2.348   6.204   4.592
 8258TIP3    H124710   2.336   6.205   4.690
 8258TIP3    H224711   2.427   6.149   4.583
 8259TIP3   OH224712   2.329   6.101   3.470
 8259TIP3    H124713   2.381   6.074   3.549
 8259TIP3    H224714   2.241   6.069   3.496
 8260TIP3   OH224715   2.604   6.731   4.640
 8260TIP3    H124716   2.528   6.669   4.642
 8260TIP3    H224717   2.578   6.792   4.568
 8261TIP3   OH224718   2.662   6.572   3.291
 8261TIP3    H124719   2.699   6.645   3.239
 8261TIP3    H224720   2.582   6.618   3.326
 8262TIP3   OH224721   1.684   5.348   5.157
 8262TIP3    H124722   1.587   5.349   5.171
 8262TIP3    H224723   1.714   5.294   5.232
 8263TIP3   OH224724   2.488   6.031   3.685
 8263TIP3    H124725   2.476   5.966   3.757
 8263TIP3    H224726   2.585   6.029   3.676
 8264TIP3   OH224727   1.403   6.431   4.788
 8264TIP3    H124728   1.457   6.360   4.825
 8264TIP3    H224729   1.427   6.505   4.847
 8265TIP3   OH224730   1.691   6.078   3.474
 8265TIP3    H124731   1.702   5.984   3.447
 8265TIP3    H224732   1.670   6.068   3.569
 8266TIP3   OH224733   1.634   6.083   3.745
 8266TIP3    H124734   1.707   6.057   3.803
 8266TIP3    H224735   1.637   6.181   3.753
 8267TIP3   OH224736   1.367   5.775   3.951
 8267TIP3    H124737   1.301   5.821   4.007
 8267TIP3    H224738   1.381   5.844   3.882
 8268TIP3   OH224739   2.524   5.411   4.841
 8268TIP3    H124740   2.603   5.451   4.882
 8268TIP3    H224741   2.511   5.330   4.895
 8269TIP3   OH224742   2.403   5.160   4.010
 8269TIP3    H124743   2.389   5.182   3.915
 8269TIP3    H224744   2.443   5.243   4.044
 8270TIP3   OH224745   1.902   6.281   3.694
 8270TIP3    H124746   1.815   6.305   3.730
 8270TIP3    H224747   1.916   6.355   3.633
 8271TIP3   OH224748   2.085   5.346   4.109
 8271TIP3    H124749   2.150   5.417   4.092
 8271TIP3    H224750   2.093   5.336   4.207
 8272TIP3   OH224751   2.361   5.660   4.914
 8272TIP3    H124752   2.385   5.713   4.993
 8272TIP3    H224753   2.414   5.579   4.927
 8273TIP3   OH224754   2.234   5.064   4.208
 8273TIP3    H124755   2.233   5.140   4.269
 8273TIP3    H224756   2.296   5.098   4.139
 8274TIP3   OH224757   1.648   6.355   3.764
 8274TIP3    H124758   1.618   6.426   3.701
 8274TIP3    H224759   1.631   6.398   3.850
 8275TIP3   OH224760   1.746   5.069   3.999
 8275TIP3    H124761   1.742   5.159   4.038
 8275TIP3    H224762   1.843   5.054   4.007
 8276TIP3   OH224763   2.996   5.560   4.892
 8276TIP3    H124764   2.898   5.564   4.905
 8276TIP3    H224765   2.999   5.501   4.815
 8277TIP3   OH224766   2.651   5.754   4.284
 8277TIP3    H124767   2.572   5.697   4.296
 8277TIP3    H224768   2.719   5.706   4.335
 8278TIP3   OH224769   1.364   5.980   3.754
 8278TIP3    H124770   1.432   6.049   3.762
 8278TIP3    H224771   1.408   5.923   3.687
 8279TIP3   OH224772   1.305   5.259   3.890
 8279TIP3    H124773   1.308   5.357   3.887
 8279TIP3    H224774   1.226   5.241   3.838
 8280TIP3   OH224775   2.618   6.715   4.232
 8280TIP3    H124776   2.576   6.768   4.161
 8280TIP3    H224777   2.697   6.682   4.187
 8281TIP3   OH224778   1.694   4.983   4.762
 8281TIP3    H124779   1.663   4.950   4.676
 8281TIP3    H224780   1.687   4.904   4.819
 8282TIP3   OH224781   1.227   6.193   4.138
 8282TIP3    H124782   1.168   6.230   4.206
 8282TIP3    H224783   1.194   6.241   4.057
 8283TIP3   OH224784   1.394   6.748   5.212
 8283TIP3    H124785   1.479   6.751   5.261
 8283TIP3    H224786   1.377   6.652   5.211
 8284TIP3   OH224787   1.860   6.699   5.264
 8284TIP3    H124788   1.956   6.709   5.266
 8284TIP3    H224789   1.849   6.636   5.190
 8285TIP3   OH224790   1.853   6.280   3.383
 8285TIP3    H124791   1.797   6.209   3.423
 8285TIP3    H224792   1.928   6.228   3.350
 8286TIP3   OH224793   2.516   6.609   4.986
 8286TIP3    H124794   2.506   6.541   5.057
 8286TIP3    H224795   2.591   6.663   5.020
 8287TIP3   OH224796   2.288   6.320   3.301
 8287TIP3    H124797   2.326   6.251   3.359
 8287TIP3    H224798   2.345   6.316   3.221
 8288TIP3   OH224799   1.521   6.149   5.414
 8288TIP3    H124800   1.538   6.053   5.419
 8288TIP3    H224801   1.434   6.151   5.368
 8289TIP3   OH224802   1.500   5.795   3.609
 8289TIP3    H124803   1.558   5.765   3.682
 8289TIP3    H224804   1.567   5.800   3.537
 8290TIP3   OH224805   2.128   6.235   5.188
 8290TIP3    H124806   2.087   6.255   5.101
 8290TIP3    H224807   2.160   6.143   5.177
 8291TIP3   OH224808   2.020   5.998   3.416
 8291TIP3    H124809   2.017   6.010   3.513
 8291TIP3    H224810   2.018   5.900   3.410
 8292TIP3   OH224811   2.620   6.246   4.792
 8292TIP3    H124812   2.696   6.292   4.751
 8292TIP3    H224813   2.550   6.311   4.778
 8293TIP3   OH224814   1.641   5.882   5.396
 8293TIP3    H124815   1.721   5.835   5.368
 8293TIP3    H224816   1.668   5.915   5.484
 8294TIP3   OH224817   1.704   5.704   3.825
 8294TIP3    H124818   1.679   5.664   3.910
 8294TIP3    H224819   1.742   5.628   3.777
 8295TIP3   OH224820   1.973   5.764   5.054
 8295TIP3    H124821   1.897   5.827   5.057
 8295TIP3    H224822   2.025   5.800   4.978
 8296TIP3   OH224823   1.810   5.499   3.668
 8296TIP3    H124824   1.784   5.505   3.574
 8296TIP3    H224825   1.908   5.502   3.660
 8297TIP3   OH224826   2.492   6.168   5.188
 8297TIP3    H124827   2.573   6.139   5.145
 8297TIP3    H224828   2.486   6.106   5.263
 8298TIP3   OH224829   2.632   5.825   3.326
 8298TIP3    H124830   2.620   5.790   3.232
 8298TIP3    H224831   2.596   5.917   3.310
 8299TIP3   OH224832   2.098   5.557   5.182
 8299TIP3    H124833   2.100   5.478   5.124
 8299TIP3    H224834   2.054   5.623   5.124
 8300TIP3   OH224835   2.103   5.343   4.989
 8300TIP3    H124836   2.131   5.384   4.905
 8300TIP3    H224837   2.009   5.320   4.971
 8301TIP3   OH224838   2.124   5.876   4.863
 8301TIP3    H124839   2.211   5.888   4.822
 8301TIP3    H224840   2.069   5.942   4.817
 8302TIP3   OH224841   2.705   5.843   5.240
 8302TIP3    H124842   2.751   5.763   5.269
 8302TIP3    H224843   2.779   5.897   5.207
 8303TIP3   OH224844   2.751   6.097   4.977
 8303TIP3    H124845   2.693   6.152   4.920
 8303TIP3    H224846   2.839   6.118   4.938
 8304TIP3   OH224847   1.975   5.664   5.414
 8304TIP3    H124848   1.909   5.594   5.430
 8304TIP3    H224849   2.011   5.636   5.327
 8305TIP3   OH224850   2.233   5.105   5.061
 8305TIP3    H124851   2.185   5.187   5.037
 8305TIP3    H224852   2.164   5.037   5.049
 8306TIP3   OH224853   2.360   5.608   5.273
 8306TIP3    H124854   2.349   5.593   5.369
 8306TIP3    H224855   2.270   5.584   5.243
 8307TIP3   OH224856   2.597   5.555   5.128
 8307TIP3    H124857   2.523   5.558   5.192
 8307TIP3    H224858   2.672   5.526   5.184
 8308TIP3   OH224859   2.830   5.498   5.272
 8308TIP3    H124860   2.842   5.403   5.293
 8308TIP3    H224861   2.822   5.539   5.361
 8309TIP3   OH224862   1.815   5.443   5.470
 8309TIP3    H124863   1.823   5.351   5.438
 8309TIP3    H224864   1.855   5.433   5.559
 8310TIP3   OH224865   2.325   5.115   5.321
 8310TIP3    H124866   2.394   5.046   5.313
 8310TIP3    H224867   2.287   5.111   5.231
 8311TIP3   OH224868   2.397   5.334   5.475
 8311TIP3    H124869   2.374   5.261   5.412
 8311TIP3    H224870   2.317   5.391   5.470
 8312TIP3   OH224871   1.617   6.558   3.576
 8312TIP3    H124872   1.712   6.551   3.554
 8312TIP3    H224873   1.587   6.610   3.499
 8313TIP3   OH224874   1.095   5.940   3.790
 8313TIP3    H124875   1.190   5.961   3.775
 8313TIP3    H224876   1.089   5.852   3.747
 8314TIP3   OH224877   1.014   6.551   4.206
 8314TIP3    H124878   0.945   6.493   4.168
 8314TIP3    H224879   1.055   6.491   4.271
 8315TIP3   OH224880   1.149   6.395   4.391
 8315TIP3    H124881   1.133   6.329   4.460
 8315TIP3    H224882   1.199   6.461   4.442
 8316TIP3   OH224883   2.948   6.500   5.046
 8316TIP3    H124884   2.877   6.509   5.113
 8316TIP3    H224885   2.991   6.588   5.052
 8317TIP3   OH224886   2.768   6.013   3.666
 8317TIP3    H124887   2.835   6.078   3.639
 8317TIP3    H224888   2.810   5.974   3.746
 8318TIP3   OH224889   2.893   5.880   3.871
 8318TIP3    H124890   2.827   5.837   3.929
 8318TIP3    H224891   2.959   5.914   3.935
 8319TIP3   OH224892   2.949   6.273   4.302
 8319TIP3    H124893   3.005   6.205   4.259
 8319TIP3    H224894   2.922   6.330   4.228
 8320TIP3   OH224895   2.778   6.562   4.489
 8320TIP3    H124896   2.719   6.620   4.540
 8320TIP3    H224897   2.717   6.521   4.425
 8321TIP3   OH224898   2.834   5.789   3.517
 8321TIP3    H124899   2.758   5.788   3.452
 8321TIP3    H224900   2.805   5.863   3.574
 8322TIP3   OH224901   2.696   5.468   3.471
 8322TIP3    H124902   2.669   5.489   3.381
 8322TIP3    H224903   2.674   5.372   3.474
 8323TIP3   OH224904   2.706   5.737   4.014
 8323TIP3    H124905   2.711   5.641   4.005
 8323TIP3    H224906   2.690   5.749   4.110
 8324TIP3   OH224907   1.331   5.810   4.764
 8324TIP3    H124908   1.328   5.777   4.672
 8324TIP3    H224909   1.428   5.812   4.780
 8325TIP3   OH224910   2.996   6.162   4.873
 8325TIP3    H124911   3.068   6.095   4.862
 8325TIP3    H224912   3.025   6.233   4.813
 8326TIP3   OH224913   3.180   5.964   4.879
 8326TIP3    H124914   3.105   5.915   4.920
 8326TIP3    H224915   3.253   5.900   4.897
 8327TIP3   OH224916   2.639   5.205   3.472
 8327TIP3    H124917   2.716   5.162   3.514
 8327TIP3    H224918   2.570   5.136   3.473
 8328TIP3   OH224919   2.704   5.456   3.908
 8328TIP3    H124920   2.743   5.366   3.923
 8328TIP3    H224921   2.760   5.486   3.834
 8329TIP3   OH224922   2.863   5.621   4.406
 8329TIP3    H124923   2.946   5.652   4.364
 8329TIP3    H224924   2.875   5.661   4.495
 8330TIP3   OH224925   2.931   5.771   4.633
 8330TIP3    H124926   2.857   5.803   4.687
 8330TIP3    H224927   2.964   5.854   4.592
 8331TIP3   OH224928   1.550   5.497   5.433
 8331TIP3    H124929   1.648   5.493   5.440
 8331TIP3    H224930   1.527   5.411   5.473
 8332TIP3   OH224931   3.385   5.365   5.191
 8332TIP3    H124932   3.445   5.299   5.150
 8332TIP3    H224933   3.357   5.417   5.113
 8333TIP3   OH224934   2.809   5.205   3.948
 8333TIP3    H124935   2.857   5.186   4.032
 8333TIP3    H224936   2.748   5.128   3.945
 8334TIP3   OH224937   1.511   5.192   4.768
 8334TIP3    H124938   1.573   5.117   4.780
 8334TIP3    H224939   1.573   5.266   4.760
 8335TIP3   OH224940   1.310   5.462   4.839
 8335TIP3    H124941   1.362   5.459   4.755
 8335TIP3    H224942   1.340   5.546   4.876
 8336TIP3   OH224943   3.254   5.501   4.993
 8336TIP3    H124944   3.169   5.541   5.020
 8336TIP3    H224945   3.220   5.427   4.938
 8337TIP3   OH224946   2.893   5.134   3.584
 8337TIP3    H124947   2.927   5.064   3.524
 8337TIP3    H224948   2.957   5.206   3.571
 8338TIP3   OH224949   1.298   4.961   4.340
 8338TIP3    H124950   1.205   4.960   4.370
 8338TIP3    H224951   1.293   5.022   4.264
 8339TIP3   OH224952   2.462   6.668   3.849
 8339TIP3    H124953   2.511   6.656   3.765
 8339TIP3    H224954   2.508   6.744   3.888
 8340TIP3   OH224955   1.517   5.043   5.154
 8340TIP3    H124956   1.468   5.041   5.238
 8340TIP3    H224957   1.450   5.083   5.095
 8341TIP3   OH224958   1.557   6.474   5.228
 8341TIP3    H124959   1.462   6.451   5.217
 8341TIP3    H224960   1.570   6.461   5.322
 8342TIP3   OH224961   1.737   6.508   4.779
 8342TIP3    H124962   1.689   6.585   4.741
 8342TIP3    H224963   1.823   6.522   4.734
 8343TIP3   OH224964   2.176   6.752   4.915
 8343TIP3    H124965   2.217   6.751   5.004
 8343TIP3    H224966   2.242   6.805   4.865
 8344TIP3   OH224967   2.359   6.905   4.777
 8344TIP3    H124968   2.432   6.849   4.745
 8344TIP3    H224969   2.408   6.963   4.839
 8345TIP3   OH224970   3.157   5.261   4.874
 8345TIP3    H124971   3.065   5.243   4.848
 8345TIP3    H224972   3.194   5.169   4.867
 8346TIP3   OH224973   1.412   6.768   4.803
 8346TIP3    H124974   1.320   6.796   4.784
 8346TIP3    H224975   1.425   6.811   4.889
 8347TIP3   OH224976   1.648   6.744   4.664
 8347TIP3    H124977   1.561   6.755   4.708
 8347TIP3    H224978   1.628   6.774   4.573
 8348TIP3   OH224979   2.072   6.768   4.461
 8348TIP3    H124980   2.001   6.787   4.397
 8348TIP3    H224981   2.084   6.855   4.504
 8349TIP3   OH224982   2.341   6.710   4.507
 8349TIP3    H124983   2.245   6.722   4.491
 8349TIP3    H224984   2.376   6.795   4.476
 8350TIP3   OH224985   2.563   6.903   4.429
 8350TIP3    H124986   2.545   6.986   4.380
 8350TIP3    H224987   2.580   6.839   4.355
 8351TIP3   OH224988   1.323   6.556   4.546
 8351TIP3    H124989   1.348   6.528   4.637
 8351TIP3    H224990   1.397   6.514   4.497
 8352TIP3   OH224991   1.520   6.429   4.407
 8352TIP3    H124992   1.534   6.345   4.457
 8352TIP3    H224993   1.611   6.465   4.405
 8353TIP3   OH224994   1.787   6.522   4.413
 8353TIP3    H124995   1.815   6.429   4.403
 8353TIP3    H224996   1.834   6.544   4.495
 8354TIP3   OH224997   2.355   5.178   4.491
 8354TIP3    H124998   2.315   5.107   4.545
 8354TIP3    H224999   2.432   5.133   4.450
 8355TIP3   OH225000   2.875   5.065   4.402
 8355TIP3    H125001   2.910   5.112   4.323
 8355TIP3    H225002   2.779   5.080   4.393
 8356TIP3   OH225003   2.976   5.162   4.164
 8356TIP3    H125004   3.045   5.104   4.125
 8356TIP3    H225005   3.019   5.249   4.156
 8357TIP3   OH225006   1.607   4.883   4.516
 8357TIP3    H125007   1.512   4.856   4.516
 8357TIP3    H225008   1.649   4.797   4.529
 8358TIP3   OH225009   1.411   4.758   4.167
 8358TIP3    H125010   1.431   4.814   4.091
 8358TIP3    H225011   1.373   4.823   4.230
 8359TIP3   OH225012   2.037   4.948   4.385
 8359TIP3    H125013   2.105   4.982   4.325
 8359TIP3    H225014   2.078   4.960   4.472
 8360TIP3   OH225015   2.590   5.063   4.378
 8360TIP3    H125016   2.602   5.020   4.292
 8360TIP3    H225017   2.581   4.985   4.438
 8361TIP3   OH225018   2.628   4.992   3.939
 8361TIP3    H125019   2.542   5.035   3.955
 8361TIP3    H225020   2.614   4.907   3.986
 8362TIP3   OH225021   1.110   6.334   3.939
 8362TIP3    H125022   1.024   6.303   3.904
 8362TIP3    H225023   1.104   6.428   3.915
 8363TIP3   OH225024   1.514   4.915   3.925
 8363TIP3    H125025   1.562   4.855   3.864
 8363TIP3    H225026   1.588   4.970   3.958
 8364TIP3   OH225027   2.023   5.094   4.023
 8364TIP3    H125028   2.083   5.050   4.085
 8364TIP3    H225029   2.043   5.188   4.047
 8365TIP3   OH225030   1.884   6.513   3.523
 8365TIP3    H125031   1.971   6.538   3.485
 8365TIP3    H225032   1.861   6.439   3.462
 8366TIP3   OH225033   2.605   6.637   3.615
 8366TIP3    H125034   2.597   6.539   3.603
 8366TIP3    H225035   2.558   6.669   3.536
 8367TIP3   OH225036   1.814   5.165   5.400
 8367TIP3    H125037   1.780   5.096   5.460
 8367TIP3    H225038   1.908   5.167   5.429
 8368TIP3   OH225039   2.062   5.164   5.521
 8368TIP3    H125040   2.150   5.143   5.486
 8368TIP3    H225041   2.051   5.096   5.590
 8369TIP3   OH225042   1.185   6.350   3.576
 8369TIP3    H125043   1.187   6.378   3.668
 8369TIP3    H225044   1.274   6.309   3.564
 8370TIP3   OH225045   2.891   5.229   5.309
 8370TIP3    H125046   2.909   5.199   5.401
 8370TIP3    H225047   2.980   5.223   5.269
 8371TIP3   OH225048   2.832   6.781   4.797
 8371TIP3    H125049   2.751   6.748   4.752
 8371TIP3    H225050   2.809   6.875   4.810
 8372TIP3   OH225051   4.096   6.153   3.566
 8372TIP3    H125052   4.064   6.244   3.545
 8372TIP3    H225053   4.020   6.101   3.532
 8373TIP3   OH225054   4.093   6.155   3.955
 8373TIP3    H125055   4.129   6.129   4.041
 8373TIP3    H225056   4.054   6.072   3.924
 8374TIP3   OH225057   3.389   6.045   4.317
 8374TIP3    H125058   3.419   5.976   4.379
 8374TIP3    H225059   3.469   6.100   4.311
 8375TIP3   OH225060   4.340   6.458   3.634
 8375TIP3    H125061   4.325   6.390   3.701
 8375TIP3    H225062   4.371   6.533   3.687
 8376TIP3   OH225063   3.360   6.459   4.039
 8376TIP3    H125064   3.356   6.360   4.039
 8376TIP3    H225065   3.457   6.471   4.031
 8377TIP3   OH225066   3.069   5.657   3.821
 8377TIP3    H125067   3.021   5.740   3.838
 8377TIP3    H225068   3.000   5.606   3.775
 8378TIP3   OH225069   3.131   5.945   4.001
 8378TIP3    H125070   3.180   5.867   4.035
 8378TIP3    H225071   3.192   5.979   3.935
 8379TIP3   OH225072   3.990   6.917   3.650
 8379TIP3    H125073   4.031   6.846   3.596
 8379TIP3    H225074   3.986   6.875   3.737
 8380TIP3   OH225075   3.891   6.380   3.999
 8380TIP3    H125076   3.933   6.303   3.956
 8380TIP3    H225077   3.974   6.427   4.024
 8381TIP3   OH225078   4.909   5.698   3.995
 8381TIP3    H125079   4.938   5.782   4.038
 8381TIP3    H225080   4.932   5.716   3.902
 8382TIP3   OH225081   4.304   5.879   4.028
 8382TIP3    H125082   4.348   5.794   4.048
 8382TIP3    H225083   4.272   5.861   3.937
 8383TIP3   OH225084   3.648   5.535   3.993
 8383TIP3    H125085   3.628   5.609   3.932
 8383TIP3    H225086   3.599   5.463   3.948
 8384TIP3   OH225087   4.339   5.633   3.615
 8384TIP3    H125088   4.411   5.618   3.680
 8384TIP3    H225089   4.392   5.666   3.539
 8385TIP3   OH225090   3.277   5.735   4.105
 8385TIP3    H125091   3.359   5.713   4.155
 8385TIP3    H225092   3.295   5.686   4.022
 8386TIP3   OH225093   3.716   5.939   3.898
 8386TIP3    H125094   3.811   5.915   3.909
 8386TIP3    H225095   3.679   5.854   3.866
 8387TIP3   OH225096   4.982   5.907   4.165
 8387TIP3    H125097   4.897   5.953   4.148
 8387TIP3    H225098   4.999   5.936   4.256
 8388TIP3   OH225099   3.604   5.478   4.416
 8388TIP3    H125100   3.563   5.539   4.352
 8388TIP3    H225101   3.568   5.513   4.501
 8389TIP3   OH225102   3.979   6.371   3.438
 8389TIP3    H125103   3.944   6.359   3.349
 8389TIP3    H225104   3.936   6.455   3.464
 8390TIP3   OH225105   3.746   6.298   4.220
 8390TIP3    H125106   3.687   6.368   4.256
 8390TIP3    H225107   3.791   6.346   4.147
 8391TIP3   OH225108   4.544   5.637   3.793
 8391TIP3    H125109   4.535   5.590   3.876
 8391TIP3    H225110   4.597   5.715   3.820
 8392TIP3   OH225111   3.515   5.641   4.211
 8392TIP3    H125112   3.578   5.713   4.234
 8392TIP3    H225113   3.564   5.598   4.137
 8393TIP3   OH225114   3.577   6.495   4.321
 8393TIP3    H125115   3.549   6.582   4.284
 8393TIP3    H225116   3.499   6.477   4.378
 8394TIP3   OH225117   2.968   6.189   3.559
 8394TIP3    H125118   2.923   6.224   3.480
 8394TIP3    H225119   3.002   6.271   3.600
 8395TIP3   OH225120   4.405   6.700   3.796
 8395TIP3    H125121   4.315   6.692   3.835
 8395TIP3    H225122   4.399   6.787   3.752
 8396TIP3   OH225123   4.701   5.599   4.160
 8396TIP3    H125124   4.613   5.626   4.128
 8396TIP3    H225125   4.761   5.631   4.090
 8397TIP3   OH225126   4.003   5.227   4.131
 8397TIP3    H125127   3.994   5.132   4.155
 8397TIP3    H225128   3.951   5.268   4.201
 8398TIP3   OH225129   4.103   6.744   3.466
 8398TIP3    H125130   4.155   6.662   3.448
 8398TIP3    H225131   4.166   6.810   3.427
 8399TIP3   OH225132   4.249   6.529   3.382
 8399TIP3    H125133   4.221   6.446   3.341
 8399TIP3    H225134   4.288   6.496   3.467
 8400TIP3   OH225135   4.633   6.609   4.143
 8400TIP3    H125136   4.621   6.533   4.082
 8400TIP3    H225137   4.615   6.685   4.083
 8401TIP3   OH225138   3.925   6.005   3.401
 8401TIP3    H125139   3.846   6.058   3.378
 8401TIP3    H225140   3.972   6.001   3.315
 8402TIP3   OH225141   3.883   5.793   3.112
 8402TIP3    H125142   3.952   5.843   3.161
 8402TIP3    H225143   3.940   5.729   3.065
 8403TIP3   OH225144   4.828   6.249   3.988
 8403TIP3    H125145   4.745   6.301   3.992
 8403TIP3    H225146   4.859   6.273   3.898
 8404TIP3   OH225147   4.273   6.088   3.369
 8404TIP3    H125148   4.219   6.112   3.447
 8404TIP3    H225149   4.357   6.062   3.412
 8405TIP3   OH225150   4.507   6.125   4.287
 8405TIP3    H125151   4.505   6.209   4.336
 8405TIP3    H225152   4.421   6.129   4.240
 8406TIP3   OH225153   3.505   6.084   3.790
 8406TIP3    H125154   3.464   6.025   3.723
 8406TIP3    H225155   3.582   6.031   3.820
 8407TIP3   OH225156   3.632   6.496   3.936
 8407TIP3    H125157   3.615   6.460   3.847
 8407TIP3    H225158   3.721   6.461   3.955
 8408TIP3   OH225159   3.637   6.057   4.141
 8408TIP3    H125160   3.673   6.031   4.054
 8408TIP3    H225161   3.684   6.141   4.160
 8409TIP3   OH225162   4.164   6.694   3.918
 8409TIP3    H125163   4.153   6.775   3.972
 8409TIP3    H225164   4.151   6.622   3.982
 8410TIP3   OH225165   3.781   6.611   4.467
 8410TIP3    H125166   3.718   6.673   4.512
 8410TIP3    H225167   3.717   6.556   4.417
 8411TIP3   OH225168   4.110   5.947   3.197
 8411TIP3    H125169   4.171   6.006   3.248
 8411TIP3    H225170   4.137   5.968   3.104
 8412TIP3   OH225171   3.535   6.168   4.569
 8412TIP3    H125172   3.540   6.255   4.613
 8412TIP3    H225173   3.440   6.147   4.583
 8413TIP3   OH225174   3.857   6.623   3.473
 8413TIP3    H125175   3.941   6.673   3.481
 8413TIP3    H225176   3.799   6.688   3.430
 8414TIP3   OH225177   3.576   6.775   4.552
 8414TIP3    H125178   3.537   6.776   4.462
 8414TIP3    H225179   3.497   6.756   4.608
 8415TIP3   OH225180   4.630   5.185   3.247
 8415TIP3    H125181   4.547   5.206   3.296
 8415TIP3    H225182   4.643   5.267   3.195
 8416TIP3   OH225183   3.370   5.928   3.595
 8416TIP3    H125184   3.302   5.970   3.539
 8416TIP3    H225185   3.338   5.837   3.601
 8417TIP3   OH225186   4.429   6.552   2.796
 8417TIP3    H125187   4.438   6.649   2.780
 8417TIP3    H225188   4.522   6.523   2.782
 8418TIP3   OH225189   3.154   6.313   4.499
 8418TIP3    H125190   3.084   6.288   4.435
 8418TIP3    H225191   3.191   6.226   4.525
 8419TIP3   OH225192   3.020   6.523   4.121
 8419TIP3    H125193   3.105   6.480   4.102
 8419TIP3    H225194   3.033   6.556   4.211
 8420TIP3   OH225195   4.872   6.958   4.192
 8420TIP3    H125196   4.870   6.862   4.206
 8420TIP3    H225197   4.788   6.984   4.236
 8421TIP3   OH225198   3.976   6.742   4.324
 8421TIP3    H125199   3.974   6.835   4.356
 8421TIP3    H225200   3.906   6.702   4.380
 8422TIP3   OH225201   3.739   6.867   3.277
 8422TIP3    H125202   3.694   6.850   3.192
 8422TIP3    H225203   3.707   6.956   3.301
 8423TIP3   OH225204   3.174   6.716   3.658
 8423TIP3    H125205   3.222   6.707   3.744
 8423TIP3    H225206   3.127   6.631   3.653
 8424TIP3   OH225207   3.939   6.772   2.914
 8424TIP3    H125208   3.997   6.701   2.877
 8424TIP3    H225209   3.975   6.782   3.004
 8425TIP3   OH225210   3.991   6.821   3.183
 8425TIP3    H125211   3.903   6.829   3.226
 8425TIP3    H225212   4.044   6.784   3.255
 8426TIP3   OH225213   4.759   6.086   4.465
 8426TIP3    H125214   4.677   6.095   4.413
 8426TIP3    H225215   4.776   5.990   4.456
 8427TIP3   OH225216   3.358   6.496   4.485
 8427TIP3    H125217   3.407   6.481   4.568
 8427TIP3    H225218   3.285   6.431   4.493
 8428TIP3   OH225219   4.294   5.433   4.469
 8428TIP3    H125220   4.364   5.404   4.532
 8428TIP3    H225221   4.212   5.413   4.517
 8429TIP3   OH225222   4.525   5.860   4.385
 8429TIP3    H125223   4.477   5.859   4.471
 8429TIP3    H225224   4.503   5.949   4.350
 8430TIP3   OH225225   4.189   5.989   2.942
 8430TIP3    H125226   4.154   5.966   2.854
 8430TIP3    H225227   4.274   6.032   2.918
 8431TIP3   OH225228   3.901   5.365   3.245
 8431TIP3    H125229   3.866   5.362   3.336
 8431TIP3    H225230   3.862   5.282   3.209
 8432TIP3   OH225231   3.690   5.836   4.293
 8432TIP3    H125232   3.638   5.854   4.374
 8432TIP3    H225233   3.671   5.917   4.240
 8433TIP3   OH225234   3.571   5.718   3.808
 8433TIP3    H125235   3.479   5.691   3.825
 8433TIP3    H225236   3.584   5.679   3.719
 8434TIP3   OH225237   4.062   5.805   3.535
 8434TIP3    H125238   4.011   5.876   3.490
 8434TIP3    H225239   4.118   5.771   3.462
 8435TIP3   OH225240   4.238   6.083   4.622
 8435TIP3    H125241   4.214   6.009   4.682
 8435TIP3    H225242   4.333   6.091   4.641
 8436TIP3   OH225243   4.217   5.831   3.771
 8436TIP3    H125244   4.156   5.858   3.700
 8436TIP3    H225245   4.254   5.751   3.727
 8437TIP3   OH225246   3.507   5.862   4.500
 8437TIP3    H125247   3.536   5.924   4.569
 8437TIP3    H225248   3.497   5.779   4.550
 8438TIP3   OH225249   3.559   5.341   3.210
 8438TIP3    H125250   3.547   5.338   3.307
 8438TIP3    H225251   3.479   5.391   3.183
 8439TIP3   OH225252   3.127   5.377   4.088
 8439TIP3    H125253   3.190   5.448   4.071
 8439TIP3    H225254   3.117   5.338   3.997
 8440TIP3   OH225255   3.069   5.363   3.601
 8440TIP3    H125256   3.111   5.401   3.520
 8440TIP3    H225257   3.005   5.435   3.619
 8441TIP3   OH225258   4.228   6.077   4.192
 8441TIP3    H125259   4.261   6.006   4.133
 8441TIP3    H225260   4.199   6.023   4.269
 8442TIP3   OH225261   3.906   5.543   3.865
 8442TIP3    H125262   3.826   5.539   3.920
 8442TIP3    H225263   3.977   5.536   3.930
 8443TIP3   OH225264   3.331   5.594   3.875
 8443TIP3    H125265   3.238   5.603   3.843
 8443TIP3    H225266   3.356   5.505   3.844
 8444TIP3   OH225267   3.598   5.594   3.565
 8444TIP3    H125268   3.693   5.607   3.544
 8444TIP3    H225269   3.553   5.617   3.481
 8445TIP3   OH225270   4.393   5.618   4.071
 8445TIP3    H125271   4.359   5.631   4.163
 8445TIP3    H225272   4.327   5.557   4.035
 8446TIP3   OH225273   3.447   5.632   3.340
 8446TIP3    H125274   3.379   5.582   3.290
 8446TIP3    H225275   3.501   5.667   3.266
 8447TIP3   OH225276   4.566   7.305   4.289
 8447TIP3    H125277   4.563   7.331   4.195
 8447TIP3    H225278   4.645   7.354   4.320
 8448TIP3   OH225279   3.520   6.417   4.707
 8448TIP3    H125280   3.599   6.447   4.757
 8448TIP3    H225281   3.454   6.415   4.780
 8449TIP3   OH225282   3.982   5.872   3.962
 8449TIP3    H125283   4.055   5.833   3.911
 8449TIP3    H225284   3.991   5.827   4.048
 8450TIP3   OH225285   3.502   5.355   3.842
 8450TIP3    H125286   3.475   5.277   3.892
 8450TIP3    H225287   3.549   5.316   3.766
 8451TIP3   OH225288   3.957   5.766   4.257
 8451TIP3    H125289   3.868   5.805   4.271
 8451TIP3    H225290   4.016   5.827   4.306
 8452TIP3   OH225291   3.693   6.157   3.345
 8452TIP3    H125292   3.620   6.091   3.335
 8452TIP3    H225293   3.674   6.190   3.437
 8453TIP3   OH225294   4.594   6.393   3.975
 8453TIP3    H125295   4.619   6.444   3.894
 8453TIP3    H225296   4.509   6.352   3.947
 8454TIP3   OH225297   4.153   5.466   3.219
 8454TIP3    H125298   4.056   5.447   3.225
 8454TIP3    H225299   4.159   5.561   3.240
 8455TIP3   OH225300   4.088   6.474   4.346
 8455TIP3    H125301   4.120   6.458   4.436
 8455TIP3    H225302   4.055   6.565   4.350
 8456TIP3   OH225303   4.220   5.718   3.318
 8456TIP3    H125304   4.317   5.723   3.331
 8456TIP3    H225305   4.202   5.798   3.264
 8457TIP3   OH225306   3.387   6.181   4.023
 8457TIP3    H125307   3.427   6.153   3.938
 8457TIP3    H225308   3.433   6.124   4.086
 8458TIP3   OH225309   3.841   6.306   3.171
 8458TIP3    H125310   3.792   6.392   3.176
 8458TIP3    H225311   3.787   6.251   3.232
 8459TIP3   OH225312   3.270   6.101   4.638
 8459TIP3    H125313   3.290   6.087   4.733
 8459TIP3    H225314   3.203   6.032   4.623
 8460TIP3   OH225315   3.996   6.217   4.656
 8460TIP3    H125316   3.934   6.156   4.612
 8460TIP3    H225317   4.083   6.180   4.628
 8461TIP3   OH225318   4.253   6.732   4.246
 8461TIP3    H125319   4.156   6.736   4.257
 8461TIP3    H225320   4.282   6.785   4.323
 8462TIP3   OH225321   4.662   5.810   3.150
 8462TIP3    H125322   4.600   5.766   3.088
 8462TIP3    H225323   4.659   5.900   3.110
 8463TIP3   OH225324   4.883   6.667   4.231
 8463TIP3    H125325   4.785   6.661   4.222
 8463TIP3    H225326   4.909   6.637   4.140
 8464TIP3   OH225327   4.364   6.628   3.059
 8464TIP3    H125328   4.339   6.556   3.120
 8464TIP3    H225329   4.378   6.581   2.975
 8465TIP3   OH225330   4.360   6.257   3.891
 8465TIP3    H125331   4.266   6.232   3.905
 8465TIP3    H225332   4.394   6.176   3.848
 8466TIP3   OH225333   3.492   6.486   3.653
 8466TIP3    H125334   3.493   6.566   3.595
 8466TIP3    H225335   3.398   6.469   3.660
 8467TIP3   OH225336   3.042   5.793   3.336
 8467TIP3    H125337   3.098   5.866   3.370
 8467TIP3    H225338   2.974   5.789   3.407
 8468TIP3   OH225339   3.620   6.246   3.590
 8468TIP3    H125340   3.590   6.337   3.611
 8468TIP3    H225341   3.587   6.197   3.668
 8469TIP3   OH225342   3.759   6.826   4.117
 8469TIP3    H125343   3.801   6.899   4.067
 8469TIP3    H225344   3.836   6.791   4.165
 8470TIP3   OH225345   3.407   6.724   3.501
 8470TIP3    H125346   3.321   6.735   3.546
 8470TIP3    H225347   3.441   6.817   3.505
 8471TIP3   OH225348   4.144   6.463   4.078
 8471TIP3    H125349   4.133   6.460   4.175
 8471TIP3    H225350   4.224   6.410   4.065
 8472TIP3   OH225351   4.124   6.357   2.962
 8472TIP3    H125352   4.178   6.332   3.040
 8472TIP3    H225353   4.036   6.327   2.991
 8473TIP3   OH225354   4.394   6.993   4.126
 8473TIP3    H125355   4.313   6.939   4.117
 8473TIP3    H225356   4.380   7.059   4.054
 8474TIP3   OH225357   4.461   6.829   2.779
 8474TIP3    H125358   4.501   6.905   2.732
 8474TIP3    H225359   4.380   6.872   2.813
 8475TIP3   OH225360   3.482   5.602   4.640
 8475TIP3    H125361   3.387   5.608   4.659
 8475TIP3    H225362   3.515   5.552   4.716
 8476TIP3   OH225363   4.284   6.290   3.177
 8476TIP3    H125364   4.274   6.222   3.247
 8476TIP3    H225365   4.381   6.286   3.164
 8477TIP3   OH225366   3.163   6.736   4.310
 8477TIP3    H125367   3.194   6.646   4.291
 8477TIP3    H225368   3.233   6.758   4.374
 8478TIP3   OH225369   3.484   6.335   2.961
 8478TIP3    H125370   3.500   6.243   2.934
 8478TIP3    H225371   3.464   6.324   3.057
 8479TIP3   OH225372   3.429   6.340   3.235
 8479TIP3    H125373   3.507   6.312   3.285
 8479TIP3    H225374   3.433   6.438   3.242
 8480TIP3   OH225375   3.163   6.030   3.436
 8480TIP3    H125376   3.099   6.078   3.493
 8480TIP3    H225377   3.184   6.100   3.371
 8481TIP3   OH225378   4.317   5.671   4.330
 8481TIP3    H125379   4.400   5.709   4.364
 8481TIP3    H225380   4.307   5.589   4.385
 8482TIP3   OH225381   4.197   5.418   3.497
 8482TIP3    H125382   4.185   5.439   3.403
 8482TIP3    H225383   4.239   5.501   3.531
 8483TIP3   OH225384   3.696   6.535   3.181
 8483TIP3    H125385   3.610   6.562   3.216
 8483TIP3    H225386   3.715   6.609   3.122
 8484TIP3   OH225387   3.881   5.604   3.596
 8484TIP3    H125388   3.947   5.674   3.577
 8484TIP3    H225389   3.890   5.594   3.693
 8485TIP3   OH225390   4.157   5.915   4.401
 8485TIP3    H125391   4.181   5.965   4.482
 8485TIP3    H225392   4.211   5.834   4.409
 8486TIP3   OH225393   4.026   5.322   3.694
 8486TIP3    H125394   4.022   5.399   3.754
 8486TIP3    H225395   4.090   5.356   3.626
 8487TIP3   OH225396   3.441   6.612   3.250
 8487TIP3    H125397   3.414   6.683   3.187
 8487TIP3    H225398   3.427   6.657   3.337
 8488TIP3   OH225399   3.541   5.327   3.487
 8488TIP3    H125400   3.540   5.417   3.524
 8488TIP3    H225401   3.637   5.309   3.493
 8489TIP3   OH225402   4.792   5.819   4.384
 8489TIP3    H125403   4.694   5.818   4.390
 8489TIP3    H225404   4.804   5.772   4.300
 8490TIP3   OH225405   4.446   6.012   3.772
 8490TIP3    H125406   4.370   5.952   3.783
 8490TIP3    H225407   4.517   5.965   3.820
 8491TIP3   OH225408   3.163   6.240   3.241
 8491TIP3    H125409   3.235   6.305   3.249
 8491TIP3    H225410   3.203   6.181   3.173
 8492TIP3   OH225411   3.096   5.515   3.374
 8492TIP3    H125412   3.087   5.611   3.358
 8492TIP3    H225413   3.029   5.477   3.314
 8493TIP3   OH225414   4.413   6.970   3.720
 8493TIP3    H125415   4.372   7.018   3.644
 8493TIP3    H225416   4.508   6.990   3.702
 8494TIP3   OH225417   3.027   6.463   3.627
 8494TIP3    H125418   2.952   6.489   3.682
 8494TIP3    H225419   2.999   6.502   3.541
 8495TIP3   OH225420   3.190   7.001   4.692
 8495TIP3    H125421   3.273   7.005   4.745
 8495TIP3    H225422   3.166   6.907   4.703
 8496TIP3   OH225423   3.656   6.957   4.755
 8496TIP3    H125424   3.747   6.989   4.753
 8496TIP3    H225425   3.652   6.895   4.680
 8497TIP3   OH225426   3.648   6.537   2.870
 8497TIP3    H125427   3.595   6.465   2.909
 8497TIP3    H225428   3.724   6.487   2.835
 8498TIP3   OH225429   4.309   6.865   4.483
 8498TIP3    H125430   4.312   6.800   4.557
 8498TIP3    H225431   4.384   6.924   4.506
 8499TIP3   OH225432   4.084   6.575   2.785
 8499TIP3    H125433   4.126   6.511   2.845
 8499TIP3    H225434   4.142   6.573   2.706
 8500TIP3   OH225435   3.318   6.406   4.899
 8500TIP3    H125436   3.334   6.310   4.907
 8500TIP3    H225437   3.230   6.408   4.855
 8501TIP3   OH225438   3.291   6.050   3.095
 8501TIP3    H125439   3.348   6.018   3.167
 8501TIP3    H225440   3.358   6.055   3.022
 8502TIP3   OH225441   3.923   6.489   4.673
 8502TIP3    H125442   3.883   6.509   4.585
 8502TIP3    H225443   3.955   6.397   4.661
 8503TIP3   OH225444   3.808   6.253   2.902
 8503TIP3    H125445   3.811   6.266   3.000
 8503TIP3    H225446   3.810   6.155   2.897
 8504TIP3   OH225447   4.417   6.504   4.282
 8504TIP3    H125448   4.494   6.544   4.237
 8504TIP3    H225449   4.349   6.572   4.265
 8505TIP3   OH225450   3.439   6.142   4.882
 8505TIP3    H125451   3.513   6.086   4.860
 8505TIP3    H225452   3.465   6.174   4.971
 8506TIP3   OH225453   3.497   5.960   3.311
 8506TIP3    H125454   3.477   5.916   3.395
 8506TIP3    H225455   3.538   5.887   3.260
 8507TIP3   OH225456   3.772   6.024   4.543
 8507TIP3    H125457   3.694   6.084   4.544
 8507TIP3    H225458   3.822   6.058   4.465
 8508TIP3   OH225459   3.606   5.758   3.155
 8508TIP3    H125460   3.581   5.761   3.060
 8508TIP3    H225461   3.704   5.759   3.147
 8509TIP3   OH225462   4.294   6.427   4.676
 8509TIP3    H125463   4.365   6.391   4.620
 8509TIP3    H225464   4.285   6.358   4.744
 8510TIP3   OH225465   4.423   6.082   2.823
 8510TIP3    H125466   4.403   6.038   2.738
 8510TIP3    H225467   4.390   6.173   2.800
 8511TIP3   OH225468   3.895   5.812   4.667
 8511TIP3    H125469   3.889   5.732   4.611
 8511TIP3    H225470   3.851   5.880   4.610
 8512TIP3   OH225471   3.878   5.592   4.473
 8512TIP3    H125472   3.911   5.637   4.393
 8512TIP3    H225473   3.792   5.558   4.445
 8513TIP3   OH225474   3.922   6.133   4.349
 8513TIP3    H125475   4.008   6.146   4.308
 8513TIP3    H225476   3.867   6.199   4.303
 8514TIP3   OH225477   4.505   6.100   4.730
 8514TIP3    H125478   4.550   6.014   4.743
 8514TIP3    H225479   4.576   6.152   4.689
 8515TIP3   OH225480   4.544   6.358   4.471
 8515TIP3    H125481   4.489   6.412   4.410
 8515TIP3    H225482   4.633   6.376   4.432
 8516TIP3   OH225483   3.774   5.919   4.901
 8516TIP3    H125484   3.706   5.851   4.917
 8516TIP3    H225485   3.808   5.892   4.813
 8517TIP3   OH225486   4.032   5.368   4.545
 8517TIP3    H125487   3.978   5.447   4.526
 8517TIP3    H225488   3.964   5.297   4.536
 8518TIP3   OH225489   4.154   5.865   4.761
 8518TIP3    H125490   4.140   5.849   4.856
 8518TIP3    H225491   4.065   5.840   4.728
 8519TIP3   OH225492   4.396   5.821   4.618
 8519TIP3    H125493   4.320   5.817   4.680
 8519TIP3    H225494   4.470   5.787   4.673
 8520TIP3   OH225495   4.623   5.758   4.767
 8520TIP3    H125496   4.637   5.661   4.781
 8520TIP3    H225497   4.620   5.792   4.858
 8521TIP3   OH225498   3.614   5.700   4.957
 8521TIP3    H125499   3.617   5.608   4.925
 8521TIP3    H225500   3.652   5.689   5.047
 8522TIP3   OH225501   4.125   5.374   4.804
 8522TIP3    H125502   4.190   5.301   4.800
 8522TIP3    H225503   4.086   5.367   4.715
 8523TIP3   OH225504   4.192   5.588   4.961
 8523TIP3    H125505   4.170   5.515   4.898
 8523TIP3    H225506   4.112   5.644   4.955
 8524TIP3   OH225507   3.414   6.814   3.062
 8524TIP3    H125508   3.509   6.807   3.043
 8524TIP3    H225509   3.385   6.866   2.985
 8525TIP3   OH225510   2.894   6.209   3.273
 8525TIP3    H125511   2.989   6.232   3.261
 8525TIP3    H225512   2.897   6.112   3.269
 8526TIP3   OH225513   2.808   6.808   3.693
 8526TIP3    H125514   2.742   6.746   3.653
 8526TIP3    H225515   2.850   6.749   3.760
 8527TIP3   OH225516   2.939   6.657   3.883
 8527TIP3    H125517   2.920   6.584   3.945
 8527TIP3    H225518   3.025   6.686   3.917
 8528TIP3   OH225519   4.667   7.058   3.682
 8528TIP3    H125520   4.696   7.098   3.766
 8528TIP3    H225521   4.722   7.105   3.617
 8529TIP3   OH225522   4.696   7.083   3.965
 8529TIP3    H125523   4.654   6.994   3.959
 8529TIP3    H225524   4.773   7.059   4.019
 8530TIP3   OH225525   4.750   6.757   4.528
 8530TIP3    H125526   4.679   6.766   4.595
 8530TIP3    H225527   4.792   6.846   4.533
 8531TIP3   OH225528   4.562   6.269   3.152
 8531TIP3    H125529   4.629   6.335   3.123
 8531TIP3    H225530   4.607   6.231   3.231
 8532TIP3   OH225531   4.689   6.136   3.357
 8532TIP3    H125532   4.623   6.095   3.416
 8532TIP3    H225533   4.755   6.173   3.420
 8533TIP3   OH225534   4.745   6.531   3.789
 8533TIP3    H125535   4.798   6.464   3.741
 8533TIP3    H225536   4.744   6.605   3.725
 8534TIP3   OH225537   4.573   6.828   3.983
 8534TIP3    H125538   4.501   6.872   4.034
 8534TIP3    H225539   4.523   6.782   3.912
 8535TIP3   OH225540   4.626   6.045   3.003
 8535TIP3    H125541   4.554   6.047   2.936
 8535TIP3    H225542   4.599   6.122   3.058
 8536TIP3   OH225543   4.496   5.718   2.956
 8536TIP3    H125544   4.452   5.752   2.877
 8536TIP3    H225545   4.474   5.622   2.949
 8537TIP3   OH225546   4.500   5.995   3.501
 8537TIP3    H125547   4.509   5.899   3.494
 8537TIP3    H225548   4.486   6.008   3.597
 8538TIP3   OH225549   3.126   6.072   4.247
 8538TIP3    H125550   3.126   6.034   4.157
 8538TIP3    H225551   3.223   6.071   4.266
 8539TIP3   OH225552   4.790   6.418   4.362
 8539TIP3    H125553   4.862   6.352   4.351
 8539TIP3    H225554   4.816   6.487   4.299
 8540TIP3   OH225555   4.974   6.220   4.370
 8540TIP3    H125556   4.899   6.171   4.410
 8540TIP3    H225557   5.047   6.157   4.387
 8541TIP3   OH225558   4.440   5.452   2.941
 8541TIP3    H125559   4.513   5.419   2.996
 8541TIP3    H225560   4.366   5.392   2.962
 8542TIP3   OH225561   4.499   5.711   3.394
 8542TIP3    H125562   4.540   5.623   3.409
 8542TIP3    H225563   4.557   5.744   3.323
 8543TIP3   OH225564   4.659   5.881   3.892
 8543TIP3    H125565   4.744   5.906   3.851
 8543TIP3    H225566   4.673   5.919   3.981
 8544TIP3   OH225567   4.731   6.028   4.122
 8544TIP3    H125568   4.654   6.063   4.171
 8544TIP3    H225569   4.763   6.110   4.078
 8545TIP3   OH225570   3.348   5.753   4.924
 8545TIP3    H125571   3.445   5.747   4.930
 8545TIP3    H225572   3.323   5.666   4.962
 8546TIP3   OH225573   5.178   5.622   4.677
 8546TIP3    H125574   5.239   5.557   4.636
 8546TIP3    H225575   5.150   5.675   4.600
 8547TIP3   OH225576   4.607   5.462   3.435
 8547TIP3    H125577   4.655   5.444   3.519
 8547TIP3    H225578   4.546   5.385   3.432
 8548TIP3   OH225579   3.109   5.712   4.328
 8548TIP3    H125580   3.161   5.719   4.245
 8548TIP3    H225581   3.136   5.792   4.374
 8549TIP3   OH225582   5.049   5.757   4.479
 8549TIP3    H125583   4.963   5.799   4.500
 8549TIP3    H225584   5.018   5.682   4.425
 8550TIP3   OH225585   4.685   5.392   3.069
 8550TIP3    H125586   4.724   5.322   3.013
 8550TIP3    H225587   4.752   5.462   3.064
 8551TIP3   OH225588   3.087   5.250   3.846
 8551TIP3    H125589   2.994   5.221   3.854
 8551TIP3    H225590   3.086   5.292   3.756
 8552TIP3   OH225591   4.250   6.929   3.335
 8552TIP3    H125592   4.304   6.917   3.253
 8552TIP3    H225593   4.304   6.993   3.384
 8553TIP3   OH225594   3.308   5.302   4.633
 8553TIP3    H125595   3.263   5.289   4.718
 8553TIP3    H225596   3.237   5.344   4.581
 8554TIP3   OH225597   3.357   6.730   4.715
 8554TIP3    H125598   3.262   6.708   4.707
 8554TIP3    H225599   3.371   6.718   4.810
 8555TIP3   OH225600   3.530   6.766   4.264
 8555TIP3    H125601   3.489   6.846   4.223
 8555TIP3    H225602   3.618   6.773   4.223
 8556TIP3   OH225603   3.971   7.010   4.402
 8556TIP3    H125604   4.013   7.010   4.492
 8556TIP3    H225605   4.038   7.062   4.352
 8557TIP3   OH225606   4.153   7.163   4.264
 8557TIP3    H125607   4.226   7.113   4.225
 8557TIP3    H225608   4.203   7.220   4.327
 8558TIP3   OH225609   4.950   5.519   4.363
 8558TIP3    H125610   4.859   5.507   4.332
 8558TIP3    H225611   4.985   5.427   4.354
 8559TIP3   OH225612   3.193   7.029   4.301
 8559TIP3    H125613   3.164   7.119   4.275
 8559TIP3    H225614   3.242   7.057   4.386
 8560TIP3   OH225615   3.439   6.998   4.150
 8560TIP3    H125616   3.350   7.017   4.184
 8560TIP3    H225617   3.432   7.031   4.058
 8561TIP3   OH225618   3.868   7.024   3.950
 8561TIP3    H125619   3.803   7.047   3.881
 8561TIP3    H225620   3.883   7.112   3.993
 8562TIP3   OH225621   4.140   6.964   4.000
 8562TIP3    H125622   4.046   6.983   3.981
 8562TIP3    H225623   4.184   7.039   3.956
 8563TIP3   OH225624   4.342   7.157   3.911
 8563TIP3    H125625   4.331   7.241   3.862
 8563TIP3    H225626   4.370   7.096   3.839
 8564TIP3   OH225627   3.305   6.690   3.896
 8564TIP3    H125628   3.320   6.607   3.946
 8564TIP3    H225629   3.396   6.726   3.894
 8565TIP3   OH225630   3.577   6.779   3.903
 8565TIP3    H125631   3.606   6.688   3.888
 8565TIP3    H225632   3.631   6.800   3.982
 8566TIP3   OH225633   4.155   5.433   3.980
 8566TIP3    H125634   4.116   5.356   4.025
 8566TIP3    H225635   4.232   5.393   3.934
 8567TIP3   OH225636   4.674   5.322   3.888
 8567TIP3    H125637   4.710   5.371   3.811
 8567TIP3    H225638   4.579   5.338   3.880
 8568TIP3   OH225639   4.771   5.415   3.652
 8568TIP3    H125640   4.845   5.363   3.612
 8568TIP3    H225641   4.806   5.506   3.637
 8569TIP3   OH225642   3.411   5.151   4.054
 8569TIP3    H125643   3.319   5.123   4.034
 8569TIP3    H225644   3.458   5.068   4.030
 8570TIP3   OH225645   3.198   5.015   3.648
 8570TIP3    H125646   3.225   5.068   3.571
 8570TIP3    H225647   3.166   5.082   3.709
 8571TIP3   OH225648   3.852   5.181   3.885
 8571TIP3    H125649   3.902   5.226   3.815
 8571TIP3    H225650   3.903   5.204   3.965
 8572TIP3   OH225651   4.389   5.323   3.864
 8572TIP3    H125652   4.395   5.281   3.777
 8572TIP3    H225653   4.379   5.244   3.923
 8573TIP3   OH225654   4.425   5.249   3.428
 8573TIP3    H125655   4.338   5.290   3.441
 8573TIP3    H225656   4.411   5.162   3.472
 8574TIP3   OH225657   2.905   6.588   3.422
 8574TIP3    H125658   2.818   6.558   3.390
 8574TIP3    H225659   2.899   6.682   3.398
 8575TIP3   OH225660   3.311   5.170   3.413
 8575TIP3    H125661   3.358   5.107   3.355
 8575TIP3    H225662   3.385   5.224   3.446
 8576TIP3   OH225663   3.817   5.352   3.508
 8576TIP3    H125664   3.878   5.304   3.566
 8576TIP3    H225665   3.840   5.445   3.534
 8577TIP3   OH225666   3.680   6.770   3.011
 8577TIP3    H125667   3.768   6.794   2.973
 8577TIP3    H225668   3.658   6.696   2.950
 8578TIP3   OH225669   4.399   6.894   3.104
 8578TIP3    H125670   4.390   6.797   3.091
 8578TIP3    H225671   4.354   6.927   3.023
 8579TIP3   OH225672   3.611   5.430   4.893
 8579TIP3    H125673   3.576   5.355   4.945
 8579TIP3    H225674   3.706   5.427   4.919
 8580TIP3   OH225675   3.862   5.423   5.008
 8580TIP3    H125676   3.946   5.394   4.970
 8580TIP3    H225677   3.847   5.355   5.077
 8581TIP3   OH225678   2.980   6.602   3.063
 8581TIP3    H125679   2.987   6.633   3.154
 8581TIP3    H225680   3.069   6.562   3.047
 8582TIP3   OH225681   4.687   5.488   4.796
 8582TIP3    H125682   4.705   5.456   4.887
 8582TIP3    H225683   4.777   5.481   4.756
 8583TIP3   OH225684   4.623   7.036   4.289
 8583TIP3    H125685   4.544   7.006   4.237
 8583TIP3    H225686   4.605   7.132   4.294
 8584TIP3   OH225687   5.893   6.411   3.051
 8584TIP3    H125688   5.862   6.502   3.030
 8584TIP3    H225689   5.816   6.359   3.021
 8585TIP3   OH225690   5.891   6.410   3.441
 8585TIP3    H125691   5.926   6.386   3.528
 8585TIP3    H225692   5.849   6.327   3.412
 8586TIP3   OH225693   5.188   6.301   3.803
 8586TIP3    H125694   5.218   6.233   3.866
 8586TIP3    H225695   5.266   6.357   3.796
 8587TIP3   OH225696   6.136   6.714   3.120
 8587TIP3    H125697   6.120   6.646   3.187
 8587TIP3    H225698   6.166   6.789   3.175
 8588TIP3   OH225699   5.163   6.715   3.523
 8588TIP3    H125700   5.154   6.617   3.525
 8588TIP3    H225701   5.260   6.723   3.518
 8589TIP3   OH225702   4.868   5.916   3.306
 8589TIP3    H125703   4.819   5.998   3.325
 8589TIP3    H225704   4.798   5.864   3.264
 8590TIP3   OH225705   4.925   6.204   3.487
 8590TIP3    H125706   4.975   6.126   3.521
 8590TIP3    H225707   4.986   6.240   3.422
 8591TIP3   OH225708   5.788   7.175   3.136
 8591TIP3    H125709   5.830   7.102   3.086
 8591TIP3    H225710   5.775   7.135   3.223
 8592TIP3   OH225711   5.688   6.636   3.485
 8592TIP3    H125712   5.729   6.559   3.441
 8592TIP3    H225713   5.770   6.683   3.510
 8593TIP3   OH225714   6.705   5.954   3.484
 8593TIP3    H125715   6.733   6.038   3.525
 8593TIP3    H225716   6.727   5.971   3.390
 8594TIP3   OH225717   6.102   6.135   3.514
 8594TIP3    H125718   6.145   6.049   3.534
 8594TIP3    H225719   6.069   6.118   3.424
 8595TIP3   OH225720   5.443   5.796   3.480
 8595TIP3    H125721   5.422   5.868   3.417
 8595TIP3    H225722   5.394   5.722   3.437
 8596TIP3   OH225723   6.136   5.888   3.101
 8596TIP3    H125724   6.207   5.874   3.167
 8596TIP3    H225725   6.189   5.923   3.027
 8597TIP3   OH225726   5.073   5.997   3.590
 8597TIP3    H125727   5.156   5.978   3.637
 8597TIP3    H225728   5.086   5.942   3.509
 8598TIP3   OH225729   5.512   6.195   3.385
 8598TIP3    H125730   5.607   6.171   3.397
 8598TIP3    H225731   5.474   6.111   3.352
 8599TIP3   OH225732   6.777   6.163   3.654
 8599TIP3    H125733   6.693   6.210   3.636
 8599TIP3    H225734   6.799   6.199   3.741
 8600TIP3   OH225735   5.436   5.779   3.917
 8600TIP3    H125736   5.377   5.816   3.848
 8600TIP3    H225737   5.383   5.797   3.997
 8601TIP3   OH225738   5.782   6.631   2.921
 8601TIP3    H125739   5.738   6.614   2.837
 8601TIP3    H225740   5.736   6.714   2.949
 8602TIP3   OH225741   5.542   6.555   3.707
 8602TIP3    H125742   5.482   6.624   3.744
 8602TIP3    H225743   5.586   6.604   3.634
 8603TIP3   OH225744   6.340   5.894   3.279
 8603TIP3    H125745   6.325   5.848   3.363
 8603TIP3    H225746   6.393   5.971   3.307
 8604TIP3   OH225747   5.309   5.894   3.699
 8604TIP3    H125748   5.370   5.967   3.722
 8604TIP3    H225749   5.359   5.854   3.624
 8605TIP3   OH225750   5.373   6.752   3.807
 8605TIP3    H125751   5.347   6.840   3.771
 8605TIP3    H225752   5.294   6.735   3.863
 8606TIP3   OH225753   4.762   6.440   3.044
 8606TIP3    H125754   4.721   6.468   2.960
 8606TIP3    H225755   4.793   6.526   3.080
 8607TIP3   OH225756   6.203   6.957   3.283
 8607TIP3    H125757   6.113   6.948   3.323
 8607TIP3    H225758   6.195   7.044   3.239
 8608TIP3   OH225759   6.498   5.851   3.649
 8608TIP3    H125760   6.411   5.879   3.618
 8608TIP3    H225761   6.558   5.884   3.579
 8609TIP3   OH225762   5.790   5.499   3.633
 8609TIP3    H125763   5.771   5.405   3.650
 8609TIP3    H225764   5.713   5.540   3.679
 8610TIP3   OH225765   5.902   7.001   2.955
 8610TIP3    H125766   5.954   6.918   2.936
 8610TIP3    H225767   5.963   7.067   2.915
 8611TIP3   OH225768   6.048   6.785   2.868
 8611TIP3    H125769   6.004   6.705   2.836
 8611TIP3    H225770   6.087   6.754   2.953
 8612TIP3   OH225771   6.429   6.867   3.628
 8612TIP3    H125772   6.417   6.790   3.569
 8612TIP3    H225773   6.411   6.942   3.568
 8613TIP3   OH225774   5.722   6.261   2.888
 8613TIP3    H125775   5.641   6.313   2.867
 8613TIP3    H225776   5.767   6.260   2.802
 8614TIP3   OH225777   5.679   6.051   2.597
 8614TIP3    H125778   5.746   6.100   2.648
 8614TIP3    H225779   5.736   5.986   2.550
 8615TIP3   OH225780   6.624   6.505   3.475
 8615TIP3    H125781   6.541   6.557   3.478
 8615TIP3    H225782   6.655   6.529   3.384
 8616TIP3   OH225783   6.070   6.345   2.855
 8616TIP3    H125784   6.015   6.369   2.934
 8616TIP3    H225785   6.154   6.319   2.899
 8617TIP3   OH225786   6.303   6.381   3.774
 8617TIP3    H125787   6.301   6.465   3.824
 8617TIP3    H225788   6.217   6.385   3.728
 8618TIP3   OH225789   5.302   6.340   3.274
 8618TIP3    H125790   5.261   6.282   3.207
 8618TIP3    H225791   5.378   6.286   3.305
 8619TIP3   OH225792   5.432   6.754   3.421
 8619TIP3    H125793   5.412   6.716   3.334
 8619TIP3    H225794   5.521   6.718   3.439
 8620TIP3   OH225795   5.436   6.313   3.629
 8620TIP3    H125796   5.470   6.289   3.540
 8620TIP3    H225797   5.480   6.399   3.647
 8621TIP3   OH225798   5.963   6.951   3.406
 8621TIP3    H125799   5.949   7.031   3.460
 8621TIP3    H225800   5.947   6.878   3.470
 8622TIP3   OH225801   5.577   6.868   3.954
 8622TIP3    H125802   5.516   6.931   3.999
 8622TIP3    H225803   5.512   6.816   3.902
 8623TIP3   OH225804   5.908   6.203   2.683
 8623TIP3    H125805   5.968   6.263   2.734
 8623TIP3    H225806   5.934   6.225   2.590
 8624TIP3   OH225807   5.332   6.422   4.059
 8624TIP3    H125808   5.336   6.511   4.099
 8624TIP3    H225809   5.237   6.403   4.069
 8625TIP3   OH225810   5.656   6.877   2.957
 8625TIP3    H125811   5.737   6.931   2.968
 8625TIP3    H225812   5.594   6.941   2.920
 8626TIP3   OH225813   5.370   7.034   4.040
 8626TIP3    H125814   5.335   7.037   3.949
 8626TIP3    H225815   5.289   7.013   4.093
 8627TIP3   OH225816   6.425   5.441   2.734
 8627TIP3    H125817   6.343   5.462   2.783
 8627TIP3    H225818   6.438   5.524   2.683
 8628TIP3   OH225819   5.170   6.185   3.076
 8628TIP3    H125820   5.099   6.228   3.024
 8628TIP3    H225821   5.131   6.097   3.090
 8629TIP3   OH225822   6.225   6.807   2.281
 8629TIP3    H125823   6.233   6.904   2.267
 8629TIP3    H225824   6.318   6.779   2.268
 8630TIP3   OH225825   4.948   6.568   3.987
 8630TIP3    H125826   4.881   6.548   3.918
 8630TIP3    H225827   4.986   6.481   4.008
 8631TIP3   OH225828   4.802   6.760   3.621
 8631TIP3    H125829   4.899   6.759   3.611
 8631TIP3    H225830   4.790   6.841   3.672
 8632TIP3   OH225831   6.666   7.214   3.677
 8632TIP3    H125832   6.666   7.118   3.692
 8632TIP3    H225833   6.583   7.240   3.723
 8633TIP3   OH225834   5.773   6.997   3.811
 8633TIP3    H125835   5.769   7.090   3.843
 8633TIP3    H225836   5.701   6.957   3.865
 8634TIP3   OH225837   5.538   7.127   2.762
 8634TIP3    H125838   5.487   7.109   2.680
 8634TIP3    H225839   5.502   7.213   2.790
 8635TIP3   OH225840   4.972   6.981   3.148
 8635TIP3    H125841   5.019   6.975   3.234
 8635TIP3    H225842   4.915   6.902   3.153
 8636TIP3   OH225843   5.735   7.029   2.400
 8636TIP3    H125844   5.794   6.958   2.365
 8636TIP3    H225845   5.770   7.039   2.491
 8637TIP3   OH225846   5.788   7.077   2.668
 8637TIP3    H125847   5.700   7.087   2.711
 8637TIP3    H225848   5.839   7.039   2.742
 8638TIP3   OH225849   6.555   6.342   3.953
 8638TIP3    H125850   6.474   6.353   3.902
 8638TIP3    H225851   6.572   6.246   3.942
 8639TIP3   OH225852   5.154   6.750   3.971
 8639TIP3    H125853   5.202   6.735   4.055
 8639TIP3    H225854   5.079   6.688   3.979
 8640TIP3   OH225855   5.552   5.574   3.762
 8640TIP3    H125856   5.463   5.544   3.733
 8640TIP3    H225857   5.525   5.655   3.810
 8641TIP3   OH225858   6.088   5.688   3.956
 8641TIP3    H125859   6.156   5.662   4.021
 8641TIP3    H225860   6.004   5.670   4.003
 8642TIP3   OH225861   6.323   6.118   3.873
 8642TIP3    H125862   6.273   6.116   3.958
 8642TIP3    H225863   6.300   6.205   3.836
 8643TIP3   OH225864   5.981   6.243   2.424
 8643TIP3    H125865   5.951   6.220   2.334
 8643TIP3    H225866   6.066   6.287   2.404
 8644TIP3   OH225867   5.698   5.622   2.731
 8644TIP3    H125868   5.663   5.619   2.822
 8644TIP3    H225869   5.658   5.539   2.697
 8645TIP3   OH225870   5.485   6.090   3.778
 8645TIP3    H125871   5.434   6.110   3.860
 8645TIP3    H225872   5.468   6.172   3.726
 8646TIP3   OH225873   5.368   5.977   3.292
 8646TIP3    H125874   5.275   5.950   3.311
 8646TIP3    H225875   5.380   5.936   3.204
 8647TIP3   OH225876   5.859   6.062   3.023
 8647TIP3    H125877   5.807   6.133   2.978
 8647TIP3    H225878   5.914   6.028   2.949
 8648TIP3   OH225879   6.033   6.337   4.105
 8648TIP3    H125880   6.010   6.265   4.167
 8648TIP3    H225881   6.127   6.351   4.128
 8649TIP3   OH225882   6.015   6.087   3.258
 8649TIP3    H125883   5.952   6.115   3.188
 8649TIP3    H225884   6.051   6.008   3.214
 8650TIP3   OH225885   5.305   6.118   3.987
 8650TIP3    H125886   5.332   6.182   4.054
 8650TIP3    H225887   5.292   6.036   4.039
 8651TIP3   OH225888   5.355   5.598   2.697
 8651TIP3    H125889   5.344   5.594   2.794
 8651TIP3    H225890   5.275   5.649   2.672
 8652TIP3   OH225891   4.896   5.639   3.570
 8652TIP3    H125892   4.972   5.672   3.622
 8652TIP3    H225893   4.936   5.608   3.487
 8653TIP3   OH225894   4.862   5.620   3.086
 8653TIP3    H125895   4.908   5.658   3.008
 8653TIP3    H225896   4.801   5.694   3.106
 8654TIP3   OH225897   6.026   6.334   3.679
 8654TIP3    H125898   6.059   6.263   3.620
 8654TIP3    H225899   5.995   6.280   3.755
 8655TIP3   OH225900   5.701   5.797   3.353
 8655TIP3    H125901   5.619   5.796   3.406
 8655TIP3    H225902   5.770   5.793   3.421
 8656TIP3   OH225903   5.130   5.855   3.360
 8656TIP3    H125904   5.035   5.862   3.332
 8656TIP3    H225905   5.153   5.763   3.337
 8657TIP3   OH225906   5.395   5.849   3.052
 8657TIP3    H125907   5.489   5.864   3.029
 8657TIP3    H225908   5.348   5.872   2.968
 8658TIP3   OH225909   6.189   5.873   3.556
 8658TIP3    H125910   6.156   5.886   3.648
 8658TIP3    H225911   6.120   5.814   3.521
 8659TIP3   OH225912   5.244   5.886   2.828
 8659TIP3    H125913   5.173   5.839   2.780
 8659TIP3    H225914   5.296   5.922   2.752
 8660TIP3   OH225915   6.361   7.562   3.776
 8660TIP3    H125916   6.359   7.588   3.682
 8660TIP3    H225917   6.442   7.609   3.807
 8661TIP3   OH225918   5.315   6.672   4.195
 8661TIP3    H125919   5.394   6.703   4.243
 8661TIP3    H225920   5.250   6.672   4.268
 8662TIP3   OH225921   5.778   6.129   3.451
 8662TIP3    H125922   5.851   6.088   3.402
 8662TIP3    H225923   5.784   6.084   3.538
 8663TIP3   OH225924   5.298   5.612   3.334
 8663TIP3    H125925   5.261   5.535   3.382
 8663TIP3    H225926   5.343   5.570   3.260
 8664TIP3   OH225927   5.754   6.027   3.740
 8664TIP3    H125928   5.664   6.061   3.755
 8664TIP3    H225929   5.811   6.088   3.790
 8665TIP3   OH225930   5.492   6.413   2.834
 8665TIP3    H125931   5.419   6.348   2.823
 8665TIP3    H225932   5.472   6.447   2.925
 8666TIP3   OH225933   6.390   6.650   3.462
 8666TIP3    H125934   6.415   6.700   3.381
 8666TIP3    H225935   6.305   6.609   3.435
 8667TIP3   OH225936   5.948   5.725   2.700
 8667TIP3    H125937   5.852   5.705   2.711
 8667TIP3    H225938   5.955   5.819   2.727
 8668TIP3   OH225939   5.889   6.732   3.833
 8668TIP3    H125940   5.919   6.716   3.923
 8668TIP3    H225941   5.851   6.821   3.839
 8669TIP3   OH225942   6.016   5.974   2.805
 8669TIP3    H125943   6.113   5.979   2.819
 8669TIP3    H225944   5.998   6.055   2.752
 8670TIP3   OH225945   5.184   6.436   3.509
 8670TIP3    H125946   5.224   6.408   3.424
 8670TIP3    H225947   5.229   6.377   3.572
 8671TIP3   OH225948   5.635   6.563   2.656
 8671TIP3    H125949   5.587   6.649   2.661
 8671TIP3    H225950   5.582   6.507   2.717
 8672TIP3   OH225951   5.067   6.355   4.124
 8672TIP3    H125952   5.085   6.342   4.219
 8672TIP3    H225953   4.997   6.290   4.108
 8673TIP3   OH225954   5.792   6.473   4.144
 8673TIP3    H125955   5.731   6.414   4.098
 8673TIP3    H225956   5.879   6.437   4.115
 8674TIP3   OH225957   6.049   6.992   3.730
 8674TIP3    H125958   5.953   6.991   3.743
 8674TIP3    H225959   6.078   7.044   3.808
 8675TIP3   OH225960   6.458   6.067   2.637
 8675TIP3    H125961   6.396   6.022   2.575
 8675TIP3    H225962   6.455   6.156   2.597
 8676TIP3   OH225963   6.679   6.924   3.717
 8676TIP3    H125964   6.581   6.918   3.708
 8676TIP3    H225965   6.706   6.894   3.628
 8677TIP3   OH225966   6.161   6.885   2.547
 8677TIP3    H125967   6.135   6.816   2.610
 8677TIP3    H225968   6.174   6.835   2.464
 8678TIP3   OH225969   6.156   6.514   3.377
 8678TIP3    H125970   6.063   6.489   3.392
 8678TIP3    H225971   6.190   6.432   3.334
 8679TIP3   OH225972   5.286   6.741   3.135
 8679TIP3    H125973   5.282   6.823   3.081
 8679TIP3    H225974   5.192   6.727   3.153
 8680TIP3   OH225975   4.850   6.044   2.843
 8680TIP3    H125976   4.895   6.129   2.865
 8680TIP3    H225977   4.772   6.049   2.903
 8681TIP3   OH225978   5.418   6.504   3.077
 8681TIP3    H125979   5.384   6.594   3.096
 8681TIP3    H225980   5.383   6.454   3.153
 8682TIP3   OH225981   5.557   7.083   3.604
 8682TIP3    H125982   5.598   7.156   3.554
 8682TIP3    H225983   5.633   7.047   3.652
 8683TIP3   OH225984   5.202   6.979   2.988
 8683TIP3    H125985   5.117   6.988   3.035
 8683TIP3    H225986   5.235   7.072   2.991
 8684TIP3   OH225987   5.940   6.719   3.565
 8684TIP3    H125988   5.929   6.718   3.663
 8684TIP3    H225989   6.020   6.666   3.554
 8685TIP3   OH225990   5.919   6.614   2.448
 8685TIP3    H125991   5.974   6.588   2.526
 8685TIP3    H225992   5.832   6.585   2.478
 8686TIP3   OH225993   6.190   7.249   3.614
 8686TIP3    H125994   6.110   7.193   3.608
 8686TIP3    H225995   6.174   7.313   3.542
 8687TIP3   OH225996   6.256   7.084   2.265
 8687TIP3    H125997   6.296   7.160   2.219
 8687TIP3    H225998   6.175   7.128   2.300
 8688TIP3   OH225999   5.274   5.862   4.130
 8688TIP3    H126000   5.178   5.865   4.142
 8688TIP3    H226001   5.302   5.806   4.204
 8689TIP3   OH226002   6.080   6.541   2.659
 8689TIP3    H126003   6.070   6.478   2.732
 8689TIP3    H226004   6.178   6.541   2.649
 8690TIP3   OH226005   4.995   6.943   3.766
 8690TIP3    H126006   5.049   6.874   3.806
 8690TIP3    H226007   5.021   7.021   3.817
 8691TIP3   OH226008   5.282   6.591   2.447
 8691TIP3    H126009   5.295   6.497   2.421
 8691TIP3    H226010   5.262   6.582   2.542
 8692TIP3   OH226011   5.226   6.597   2.718
 8692TIP3    H126012   5.297   6.569   2.777
 8692TIP3    H226013   5.229   6.695   2.728
 8693TIP3   OH226014   4.960   6.289   2.924
 8693TIP3    H126015   4.894   6.334   2.981
 8693TIP3    H226016   4.973   6.357   2.856
 8694TIP3   OH226017   6.115   5.925   3.815
 8694TIP3    H126018   6.195   5.965   3.853
 8694TIP3    H226019   6.103   5.845   3.869
 8695TIP3   OH226020   5.995   5.674   2.983
 8695TIP3    H126021   5.982   5.697   2.889
 8695TIP3    H226022   6.036   5.756   3.019
 8696TIP3   OH226023   5.494   6.794   2.666
 8696TIP3    H126024   5.407   6.817   2.703
 8696TIP3    H226025   5.510   6.872   2.611
 8697TIP3   OH226026   5.679   5.859   3.083
 8697TIP3    H126027   5.744   5.931   3.066
 8697TIP3    H226028   5.686   5.850   3.181
 8698TIP3   OH226029   5.952   6.173   3.888
 8698TIP3    H126030   5.976   6.226   3.966
 8698TIP3    H226031   6.006   6.093   3.899
 8699TIP3   OH226032   5.823   5.579   3.183
 8699TIP3    H126033   5.814   5.657   3.240
 8699TIP3    H226034   5.886   5.612   3.115
 8700TIP3   OH226035   5.240   6.869   2.737
 8700TIP3    H126036   5.210   6.940   2.676
 8700TIP3    H226037   5.223   6.911   2.825
 8701TIP3   OH226038   5.338   5.583   2.973
 8701TIP3    H126039   5.335   5.673   3.011
 8701TIP3    H226040   5.434   5.565   2.980
 8702TIP3   OH226041   6.589   6.075   3.873
 8702TIP3    H126042   6.491   6.073   3.878
 8702TIP3    H226043   6.603   6.036   3.785
 8703TIP3   OH226044   6.242   6.269   3.258
 8703TIP3    H126045   6.166   6.210   3.270
 8703TIP3    H226046   6.313   6.221   3.307
 8704TIP3   OH226047   4.957   6.494   2.728
 8704TIP3    H126048   5.026   6.562   2.737
 8704TIP3    H226049   5.000   6.437   2.661
 8705TIP3   OH226050   4.899   5.773   2.862
 8705TIP3    H126051   4.898   5.871   2.860
 8705TIP3    H226052   4.818   5.751   2.813
 8706TIP3   OH226053   6.212   7.228   3.206
 8706TIP3    H126054   6.169   7.275   3.130
 8706TIP3    H226055   6.306   7.247   3.186
 8707TIP3   OH226056   5.288   5.493   3.732
 8707TIP3    H126057   5.256   5.460   3.645
 8707TIP3    H226058   5.277   5.414   3.789
 8708TIP3   OH226059   4.820   6.706   3.112
 8708TIP3    H126060   4.761   6.741   3.180
 8708TIP3    H226061   4.788   6.753   3.031
 8709TIP3   OH226062   4.986   7.260   4.187
 8709TIP3    H126063   5.072   7.261   4.234
 8709TIP3    H226064   4.966   7.165   4.186
 8710TIP3   OH226065   5.462   7.215   4.232
 8710TIP3    H126066   5.557   7.198   4.237
 8710TIP3    H226067   5.437   7.154   4.159
 8711TIP3   OH226068   5.444   6.793   2.355
 8711TIP3    H126069   5.387   6.723   2.396
 8711TIP3    H226070   5.521   6.739   2.329
 8712TIP3   OH226071   6.103   7.126   3.964
 8712TIP3    H126072   6.096   7.056   4.033
 8712TIP3    H226073   6.180   7.178   3.995
 8713TIP3   OH226074   5.881   6.832   2.272
 8713TIP3    H126075   5.920   6.767   2.334
 8713TIP3    H226076   5.941   6.828   2.195
 8714TIP3   OH226077   5.113   6.662   4.386
 8714TIP3    H126078   5.130   6.566   4.391
 8714TIP3    H226079   5.026   6.665   4.342
 8715TIP3   OH226080   5.093   6.309   2.582
 8715TIP3    H126081   5.149   6.278   2.656
 8715TIP3    H226082   5.161   6.314   2.511
 8716TIP3   OH226083   5.721   6.749   4.161
 8716TIP3    H126084   5.679   6.769   4.074
 8716TIP3    H226085   5.752   6.657   4.149
 8717TIP3   OH226086   5.607   6.511   2.387
 8717TIP3    H126087   5.607   6.524   2.484
 8717TIP3    H226088   5.605   6.413   2.382
 8718TIP3   OH226089   6.213   6.760   3.768
 8718TIP3    H126090   6.289   6.803   3.724
 8718TIP3    H226091   6.144   6.827   3.753
 8719TIP3   OH226092   5.233   6.398   4.371
 8719TIP3    H126093   5.310   6.347   4.343
 8719TIP3    H226094   5.260   6.430   4.459
 8720TIP3   OH226095   5.296   6.218   2.800
 8720TIP3    H126096   5.270   6.179   2.885
 8720TIP3    H226097   5.333   6.141   2.752
 8721TIP3   OH226098   5.569   6.280   4.031
 8721TIP3    H126099   5.491   6.339   4.032
 8721TIP3    H226100   5.618   6.315   3.953
 8722TIP3   OH226101   5.401   6.012   2.642
 8722TIP3    H126102   5.375   6.018   2.547
 8722TIP3    H226103   5.499   6.016   2.634
 8723TIP3   OH226104   6.085   6.682   4.163
 8723TIP3    H126105   6.164   6.652   4.115
 8723TIP3    H226106   6.080   6.617   4.236
 8724TIP3   OH226107   6.217   6.338   2.309
 8724TIP3    H126108   6.199   6.294   2.224
 8724TIP3    H226109   6.185   6.429   2.287
 8725TIP3   OH226110   5.693   6.070   4.154
 8725TIP3    H126111   5.692   5.991   4.096
 8725TIP3    H226112   5.648   6.137   4.098
 8726TIP3   OH226113   5.696   5.855   3.963
 8726TIP3    H126114   5.723   5.897   3.879
 8726TIP3    H226115   5.602   5.833   3.945
 8727TIP3   OH226116   5.718   6.390   3.837
 8727TIP3    H126117   5.803   6.403   3.794
 8727TIP3    H226118   5.661   6.456   3.791
 8728TIP3   OH226119   6.302   6.357   4.217
 8728TIP3    H126120   6.350   6.273   4.225
 8728TIP3    H226121   6.369   6.415   4.178
 8729TIP3   OH226122   6.343   6.611   3.953
 8729TIP3    H126123   6.285   6.666   3.894
 8729TIP3    H226124   6.431   6.632   3.914
 8730TIP3   OH226125   5.572   6.175   4.389
 8730TIP3    H126126   5.503   6.108   4.404
 8730TIP3    H226127   5.604   6.150   4.300
 8731TIP3   OH226128   5.826   5.618   4.034
 8731TIP3    H126129   5.778   5.700   4.010
 8731TIP3    H226130   5.756   5.550   4.022
 8732TIP3   OH226131   5.953   6.120   4.247
 8732TIP3    H126132   5.935   6.106   4.343
 8732TIP3    H226133   5.864   6.097   4.213
 8733TIP3   OH226134   6.191   6.071   4.103
 8733TIP3    H126135   6.115   6.073   4.165
 8733TIP3    H226136   6.264   6.041   4.160
 8734TIP3   OH226137   6.420   6.015   4.254
 8734TIP3    H126138   6.433   5.919   4.269
 8734TIP3    H226139   6.416   6.050   4.345
 8735TIP3   OH226140   5.409   5.956   4.443
 8735TIP3    H126141   5.413   5.864   4.410
 8735TIP3    H226142   5.446   5.945   4.533
 8736TIP3   OH226143   5.921   5.628   4.291
 8736TIP3    H126144   5.986   5.556   4.284
 8736TIP3    H226145   5.879   5.624   4.203
 8737TIP3   OH226146   5.987   5.843   4.449
 8737TIP3    H126147   5.964   5.772   4.385
 8737TIP3    H226148   5.908   5.901   4.442
 8738TIP3   OH226149   5.210   7.072   2.549
 8738TIP3    H126150   5.305   7.064   2.529
 8738TIP3    H226151   5.181   7.124   2.471
 8739TIP3   OH226152   4.687   6.454   2.761
 8739TIP3    H126153   4.782   6.475   2.748
 8739TIP3    H226154   4.681   6.365   2.720
 8740TIP3   OH226155   4.603   7.066   3.182
 8740TIP3    H126156   4.536   7.005   3.144
 8740TIP3    H226157   4.648   7.006   3.246
 8741TIP3   OH226158   4.740   6.908   3.363
 8741TIP3    H126159   4.726   6.841   3.432
 8741TIP3    H226160   4.792   6.974   3.414
 8742TIP3   OH226161   6.467   7.316   3.167
 8742TIP3    H126162   6.492   7.346   3.256
 8742TIP3    H226163   6.533   7.359   3.110
 8743TIP3   OH226164   6.495   7.336   3.449
 8743TIP3    H126165   6.450   7.249   3.445
 8743TIP3    H226166   6.569   7.313   3.507
 8744TIP3   OH226167   6.541   7.013   4.022
 8744TIP3    H126168   6.469   7.023   4.087
 8744TIP3    H226169   6.584   7.101   4.026
 8745TIP3   OH226170   6.359   6.526   2.639
 8745TIP3    H126171   6.426   6.591   2.610
 8745TIP3    H226172   6.403   6.488   2.718
 8746TIP3   OH226173   6.485   6.393   2.843
 8746TIP3    H126174   6.419   6.352   2.903
 8746TIP3    H226175   6.552   6.429   2.906
 8747TIP3   OH226176   6.541   6.787   3.275
 8747TIP3    H126177   6.595   6.720   3.228
 8747TIP3    H226178   6.537   6.859   3.209
 8748TIP3   OH226179   6.369   7.086   3.469
 8748TIP3    H126180   6.297   7.128   3.521
 8748TIP3    H226181   6.318   7.040   3.399
 8749TIP3   OH226182   6.422   6.302   2.489
 8749TIP3    H126183   6.349   6.304   2.423
 8749TIP3    H226184   6.396   6.378   2.545
 8750TIP3   OH226185   6.291   5.974   2.443
 8750TIP3    H126186   6.249   6.008   2.363
 8750TIP3    H226187   6.270   5.878   2.436
 8751TIP3   OH226188   6.297   6.252   2.988
 8751TIP3    H126189   6.305   6.155   2.982
 8751TIP3    H226190   6.282   6.265   3.084
 8752TIP3   OH226191   4.923   6.322   3.739
 8752TIP3    H126192   4.920   6.289   3.646
 8752TIP3    H226193   5.021   6.325   3.754
 8753TIP3   OH226194   6.588   6.676   3.848
 8753TIP3    H126195   6.659   6.609   3.836
 8753TIP3    H226196   6.614   6.745   3.784
 8754TIP3   OH226197   6.770   6.476   3.855
 8754TIP3    H126198   6.696   6.427   3.897
 8754TIP3    H226199   6.844   6.414   3.873
 8755TIP3   OH226200   6.237   5.708   2.425
 8755TIP3    H126201   6.310   5.676   2.482
 8755TIP3    H226202   6.163   5.649   2.449
 8756TIP3   OH226203   6.295   5.968   2.881
 8756TIP3    H126204   6.336   5.879   2.896
 8756TIP3    H226205   6.353   6.001   2.810
 8757TIP3   OH226206   6.455   6.137   3.379
 8757TIP3    H126207   6.540   6.163   3.338
 8757TIP3    H226208   6.469   6.176   3.468
 8758TIP3   OH226209   6.527   6.285   3.610
 8758TIP3    H126210   6.449   6.319   3.659
 8758TIP3    H226211   6.559   6.366   3.565
 8759TIP3   OH226212   5.142   6.010   4.411
 8759TIP3    H126213   5.240   6.005   4.416
 8759TIP3    H226214   5.119   5.923   4.450
 8760TIP3   OH226215   6.976   5.878   4.166
 8760TIP3    H126216   7.037   5.813   4.123
 8760TIP3    H226217   6.946   5.931   4.089
 8761TIP3   OH226218   6.404   5.718   2.922
 8761TIP3    H126219   6.451   5.701   3.006
 8761TIP3    H226220   6.343   5.641   2.919
 8762TIP3   OH226221   5.104   5.703   3.743
 8762TIP3    H126222   5.166   5.628   3.751
 8762TIP3    H226223   5.166   5.777   3.734
 8763TIP3   OH226224   4.904   5.975   3.813
 8763TIP3    H126225   4.954   5.971   3.729
 8763TIP3    H226226   4.932   6.060   3.848
 8764TIP3   OH226227   6.845   6.013   3.971
 8764TIP3    H126228   6.759   6.056   3.989
 8764TIP3    H226229   6.814   5.940   3.913
 8765TIP3   OH226230   6.480   5.649   2.556
 8765TIP3    H126231   6.521   5.579   2.500
 8765TIP3    H226232   6.548   5.720   2.552
 8766TIP3   OH226233   4.891   5.482   3.317
 8766TIP3    H126234   4.797   5.474   3.343
 8766TIP3    H226235   4.885   5.539   3.237
 8767TIP3   OH226236   6.047   7.185   2.820
 8767TIP3    H126237   6.102   7.174   2.740
 8767TIP3    H226238   6.100   7.249   2.871
 8768TIP3   OH226239   5.110   5.556   4.128
 8768TIP3    H126240   5.059   5.553   4.211
 8768TIP3    H226241   5.044   5.598   4.068
 8769TIP3   OH226242   5.150   6.987   4.204
 8769TIP3    H126243   5.056   6.965   4.190
 8769TIP3    H226244   5.159   6.972   4.299
 8770TIP3   OH226245   5.330   7.023   3.754
 8770TIP3    H126246   5.281   7.098   3.716
 8770TIP3    H226247   5.416   7.037   3.708
 8771TIP3   OH226248   5.769   7.264   3.890
 8771TIP3    H126249   5.811   7.263   3.979
 8771TIP3    H226250   5.835   7.316   3.840
 8772TIP3   OH226251   5.950   7.419   3.753
 8772TIP3    H126252   6.020   7.367   3.711
 8772TIP3    H226253   6.002   7.476   3.813
 8773TIP3   OH226254   6.746   5.778   3.851
 8773TIP3    H126255   6.656   5.770   3.813
 8773TIP3    H226256   6.779   5.685   3.839
 8774TIP3   OH226257   5.008   7.272   3.783
 8774TIP3    H126258   4.919   7.305   3.755
 8774TIP3    H226259   5.019   7.321   3.865
 8775TIP3   OH226260   5.241   7.256   3.636
 8775TIP3    H126261   5.154   7.267   3.681
 8775TIP3    H226262   5.222   7.291   3.547
 8776TIP3   OH226263   5.666   7.282   3.435
 8776TIP3    H126264   5.595   7.300   3.370
 8776TIP3    H226265   5.677   7.370   3.476
 8777TIP3   OH226266   5.935   7.222   3.487
 8777TIP3    H126267   5.841   7.239   3.468
 8777TIP3    H226268   5.978   7.296   3.443
 8778TIP3   OH226269   6.141   7.413   3.399
 8778TIP3    H126270   6.127   7.498   3.351
 8778TIP3    H226271   6.167   7.353   3.326
 8779TIP3   OH226272   4.909   7.062   3.525
 8779TIP3    H126273   4.937   7.033   3.614
 8779TIP3    H226274   4.986   7.029   3.472
 8780TIP3   OH226275   5.111   6.944   3.382
 8780TIP3    H126276   5.125   6.861   3.432
 8780TIP3    H226277   5.202   6.981   3.379
 8781TIP3   OH226278   5.379   7.035   3.386
 8781TIP3    H126279   5.407   6.942   3.377
 8781TIP3    H226280   5.425   7.059   3.468
 8782TIP3   OH226281   5.953   5.693   3.473
 8782TIP3    H126282   5.910   5.621   3.522
 8782TIP3    H226283   6.025   5.646   3.426
 8783TIP3   OH226284   6.472   5.574   3.377
 8783TIP3    H126285   6.508   5.625   3.301
 8783TIP3    H226286   6.376   5.593   3.368
 8784TIP3   OH226287   6.568   5.671   3.139
 8784TIP3    H126288   6.641   5.619   3.100
 8784TIP3    H226289   6.602   5.762   3.125
 8785TIP3   OH226290   5.198   5.400   3.486
 8785TIP3    H126291   5.105   5.368   3.487
 8785TIP3    H226292   5.246   5.315   3.482
 8786TIP3   OH226293   4.989   5.273   3.138
 8786TIP3    H126294   5.018   5.328   3.063
 8786TIP3    H226295   4.961   5.340   3.204
 8787TIP3   OH226296   5.644   5.435   3.367
 8787TIP3    H126297   5.703   5.480   3.303
 8787TIP3    H226298   5.672   5.475   3.451
 8788TIP3   OH226299   6.189   5.584   3.347
 8788TIP3    H126300   6.189   5.541   3.260
 8788TIP3    H226301   6.182   5.505   3.407
 8789TIP3   OH226302   6.221   5.506   2.914
 8789TIP3    H126303   6.134   5.548   2.930
 8789TIP3    H226304   6.207   5.419   2.957
 8790TIP3   OH226305   4.704   6.846   2.912
 8790TIP3    H126306   4.618   6.815   2.878
 8790TIP3    H226307   4.696   6.941   2.890
 8791TIP3   OH226308   5.106   5.431   2.896
 8791TIP3    H126309   5.153   5.366   2.840
 8791TIP3    H226310   5.181   5.483   2.932
 8792TIP3   OH226311   5.615   5.609   2.994
 8792TIP3    H126312   5.673   5.560   3.054
 8792TIP3    H226313   5.637   5.701   3.021
 8793TIP3   OH226314   5.476   7.026   2.496
 8793TIP3    H126315   5.564   7.050   2.459
 8793TIP3    H226316   5.454   6.951   2.436
 8794TIP3   OH226317   6.197   7.151   2.589
 8794TIP3    H126318   6.188   7.054   2.578
 8794TIP3    H226319   6.150   7.183   2.509
 8795TIP3   OH226320   5.407   5.681   4.377
 8795TIP3    H126321   5.372   5.610   4.434
 8795TIP3    H226322   5.501   5.681   4.405
 8796TIP3   OH226323   5.656   5.679   4.496
 8796TIP3    H126324   5.741   5.652   4.459
 8796TIP3    H226325   5.642   5.609   4.564
 8797TIP3   OH226326   4.779   6.866   2.550
 8797TIP3    H126327   4.780   6.887   2.645
 8797TIP3    H226328   4.867   6.823   2.537
 8798TIP3   OH226329   6.483   5.744   4.283
 8798TIP3    H126330   6.502   5.713   4.374
 8798TIP3    H226331   6.572   5.739   4.242
 8799TIP3   OH226332   6.418   7.292   3.776
 8799TIP3    H126333   6.339   7.263   3.726
 8799TIP3    H226334   6.400   7.388   3.782
 8800TIP3   OH226335   7.682   6.666   2.547
 8800TIP3    H126336   7.653   6.756   2.525
 8800TIP3    H226337   7.609   6.613   2.510
 8801TIP3   OH226338   7.675   6.664   2.930
 8801TIP3    H126339   7.716   6.642   3.016
 8801TIP3    H226340   7.638   6.578   2.904
 8802TIP3   OH226341   6.983   6.559   3.291
 8802TIP3    H126342   7.013   6.491   3.354
 8802TIP3    H226343   7.063   6.612   3.281
 8803TIP3   OH226344   7.909   6.962   2.617
 8803TIP3    H126345   7.910   6.882   2.671
 8803TIP3    H226346   7.924   7.030   2.684
 8804TIP3   OH226347   6.958   6.971   3.009
 8804TIP3    H126348   6.949   6.873   3.011
 8804TIP3    H226349   7.055   6.980   3.006
 8805TIP3   OH226350   6.664   6.172   2.793
 8805TIP3    H126351   6.616   6.255   2.812
 8805TIP3    H226352   6.593   6.120   2.751
 8806TIP3   OH226353   6.721   6.460   2.973
 8806TIP3    H126354   6.771   6.383   3.008
 8806TIP3    H226355   6.784   6.497   2.910
 8807TIP3   OH226356   7.598   7.400   2.627
 8807TIP3    H126357   7.660   7.326   2.626
 8807TIP3    H226358   7.561   7.391   2.716
 8808TIP3   OH226359   7.484   6.892   2.971
 8808TIP3    H126360   7.526   6.814   2.933
 8808TIP3    H226361   7.565   6.942   2.995
 8809TIP3   OH226362   8.488   6.227   2.971
 8809TIP3    H126363   8.525   6.301   3.022
 8809TIP3    H226364   8.523   6.245   2.883
 8810TIP3   OH226365   7.895   6.395   3.000
 8810TIP3    H126366   7.938   6.310   3.024
 8810TIP3    H226367   7.864   6.375   2.910
 8811TIP3   OH226368   7.238   6.053   2.968
 8811TIP3    H126369   7.219   6.125   2.905
 8811TIP3    H226370   7.189   5.979   2.924
 8812TIP3   OH226371   7.934   6.144   2.594
 8812TIP3    H126372   8.008   6.127   2.657
 8812TIP3    H226373   7.984   6.178   2.518
 8813TIP3   OH226374   6.869   6.254   3.077
 8813TIP3    H126375   6.953   6.235   3.124
 8813TIP3    H226376   6.883   6.199   2.996
 8814TIP3   OH226377   7.309   6.452   2.872
 8814TIP3    H126378   7.403   6.428   2.884
 8814TIP3    H226379   7.271   6.368   2.839
 8815TIP3   OH226380   7.232   6.036   3.403
 8815TIP3    H126381   7.174   6.073   3.334
 8815TIP3    H226382   7.179   6.055   3.483
 8816TIP3   OH226383   7.581   6.894   2.402
 8816TIP3    H126384   7.525   6.866   2.328
 8816TIP3    H226385   7.535   6.976   2.431
 8817TIP3   OH226386   7.338   6.812   3.194
 8817TIP3    H126387   7.279   6.881   3.230
 8817TIP3    H226388   7.383   6.860   3.122
 8818TIP3   OH226389   8.144   6.148   2.771
 8818TIP3    H126390   8.117   6.110   2.856
 8818TIP3    H226391   8.189   6.230   2.799
 8819TIP3   OH226392   7.104   6.151   3.186
 8819TIP3    H126393   7.166   6.224   3.209
 8819TIP3    H226394   7.154   6.110   3.111
 8820TIP3   OH226395   7.168   7.009   3.294
 8820TIP3    H126396   7.144   7.097   3.259
 8820TIP3    H226397   7.089   6.992   3.350
 8821TIP3   OH226398   6.559   6.698   2.531
 8821TIP3    H126399   6.519   6.726   2.447
 8821TIP3    H226400   6.591   6.784   2.567
 8822TIP3   OH226401   8.298   6.099   3.133
 8822TIP3    H126402   8.212   6.140   3.114
 8822TIP3    H226403   8.356   6.141   3.066
 8823TIP3   OH226404   7.584   5.752   3.116
 8823TIP3    H126405   7.570   5.657   3.137
 8823TIP3    H226406   7.508   5.791   3.164
 8824TIP3   OH226407   7.832   7.048   2.371
 8824TIP3    H126408   7.754   6.992   2.351
 8824TIP3    H226409   7.853   7.014   2.462
 8825TIP3   OH226410   7.518   6.520   2.376
 8825TIP3    H126411   7.437   6.569   2.352
 8825TIP3    H226412   7.563   6.511   2.290
 8826TIP3   OH226413   7.476   6.304   2.084
 8826TIP3    H126414   7.543   6.356   2.132
 8826TIP3    H226415   7.534   6.241   2.036
 8827TIP3   OH226416   8.433   6.704   2.958
 8827TIP3    H126417   8.384   6.786   2.979
 8827TIP3    H226418   8.529   6.733   2.960
 8828TIP3   OH226419   7.855   6.584   2.352
 8828TIP3    H126420   7.805   6.610   2.433
 8828TIP3    H226421   7.941   6.559   2.393
 8829TIP3   OH226422   8.096   6.635   3.263
 8829TIP3    H126423   8.097   6.716   3.317
 8829TIP3    H226424   8.010   6.644   3.218
 8830TIP3   OH226425   7.099   6.597   2.761
 8830TIP3    H126426   7.058   6.538   2.694
 8830TIP3    H226427   7.175   6.543   2.793
 8831TIP3   OH226428   7.228   7.011   2.907
 8831TIP3    H126429   7.210   6.971   2.821
 8831TIP3    H226430   7.317   6.976   2.928
 8832TIP3   OH226431   7.229   6.571   3.115
 8832TIP3    H126432   7.265   6.545   3.028
 8832TIP3    H226433   7.276   6.655   3.134
 8833TIP3   OH226434   7.724   7.194   2.862
 8833TIP3    H126435   7.751   7.273   2.913
 8833TIP3    H226436   7.730   7.123   2.929
 8834TIP3   OH226437   7.372   7.124   3.442
 8834TIP3    H126438   7.311   7.186   3.489
 8834TIP3    H226439   7.307   7.072   3.391
 8835TIP3   OH226440   7.696   6.458   2.169
 8835TIP3    H126441   7.759   6.510   2.225
 8835TIP3    H226442   7.728   6.482   2.079
 8836TIP3   OH226443   7.128   6.679   3.546
 8836TIP3    H126444   7.132   6.769   3.586
 8836TIP3    H226445   7.033   6.661   3.556
 8837TIP3   OH226446   7.460   7.146   2.439
 8837TIP3    H126447   7.478   7.219   2.499
 8837TIP3    H226448   7.385   7.180   2.387
 8838TIP3   OH226449   7.165   7.291   3.527
 8838TIP3    H126450   7.131   7.292   3.435
 8838TIP3    H226451   7.084   7.271   3.579
 8839TIP3   OH226452   8.209   5.705   2.208
 8839TIP3    H126453   8.133   5.711   2.269
 8839TIP3    H226454   8.240   5.796   2.205
 8840TIP3   OH226455   6.966   6.441   2.564
 8840TIP3    H126456   6.895   6.484   2.511
 8840TIP3    H226457   6.929   6.353   2.578
 8841TIP3   OH226458   6.744   6.826   3.474
 8841TIP3    H126459   6.677   6.804   3.406
 8841TIP3    H226460   6.782   6.738   3.496
 8842TIP3   OH226461   6.600   7.018   3.103
 8842TIP3    H126462   6.696   7.011   3.096
 8842TIP3    H226463   6.591   7.095   3.161
 8843TIP3   OH226464   7.558   7.261   3.291
 8843TIP3    H126465   7.560   7.353   3.325
 8843TIP3    H226466   7.492   7.219   3.351
 8844TIP3   OH226467   7.281   7.410   2.257
 8844TIP3    H126468   7.274   7.364   2.171
 8844TIP3    H226469   7.367   7.456   2.249
 8845TIP3   OH226470   6.768   7.232   2.635
 8845TIP3    H126471   6.816   7.224   2.720
 8845TIP3    H226472   6.718   7.148   2.634
 8846TIP3   OH226473   8.349   6.605   3.453
 8846TIP3    H126474   8.299   6.623   3.372
 8846TIP3    H226475   8.385   6.516   3.434
 8847TIP3   OH226476   6.950   7.008   3.458
 8847TIP3    H126477   6.999   6.993   3.541
 8847TIP3    H226478   6.875   6.945   3.467
 8848TIP3   OH226479   7.348   5.830   3.250
 8848TIP3    H126480   7.259   5.800   3.220
 8848TIP3    H226481   7.322   5.911   3.297
 8849TIP3   OH226482   7.885   5.944   3.442
 8849TIP3    H126483   7.955   5.918   3.505
 8849TIP3    H226484   7.803   5.926   3.491
 8850TIP3   OH226485   8.110   6.366   3.351
 8850TIP3    H126486   8.071   6.369   3.441
 8850TIP3    H226487   8.104   6.460   3.323
 8851TIP3   OH226488   7.782   6.514   1.918
 8851TIP3    H126489   7.742   6.483   1.835
 8851TIP3    H226490   7.866   6.551   1.887
 8852TIP3   OH226491   7.490   5.880   2.217
 8852TIP3    H126492   7.458   5.876   2.310
 8852TIP3    H226493   7.453   5.795   2.184
 8853TIP3   OH226494   7.280   6.348   3.264
 8853TIP3    H126495   7.231   6.368   3.346
 8853TIP3    H226496   7.263   6.429   3.212
 8854TIP3   OH226497   7.164   6.233   2.779
 8854TIP3    H126498   7.072   6.206   2.798
 8854TIP3    H226499   7.176   6.192   2.691
 8855TIP3   OH226500   7.655   6.317   2.509
 8855TIP3    H126501   7.604   6.388   2.464
 8855TIP3    H226502   7.711   6.284   2.435
 8856TIP3   OH226503   7.830   6.594   3.591
 8856TIP3    H126504   7.810   6.521   3.654
 8856TIP3    H226505   7.924   6.610   3.610
 8857TIP3   OH226506   7.811   6.344   2.743
 8857TIP3    H126507   7.748   6.370   2.673
 8857TIP3    H226508   7.848   6.264   2.700
 8858TIP3   OH226509   7.099   6.375   3.474
 8858TIP3    H126510   7.133   6.438   3.539
 8858TIP3    H226511   7.089   6.294   3.526
 8859TIP3   OH226512   7.149   5.853   2.184
 8859TIP3    H126513   7.140   5.851   2.281
 8859TIP3    H226514   7.071   5.906   2.159
 8860TIP3   OH226515   6.693   5.894   3.056
 8860TIP3    H126516   6.768   5.928   3.110
 8860TIP3    H226517   6.735   5.865   2.974
 8861TIP3   OH226518   6.657   5.876   2.573
 8861TIP3    H126519   6.703   5.914   2.495
 8861TIP3    H226520   6.598   5.950   2.594
 8862TIP3   OH226521   7.813   6.592   3.165
 8862TIP3    H126522   7.851   6.522   3.107
 8862TIP3    H226523   7.789   6.538   3.243
 8863TIP3   OH226524   7.496   6.054   2.839
 8863TIP3    H126525   7.416   6.053   2.896
 8863TIP3    H226526   7.567   6.047   2.905
 8864TIP3   OH226527   6.926   6.112   2.847
 8864TIP3    H126528   6.832   6.118   2.819
 8864TIP3    H226529   6.950   6.020   2.824
 8865TIP3   OH226530   7.191   6.105   2.538
 8865TIP3    H126531   7.285   6.120   2.518
 8865TIP3    H226532   7.145   6.128   2.454
 8866TIP3   OH226533   7.980   6.132   3.037
 8866TIP3    H126534   7.952   6.144   3.131
 8866TIP3    H226535   7.911   6.071   3.006
 8867TIP3   OH226536   7.040   6.142   2.313
 8867TIP3    H126537   6.970   6.096   2.263
 8867TIP3    H226538   7.093   6.179   2.239
 8868TIP3   OH226539   7.111   6.929   3.681
 8868TIP3    H126540   7.191   6.959   3.728
 8868TIP3    H226541   7.046   6.930   3.755
 8869TIP3   OH226542   7.574   6.385   2.936
 8869TIP3    H126543   7.648   6.345   2.888
 8869TIP3    H226544   7.581   6.341   3.023
 8870TIP3   OH226545   7.092   5.870   2.820
 8870TIP3    H126546   7.057   5.792   2.869
 8870TIP3    H226547   7.141   5.828   2.748
 8871TIP3   OH226548   7.550   6.283   3.227
 8871TIP3    H126549   7.461   6.320   3.243
 8871TIP3    H226550   7.609   6.343   3.278
 8872TIP3   OH226551   7.288   6.672   2.319
 8872TIP3    H126552   7.216   6.606   2.307
 8872TIP3    H226553   7.268   6.704   2.410
 8873TIP3   OH226554   8.178   6.837   2.956
 8873TIP3    H126555   8.175   6.913   2.895
 8873TIP3    H226556   8.089   6.799   2.941
 8874TIP3   OH226557   7.744   5.978   2.192
 8874TIP3    H126558   7.647   5.962   2.198
 8874TIP3    H226559   7.753   6.073   2.212
 8875TIP3   OH226560   7.680   6.977   3.322
 8875TIP3    H126561   7.716   6.959   3.410
 8875TIP3    H226562   7.647   7.068   3.330
 8876TIP3   OH226563   7.811   6.230   2.292
 8876TIP3    H126564   7.907   6.234   2.307
 8876TIP3    H226565   7.795   6.306   2.232
 8877TIP3   OH226566   6.980   6.692   2.995
 8877TIP3    H126567   7.020   6.665   2.910
 8877TIP3    H226568   7.028   6.636   3.058
 8878TIP3   OH226569   7.431   6.818   2.136
 8878TIP3    H126570   7.384   6.904   2.146
 8878TIP3    H226571   7.379   6.761   2.198
 8879TIP3   OH226572   6.862   6.613   3.612
 8879TIP3    H126573   6.881   6.599   3.706
 8879TIP3    H226574   6.793   6.546   3.595
 8880TIP3   OH226575   7.590   6.729   3.631
 8880TIP3    H126576   7.531   6.670   3.581
 8880TIP3    H226577   7.678   6.694   3.605
 8881TIP3   OH226578   7.833   7.228   3.243
 8881TIP3    H126579   7.737   7.238   3.231
 8881TIP3    H226580   7.846   7.280   3.326
 8882TIP3   OH226581   7.928   6.763   2.854
 8882TIP3    H126582   7.835   6.737   2.870
 8882TIP3    H226583   7.964   6.682   2.813
 8883TIP3   OH226584   7.083   6.998   2.620
 8883TIP3    H126585   7.076   7.080   2.568
 8883TIP3    H226586   6.990   6.979   2.638
 8884TIP3   OH226587   6.646   6.301   2.328
 8884TIP3    H126588   6.691   6.385   2.350
 8884TIP3    H226589   6.569   6.305   2.389
 8885TIP3   OH226590   7.214   6.761   2.563
 8885TIP3    H126591   7.179   6.850   2.583
 8885TIP3    H226592   7.181   6.710   2.639
 8886TIP3   OH226593   7.349   7.328   3.096
 8886TIP3    H126594   7.389   7.394   3.035
 8886TIP3    H226595   7.429   7.298   3.144
 8887TIP3   OH226596   7.000   7.232   2.476
 8887TIP3    H126597   6.914   7.242   2.521
 8887TIP3    H226598   7.033   7.324   2.482
 8888TIP3   OH226599   7.737   6.974   3.050
 8888TIP3    H126600   7.724   6.969   3.147
 8888TIP3    H226601   7.812   6.913   3.038
 8889TIP3   OH226602   7.632   6.878   1.923
 8889TIP3    H126603   7.714   6.845   1.961
 8889TIP3    H226604   7.566   6.842   1.985
 8890TIP3   OH226605   7.071   6.119   3.617
 8890TIP3    H126606   6.974   6.121   3.629
 8890TIP3    H226607   7.099   6.062   3.691
 8891TIP3   OH226608   7.901   6.777   2.163
 8891TIP3    H126609   7.855   6.729   2.235
 8891TIP3    H226610   7.975   6.716   2.147
 8892TIP3   OH226611   6.789   7.202   3.249
 8892TIP3    H126612   6.844   7.129   3.285
 8892TIP3    H226613   6.815   7.274   3.307
 8893TIP3   OH226614   7.070   6.849   1.934
 8893TIP3    H126615   7.094   6.758   1.907
 8893TIP3    H226616   7.052   6.836   2.030
 8894TIP3   OH226617   7.021   6.852   2.207
 8894TIP3    H126618   7.095   6.826   2.263
 8894TIP3    H226619   7.023   6.950   2.216
 8895TIP3   OH226620   6.756   6.544   2.410
 8895TIP3    H126621   6.690   6.590   2.467
 8895TIP3    H226622   6.771   6.613   2.343
 8896TIP3   OH226623   7.910   6.181   3.296
 8896TIP3    H126624   7.989   6.228   3.329
 8896TIP3    H226625   7.905   6.103   3.355
 8897TIP3   OH226626   7.790   5.931   2.471
 8897TIP3    H126627   7.778   5.953   2.377
 8897TIP3    H226628   7.832   6.013   2.506
 8898TIP3   OH226629   7.290   7.048   2.166
 8898TIP3    H126630   7.199   7.068   2.197
 8898TIP3    H226631   7.301   7.122   2.104
 8899TIP3   OH226632   7.473   6.116   2.570
 8899TIP3    H126633   7.539   6.187   2.552
 8899TIP3    H226634   7.482   6.106   2.667
 8900TIP3   OH226635   7.749   6.429   3.375
 8900TIP3    H126636   7.775   6.483   3.453
 8900TIP3    H226637   7.806   6.351   3.384
 8901TIP3   OH226638   7.620   5.833   2.669
 8901TIP3    H126639   7.616   5.910   2.729
 8901TIP3    H226640   7.683   5.868   2.601
 8902TIP3   OH226641   7.033   7.123   2.225
 8902TIP3    H126642   7.003   7.195   2.164
 8902TIP3    H226643   7.020   7.168   2.312
 8903TIP3   OH226644   7.134   5.840   2.460
 8903TIP3    H126645   7.132   5.930   2.498
 8903TIP3    H226646   7.231   5.822   2.467
 8904TIP3   OH226647   8.384   6.347   3.352
 8904TIP3    H126648   8.287   6.339   3.354
 8904TIP3    H226649   8.403   6.317   3.262
 8905TIP3   OH226650   8.033   6.528   2.745
 8905TIP3    H126651   7.960   6.465   2.756
 8905TIP3    H226652   8.106   6.484   2.793
 8906TIP3   OH226653   6.753   6.751   2.214
 8906TIP3    H126654   6.824   6.817   2.223
 8906TIP3    H226655   6.796   6.692   2.147
 8907TIP3   OH226656   6.694   6.030   2.349
 8907TIP3    H126657   6.695   6.127   2.346
 8907TIP3    H226658   6.614   6.009   2.301
 8908TIP3   OH226659   7.083   5.750   3.219
 8908TIP3    H126660   7.053   5.716   3.132
 8908TIP3    H226661   7.072   5.671   3.276
 8909TIP3   OH226662   6.620   6.969   2.599
 8909TIP3    H126663   6.556   7.000   2.665
 8909TIP3    H226664   6.585   7.013   2.517
 8910TIP3   OH226665   6.783   7.518   3.672
 8910TIP3    H126666   6.869   7.520   3.721
 8910TIP3    H226667   6.764   7.423   3.672
 8911TIP3   OH226668   7.256   7.471   3.719
 8911TIP3    H126669   7.351   7.456   3.727
 8911TIP3    H226670   7.233   7.410   3.646
 8912TIP3   OH226671   7.240   7.047   1.845
 8912TIP3    H126672   7.183   6.975   1.882
 8912TIP3    H226673   7.313   6.994   1.807
 8913TIP3   OH226674   7.896   7.374   3.464
 8913TIP3    H126675   7.892   7.306   3.534
 8913TIP3    H226676   7.978   7.421   3.487
 8914TIP3   OH226677   6.909   6.919   3.874
 8914TIP3    H126678   6.926   6.823   3.879
 8914TIP3    H226679   6.822   6.922   3.828
 8915TIP3   OH226680   6.888   6.565   2.070
 8915TIP3    H126681   6.945   6.534   2.142
 8915TIP3    H226682   6.954   6.570   1.997
 8916TIP3   OH226683   7.515   7.002   3.649
 8916TIP3    H126684   7.477   7.025   3.562
 8916TIP3    H226685   7.548   6.911   3.636
 8917TIP3   OH226686   7.364   6.752   1.874
 8917TIP3    H126687   7.376   6.768   1.970
 8917TIP3    H226688   7.385   6.656   1.869
 8918TIP3   OH226689   8.002   7.009   3.252
 8918TIP3    H126690   8.068   7.061   3.205
 8918TIP3    H226691   7.925   7.070   3.250
 8919TIP3   OH226692   7.029   6.653   3.858
 8919TIP3    H126693   7.108   6.608   3.828
 8919TIP3    H226694   7.058   6.686   3.946
 8920TIP3   OH226695   7.093   6.475   2.286
 8920TIP3    H126696   7.067   6.435   2.370
 8920TIP3    H226697   7.131   6.399   2.237
 8921TIP3   OH226698   7.362   6.533   3.516
 8921TIP3    H126699   7.287   6.596   3.518
 8921TIP3    H226700   7.414   6.569   3.439
 8922TIP3   OH226701   7.198   6.269   2.128
 8922TIP3    H126702   7.173   6.275   2.034
 8922TIP3    H226703   7.296   6.272   2.121
 8923TIP3   OH226704   7.885   6.935   3.644
 8923TIP3    H126705   7.964   6.905   3.595
 8923TIP3    H226706   7.884   6.871   3.718
 8924TIP3   OH226707   7.486   6.326   3.643
 8924TIP3    H126708   7.490   6.248   3.585
 8924TIP3    H226709   7.444   6.393   3.585
 8925TIP3   OH226710   7.491   6.113   3.451
 8925TIP3    H126711   7.520   6.154   3.368
 8925TIP3    H226712   7.398   6.090   3.431
 8926TIP3   OH226713   7.513   6.645   3.325
 8926TIP3    H126714   7.600   6.657   3.284
 8926TIP3    H226715   7.459   6.712   3.278
 8927TIP3   OH226716   8.103   6.613   3.702
 8927TIP3    H126717   8.150   6.529   3.707
 8927TIP3    H226718   8.171   6.669   3.661
 8928TIP3   OH226719   8.112   6.870   3.457
 8928TIP3    H126720   8.061   6.921   3.391
 8928TIP3    H226721   8.201   6.875   3.414
 8929TIP3   OH226722   7.366   6.432   3.876
 8929TIP3    H126723   7.298   6.364   3.890
 8929TIP3    H226724   7.401   6.408   3.788
 8930TIP3   OH226725   7.622   5.875   3.522
 8930TIP3    H126726   7.574   5.957   3.497
 8930TIP3    H226727   7.553   5.807   3.509
 8931TIP3   OH226728   7.748   6.377   3.735
 8931TIP3    H126729   7.736   6.364   3.831
 8931TIP3    H226730   7.659   6.353   3.704
 8932TIP3   OH226731   7.988   6.330   3.590
 8932TIP3    H126732   7.913   6.331   3.654
 8932TIP3    H226733   8.063   6.301   3.646
 8933TIP3   OH226734   8.212   6.271   3.741
 8933TIP3    H126735   8.227   6.175   3.756
 8933TIP3    H226736   8.214   6.308   3.832
 8934TIP3   OH226737   7.203   6.213   3.931
 8934TIP3    H126738   7.210   6.122   3.897
 8934TIP3    H226739   7.242   6.201   4.020
 8935TIP3   OH226740   7.713   5.882   3.781
 8935TIP3    H126741   7.782   5.813   3.773
 8935TIP3    H226742   7.675   5.880   3.691
 8936TIP3   OH226743   7.780   6.097   3.939
 8936TIP3    H126744   7.760   6.027   3.873
 8936TIP3    H226745   7.703   6.157   3.930
 8937TIP3   OH226746   6.999   7.329   2.044
 8937TIP3    H126747   7.094   7.315   2.030
 8937TIP3    H226748   6.977   7.376   1.960
 8938TIP3   OH226749   6.484   6.711   2.248
 8938TIP3    H126750   6.579   6.732   2.236
 8938TIP3    H226751   6.479   6.622   2.208
 8939TIP3   OH226752   6.401   7.322   2.667
 8939TIP3    H126753   6.334   7.261   2.629
 8939TIP3    H226754   6.445   7.263   2.732
 8940TIP3   OH226755   6.534   7.168   2.853
 8940TIP3    H126756   6.522   7.098   2.920
 8940TIP3    H226757   6.586   7.232   2.905
 8941TIP3   OH226758   8.052   6.244   1.939
 8941TIP3    H126759   8.041   6.261   1.844
 8941TIP3    H226760   8.045   6.147   1.941
 8942TIP3   OH226761   8.084   6.502   2.474
 8942TIP3    H126762   8.101   6.407   2.471
 8942TIP3    H226763   8.079   6.520   2.570
 8943TIP3   OH226764   6.719   6.580   3.225
 8943TIP3    H126765   6.717   6.546   3.133
 8943TIP3    H226766   6.816   6.582   3.241
 8944TIP3   OH226767   8.339   6.909   3.314
 8944TIP3    H126768   8.429   6.879   3.340
 8944TIP3    H226769   8.362   6.972   3.244
 8945TIP3   OH226770   8.024   5.970   1.939
 8945TIP3    H126771   8.086   5.908   1.977
 8945TIP3    H226772   7.945   5.915   1.924
 8946TIP3   OH226773   8.086   6.222   2.375
 8946TIP3    H126774   8.124   6.132   2.390
 8946TIP3    H226775   8.139   6.251   2.300
 8947TIP3   OH226776   8.251   6.398   2.852
 8947TIP3    H126777   8.334   6.436   2.821
 8947TIP3    H226778   8.256   6.426   2.947
 8948TIP3   OH226779   8.293   6.514   3.093
 8948TIP3    H126780   8.228   6.565   3.146
 8948TIP3    H226781   8.348   6.586   3.055
 8949TIP3   OH226782   6.937   6.264   3.896
 8949TIP3    H126783   7.035   6.260   3.901
 8949TIP3    H226784   6.914   6.178   3.937
 8950TIP3   OH226785   8.181   5.973   2.421
 8950TIP3    H126786   8.245   5.948   2.491
 8950TIP3    H226787   8.125   5.893   2.417
 8951TIP3   OH226788   6.900   5.960   3.230
 8951TIP3    H126789   6.962   5.885   3.238
 8951TIP3    H226790   6.962   6.034   3.221
 8952TIP3   OH226791   6.700   6.232   3.300
 8952TIP3    H126792   6.750   6.227   3.217
 8952TIP3    H226793   6.729   6.316   3.336
 8953TIP3   OH226794   6.686   5.735   2.802
 8953TIP3    H126795   6.593   5.730   2.831
 8953TIP3    H226796   6.681   5.793   2.724
 8954TIP3   OH226797   6.906   5.814   3.616
 8954TIP3    H126798   6.855   5.812   3.699
 8954TIP3    H226799   6.841   5.853   3.555
 8955TIP3   OH226800   6.945   7.245   3.690
 8955TIP3    H126801   6.851   7.221   3.677
 8955TIP3    H226802   6.957   7.229   3.784
 8956TIP3   OH226803   7.123   7.279   3.243
 8956TIP3    H126804   7.077   7.354   3.201
 8956TIP3    H226805   7.210   7.289   3.197
 8957TIP3   OH226806   7.582   7.533   3.373
 8957TIP3    H126807   7.614   7.525   3.466
 8957TIP3    H226808   7.654   7.586   3.335
 8958TIP3   OH226809   8.520   6.003   3.356
 8958TIP3    H126810   8.460   6.048   3.294
 8958TIP3    H226811   8.577   5.952   3.297
 8959TIP3   OH226812   6.797   7.535   3.266
 8959TIP3    H126813   6.707   7.567   3.246
 8959TIP3    H226814   6.813   7.578   3.351
 8960TIP3   OH226815   7.028   7.507   3.122
 8960TIP3    H126816   6.941   7.519   3.166
 8960TIP3    H226817   7.007   7.538   3.031
 8961TIP3   OH226818   7.446   7.513   2.923
 8961TIP3    H126819   7.423   7.569   2.847
 8961TIP3    H226820   7.479   7.581   2.986
 8962TIP3   OH226821   6.712   7.326   3.009
 8962TIP3    H126822   6.738   7.298   3.099
 8962TIP3    H226823   6.784   7.284   2.958
 8963TIP3   OH226824   6.907   7.200   2.868
 8963TIP3    H126825   6.921   7.115   2.917
 8963TIP3    H226826   6.999   7.235   2.867
 8964TIP3   OH226827   7.174   7.290   2.877
 8964TIP3    H126828   7.203   7.197   2.868
 8964TIP3    H226829   7.224   7.314   2.957
 8965TIP3   OH226830   7.745   5.947   2.954
 8965TIP3    H126831   7.705   5.876   3.007
 8965TIP3    H226832   7.821   5.903   2.912
 8966TIP3   OH226833   8.272   5.828   2.857
 8966TIP3    H126834   8.305   5.882   2.782
 8966TIP3    H226835   8.177   5.850   2.857
 8967TIP3   OH226836   8.378   5.923   2.616
 8967TIP3    H126837   8.448   5.864   2.586
 8967TIP3    H226838   8.422   6.009   2.618
 8968TIP3   OH226839   6.995   5.656   2.972
 8968TIP3    H126840   6.903   5.623   2.974
 8968TIP3    H226841   7.044   5.571   2.968
 8969TIP3   OH226842   6.784   5.529   2.623
 8969TIP3    H126843   6.814   5.586   2.549
 8969TIP3    H226844   6.757   5.596   2.690
 8970TIP3   OH226845   7.441   5.689   2.855
 8970TIP3    H126846   7.497   5.736   2.790
 8970TIP3    H226847   7.472   5.727   2.939
 8971TIP3   OH226848   7.983   5.837   2.837
 8971TIP3    H126849   7.990   5.797   2.750
 8971TIP3    H226850   7.973   5.758   2.895
 8972TIP3   OH226851   8.013   5.758   2.400
 8972TIP3    H126852   7.926   5.800   2.416
 8972TIP3    H226853   7.999   5.671   2.445
 8973TIP3   OH226854   6.499   7.102   2.397
 8973TIP3    H126855   6.413   7.069   2.365
 8973TIP3    H226856   6.490   7.196   2.375
 8974TIP3   OH226857   6.903   5.687   2.383
 8974TIP3    H126858   6.950   5.623   2.326
 8974TIP3    H226859   6.977   5.740   2.419
 8975TIP3   OH226860   7.411   5.865   2.482
 8975TIP3    H126861   7.472   5.818   2.542
 8975TIP3    H226862   7.432   5.957   2.508
 8976TIP3   OH226863   7.266   7.272   2.003
 8976TIP3    H126864   7.332   7.331   1.958
 8976TIP3    H226865   7.254   7.203   1.933
 8977TIP3   OH226866   7.203   5.936   3.863
 8977TIP3    H126867   7.169   5.866   3.921
 8977TIP3    H226868   7.297   5.938   3.890
 8978TIP3   OH226869   7.452   5.936   3.982
 8978TIP3    H126870   7.538   5.914   3.941
 8978TIP3    H226871   7.443   5.864   4.047
 8979TIP3   OH226872   6.575   7.121   2.038
 8979TIP3    H126873   6.581   7.141   2.132
 8979TIP3    H226874   6.662   7.078   2.021
 8980TIP3   OH226875   8.275   6.000   3.771
 8980TIP3    H126876   8.298   5.971   3.862
 8980TIP3    H226877   8.363   5.998   3.728
 8981TIP3   OH226878   0.950   6.999   4.657
 8981TIP3    H126879   0.979   7.089   4.682
 8981TIP3    H226880   0.903   7.020   4.573
 8982TIP3   OH226881   0.389   6.900   4.275
 8982TIP3    H126882   0.451   6.922   4.345
 8982TIP3    H226883   0.428   6.947   4.199
 8983TIP3   OH226884   1.033   7.217   4.835
 8983TIP3    H126885   0.947   7.261   4.816
 8983TIP3    H226886   1.048   7.246   4.926
 8984TIP3   OH226887   0.751   6.903   4.823
 8984TIP3    H126888   0.673   6.941   4.781
 8984TIP3    H226889   0.820   6.930   4.757
 8985TIP3   OH226890   0.673   7.926   4.812
 8985TIP3    H126891   0.654   7.844   4.762
 8985TIP3    H226892   0.696   7.990   4.741
 8986TIP3   OH226893   0.879   7.552   4.652
 8986TIP3    H126894   0.794   7.601   4.659
 8986TIP3    H226895   0.905   7.574   4.560
 8987TIP3   OH226896   0.680   6.485   3.907
 8987TIP3    H126897   0.599   6.507   3.959
 8987TIP3    H226898   0.693   6.569   3.858
 8988TIP3   OH226899   0.819   7.388   5.129
 8988TIP3    H126900   0.764   7.412   5.053
 8988TIP3    H226901   0.822   7.291   5.119
 8989TIP3   OH226902   0.645   7.700   4.649
 8989TIP3    H126903   0.680   7.749   4.571
 8989TIP3    H226904   0.562   7.664   4.616
 8990TIP3   OH226905   0.712   7.108   3.807
 8990TIP3    H126906   0.645   7.068   3.747
 8990TIP3    H226907   0.709   7.200   3.772
 8991TIP3   OH226908   0.923   7.955   4.904
 8991TIP3    H126909   0.826   7.960   4.888
 8991TIP3    H226910   0.952   7.934   4.812
 8992TIP3   OH226911   0.826   7.119   5.052
 8992TIP3    H126912   0.738   7.082   5.066
 8992TIP3    H226913   0.840   7.100   4.958
 8993TIP3   OH226914   0.473   7.313   4.460
 8993TIP3    H126915   0.425   7.233   4.437
 8993TIP3    H226916   0.563   7.275   4.474
 8994TIP3   OH226917   0.483   7.382   3.475
 8994TIP3    H126918   0.434   7.336   3.404
 8994TIP3    H226919   0.465   7.474   3.456
 8995TIP3   OH226920   0.750   7.040   5.484
 8995TIP3    H126921   0.744   6.943   5.468
 8995TIP3    H226922   0.654   7.061   5.483
 8996TIP3   OH226923   0.610   7.559   3.815
 8996TIP3    H126924   0.684   7.620   3.792
 8996TIP3    H226925   0.645   7.518   3.897
 8997TIP3   OH226926   0.736   7.433   4.019
 8997TIP3    H126927   0.669   7.388   4.077
 8997TIP3    H226928   0.800   7.468   4.084
 8998TIP3   OH226929   0.783   7.831   4.455
 8998TIP3    H126930   0.842   7.776   4.401
 8998TIP3    H226931   0.773   7.912   4.403
 8999TIP3   OH226932   0.675   7.342   3.663
 8999TIP3    H126933   0.602   7.344   3.597
 8999TIP3    H226934   0.646   7.417   3.720
 9000TIP3   OH226935   0.538   7.020   3.615
 9000TIP3    H126936   0.487   7.058   3.542
 9000TIP3    H226937   0.523   6.924   3.600
 9001TIP3   OH226938   0.563   7.297   4.176
 9001TIP3    H126939   0.567   7.200   4.167
 9001TIP3    H226940   0.562   7.306   4.273
 9002TIP3   OH226941   0.828   7.713   5.031
 9002TIP3    H126942   0.902   7.651   5.016
 9002TIP3    H226943   0.843   7.782   4.965
 9003TIP3   OH226944   1.029   7.525   5.029
 9003TIP3    H126945   0.955   7.480   5.075
 9003TIP3    H226946   1.100   7.461   5.047
 9004TIP3   OH226947   0.502   6.751   3.596
 9004TIP3    H126948   0.577   6.728   3.655
 9004TIP3    H226949   0.431   6.693   3.632
 9005TIP3   OH226950   0.543   7.005   4.069
 9005TIP3    H126951   0.591   6.919   4.074
 9005TIP3    H226952   0.584   7.045   3.991
 9006TIP3   OH226953   0.783   7.349   4.823
 9006TIP3    H126954   0.686   7.360   4.825
 9006TIP3    H226955   0.808   7.413   4.754
 9007TIP3   OH226956   1.225   6.924   5.341
 9007TIP3    H126957   1.285   6.858   5.298
 9007TIP3    H226958   1.194   6.976   5.264
 9008TIP3   OH226959   0.666   6.756   4.090
 9008TIP3    H126960   0.709   6.749   4.178
 9008TIP3    H226961   0.600   6.684   4.097
 9009TIP3   OH226962   1.091   7.060   5.147
 9009TIP3    H126963   1.008   7.103   5.175
 9009TIP3    H226964   1.056   6.990   5.089
 9010TIP3   OH226965   0.735   6.695   3.731
 9010TIP3    H126966   0.778   6.626   3.677
 9010TIP3    H226967   0.803   6.766   3.732
 9011TIP3   OH226968   0.995   6.822   5.027
 9011TIP3    H126969   0.905   6.812   4.990
 9011TIP3    H226970   1.029   6.730   5.016
 9012TIP3   OH226971   0.736   6.608   4.547
 9012TIP3    H126972   0.774   6.662   4.475
 9012TIP3    H226973   0.644   6.642   4.547
 9013TIP3   OH226974   0.819   6.719   4.316
 9013TIP3    H126975   0.893   6.669   4.276
 9013TIP3    H226976   0.852   6.811   4.300
 9014TIP3   OH226977   0.474   6.658   4.522
 9014TIP3    H126978   0.409   6.660   4.451
 9014TIP3    H226979   0.455   6.574   4.569
 9015TIP3   OH226980   0.478   6.543   4.086
 9015TIP3    H126981   0.391   6.576   4.061
 9015TIP3    H226982   0.455   6.461   4.134
 9016TIP3   OH226983   0.736   6.769   5.457
 9016TIP3    H126984   0.754   6.745   5.550
 9016TIP3    H226985   0.825   6.765   5.417
 9017TIP3   OH226986   1.936   7.695   3.726
 9017TIP3    H126987   1.905   7.782   3.694
 9017TIP3    H226988   1.862   7.640   3.693
 9018TIP3   OH226989   1.943   7.709   4.099
 9018TIP3    H126990   1.973   7.688   4.190
 9018TIP3    H226991   1.896   7.628   4.075
 9019TIP3   OH226992   1.243   7.616   4.479
 9019TIP3    H126993   1.268   7.663   4.561
 9019TIP3    H226994   1.321   7.633   4.422
 9020TIP3   OH226995   2.163   8.015   3.789
 9020TIP3    H126996   2.157   7.945   3.856
 9020TIP3    H226997   2.209   8.085   3.839
 9021TIP3   OH226998   1.261   7.955   4.270
 9021TIP3    H126999   1.235   7.865   4.239
 9021TIP3    H227000   1.346   7.966   4.221
 9022TIP3   OH227001   0.918   7.220   3.969
 9022TIP3    H127002   0.869   7.302   3.988
 9022TIP3    H227003   0.845   7.162   3.942
 9023TIP3   OH227004   0.963   7.512   4.152
 9023TIP3    H127005   1.020   7.437   4.179
 9023TIP3    H227006   1.025   7.560   4.094
 9024TIP3   OH227007   1.751   7.924   4.143
 9024TIP3    H127008   1.800   7.850   4.104
 9024TIP3    H227009   1.827   7.978   4.172
 9025TIP3   OH227010   2.761   7.253   4.146
 9025TIP3    H127011   2.784   7.336   4.192
 9025TIP3    H227012   2.775   7.279   4.053
 9026TIP3   OH227013   2.145   7.434   4.179
 9026TIP3    H127014   2.188   7.349   4.198
 9026TIP3    H227015   2.113   7.419   4.088
 9027TIP3   OH227016   1.486   7.099   4.146
 9027TIP3    H127017   1.461   7.170   4.083
 9027TIP3    H227018   1.436   7.024   4.106
 9028TIP3   OH227019   2.182   7.190   3.765
 9028TIP3    H127020   2.254   7.175   3.831
 9028TIP3    H227021   2.234   7.224   3.691
 9029TIP3   OH227022   1.149   7.328   4.228
 9029TIP3    H127023   1.136   7.283   4.314
 9029TIP3    H227024   1.150   7.253   4.165
 9030TIP3   OH227025   1.556   7.495   4.049
 9030TIP3    H127026   1.651   7.469   4.056
 9030TIP3    H227027   1.516   7.412   4.014
 9031TIP3   OH227028   2.818   7.464   4.322
 9031TIP3    H127029   2.736   7.514   4.303
 9031TIP3    H227030   2.848   7.507   4.404
 9032TIP3   OH227031   1.488   7.082   4.579
 9032TIP3    H127032   1.439   7.127   4.506
 9032TIP3    H227033   1.419   7.074   4.647
 9033TIP3   OH227034   1.840   7.898   3.574
 9033TIP3    H127035   1.778   7.890   3.499
 9033TIP3    H227036   1.835   7.993   3.594
 9034TIP3   OH227037   1.587   7.856   4.375
 9034TIP3    H127038   1.521   7.923   4.405
 9034TIP3    H227039   1.621   7.901   4.295
 9035TIP3   OH227040   2.386   7.193   3.946
 9035TIP3    H127041   2.361   7.154   4.031
 9035TIP3    H227042   2.437   7.271   3.973
 9036TIP3   OH227043   1.375   7.212   4.376
 9036TIP3    H127044   1.361   7.301   4.339
 9036TIP3    H227045   1.406   7.164   4.296
 9037TIP3   OH227046   1.415   8.071   4.481
 9037TIP3    H127047   1.370   8.071   4.394
 9037TIP3    H227048   1.336   8.069   4.538
 9038TIP3   OH227049   0.817   7.711   3.718
 9038TIP3    H127050   0.774   7.721   3.631
 9038TIP3    H227051   0.828   7.805   3.740
 9039TIP3   OH227052   2.542   7.153   4.307
 9039TIP3    H127053   2.452   7.181   4.281
 9039TIP3    H227054   2.597   7.189   4.235
 9040TIP3   OH227055   1.836   6.797   4.297
 9040TIP3    H127056   1.821   6.702   4.313
 9040TIP3    H227057   1.758   6.836   4.343
 9041TIP3   OH227058   2.184   8.007   3.513
 9041TIP3    H127059   2.104   7.952   3.507
 9041TIP3    H227060   2.202   8.005   3.609
 9042TIP3   OH227061   2.466   8.165   4.295
 9042TIP3    H127062   2.455   8.088   4.235
 9042TIP3    H227063   2.496   8.236   4.232
 9043TIP3   OH227064   1.767   7.558   3.554
 9043TIP3    H127065   1.685   7.610   3.539
 9043TIP3    H227066   1.806   7.556   3.465
 9044TIP3   OH227067   1.722   7.348   3.267
 9044TIP3    H127068   1.792   7.399   3.312
 9044TIP3    H227069   1.776   7.283   3.218
 9045TIP3   OH227070   2.671   7.801   4.135
 9045TIP3    H127071   2.588   7.854   4.142
 9045TIP3    H227072   2.702   7.831   4.046
 9046TIP3   OH227073   2.112   7.632   3.530
 9046TIP3    H127074   2.055   7.655   3.608
 9046TIP3    H227075   2.196   7.608   3.575
 9047TIP3   OH227076   2.349   7.682   4.438
 9047TIP3    H127077   2.350   7.765   4.490
 9047TIP3    H227078   2.262   7.691   4.393
 9048TIP3   OH227079   1.352   7.640   3.927
 9048TIP3    H127080   1.310   7.579   3.862
 9048TIP3    H227081   1.426   7.586   3.961
 9049TIP3   OH227082   1.484   8.003   4.134
 9049TIP3    H127083   1.445   8.005   4.044
 9049TIP3    H227084   1.580   8.004   4.115
 9050TIP3   OH227085   1.474   7.614   4.295
 9050TIP3    H127086   1.511   7.586   4.209
 9050TIP3    H227087   1.521   7.698   4.311
 9051TIP3   OH227088   1.663   8.074   4.615
 9051TIP3    H127089   1.631   8.164   4.636
 9051TIP3    H227090   1.586   8.043   4.562
 9052TIP3   OH227091   1.952   7.497   3.350
 9052TIP3    H127092   2.008   7.557   3.404
 9052TIP3    H227093   1.981   7.521   3.258
 9053TIP3   OH227094   1.362   7.720   4.719
 9053TIP3    H127095   1.377   7.810   4.756
 9053TIP3    H227096   1.275   7.701   4.761
 9054TIP3   OH227097   2.470   6.743   3.397
 9054TIP3    H127098   2.387   6.764   3.446
 9054TIP3    H227099   2.482   6.825   3.345
 9055TIP3   OH227100   1.217   7.481   3.738
 9055TIP3    H127101   1.149   7.526   3.683
 9055TIP3    H227102   1.171   7.400   3.763
 9056TIP3   OH227103   1.002   7.869   4.657
 9056TIP3    H127104   0.934   7.858   4.588
 9056TIP3    H227105   1.031   7.777   4.672
 9057TIP3   OH227106   2.605   7.639   4.614
 9057TIP3    H127107   2.519   7.654   4.573
 9057TIP3    H227108   2.612   7.541   4.614
 9058TIP3   OH227109   1.201   8.066   4.652
 9058TIP3    H127110   1.255   8.030   4.725
 9058TIP3    H227111   1.127   8.002   4.647
 9059TIP3   OH227112   1.600   6.875   4.423
 9059TIP3    H127113   1.512   6.842   4.395
 9059TIP3    H227114   1.573   6.956   4.469
 9060TIP3   OH227115   2.134   6.988   4.618
 9060TIP3    H127116   2.203   6.964   4.683
 9060TIP3    H227117   2.051   6.970   4.667
 9061TIP3   OH227118   2.369   7.421   4.537
 9061TIP3    H127119   2.320   7.417   4.622
 9061TIP3    H227120   2.346   7.510   4.503
 9062TIP3   OH227121   2.044   7.538   3.100
 9062TIP3    H127122   1.993   7.525   3.017
 9062TIP3    H227123   2.129   7.570   3.064
 9063TIP3   OH227124   1.747   6.918   3.397
 9063TIP3    H127125   1.709   6.917   3.487
 9063TIP3    H227126   1.702   6.840   3.360
 9064TIP3   OH227127   1.414   7.277   3.955
 9064TIP3    H127128   1.321   7.252   3.974
 9064TIP3    H227129   1.424   7.236   3.866
 9065TIP3   OH227130   1.905   7.362   3.687
 9065TIP3    H127131   1.851   7.431   3.642
 9065TIP3    H227132   1.959   7.327   3.613
 9066TIP3   OH227133   2.083   7.635   4.762
 9066TIP3    H127134   2.059   7.565   4.827
 9066TIP3    H227135   2.175   7.653   4.789
 9067TIP3   OH227136   2.059   7.389   3.922
 9067TIP3    H127137   1.998   7.419   3.852
 9067TIP3    H227138   2.094   7.309   3.877
 9068TIP3   OH227139   1.402   6.901   3.360
 9068TIP3    H127140   1.388   6.899   3.457
 9068TIP3    H227141   1.324   6.952   3.332
 9069TIP3   OH227142   0.959   6.920   4.213
 9069TIP3    H127143   1.021   6.967   4.273
 9069TIP3    H227144   1.015   6.897   4.138
 9070TIP3   OH227145   0.910   6.923   3.748
 9070TIP3    H127146   0.954   6.964   3.670
 9070TIP3    H227147   0.848   6.995   3.772
 9071TIP3   OH227148   2.069   7.634   4.343
 9071TIP3    H127149   2.103   7.563   4.284
 9071TIP3    H227150   2.042   7.580   4.421
 9072TIP3   OH227151   1.744   7.095   4.016
 9072TIP3    H127152   1.660   7.096   4.066
 9072TIP3    H227153   1.810   7.093   4.087
 9073TIP3   OH227154   1.178   7.153   4.014
 9073TIP3    H127155   1.082   7.166   3.992
 9073TIP3    H227156   1.192   7.059   3.994
 9074TIP3   OH227157   1.442   7.149   3.714
 9074TIP3    H127158   1.533   7.168   3.687
 9074TIP3    H227159   1.390   7.172   3.633
 9075TIP3   OH227160   2.233   7.172   4.217
 9075TIP3    H127161   2.203   7.186   4.310
 9075TIP3    H227162   2.163   7.112   4.186
 9076TIP3   OH227163   1.290   7.183   3.492
 9076TIP3    H127164   1.218   7.139   3.443
 9076TIP3    H227165   1.341   7.221   3.418
 9077TIP3   OH227166   1.367   7.967   4.854
 9077TIP3    H127167   1.444   7.997   4.906
 9077TIP3    H227168   1.301   7.956   4.926
 9078TIP3   OH227169   1.826   7.429   4.112
 9078TIP3    H127170   1.897   7.393   4.056
 9078TIP3    H227171   1.838   7.381   4.195
 9079TIP3   OH227172   1.350   6.909   3.999
 9079TIP3    H127173   1.311   6.833   4.048
 9079TIP3    H227174   1.384   6.866   3.920
 9080TIP3   OH227175   1.798   7.336   4.418
 9080TIP3    H127176   1.738   7.411   4.408
 9080TIP3    H227177   1.876   7.379   4.460
 9081TIP3   OH227178   1.541   7.709   3.503
 9081TIP3    H127179   1.464   7.649   3.488
 9081TIP3    H227180   1.514   7.754   3.586
 9082TIP3   OH227181   2.437   7.944   4.128
 9082TIP3    H127182   2.465   7.996   4.049
 9082TIP3    H227183   2.351   7.907   4.100
 9083TIP3   OH227184   1.993   7.026   3.364
 9083TIP3    H127185   1.897   7.003   3.375
 9083TIP3    H227186   1.998   7.119   3.392
 9084TIP3   OH227187   1.945   8.054   4.496
 9084TIP3    H127188   1.981   8.015   4.577
 9084TIP3    H227189   1.861   8.091   4.529
 9085TIP3   OH227190   2.062   7.273   3.470
 9085TIP3    H127191   2.159   7.282   3.483
 9085TIP3    H227192   2.040   7.353   3.418
 9086TIP3   OH227193   1.221   7.700   4.162
 9086TIP3    H127194   1.263   7.692   4.074
 9086TIP3    H227195   1.273   7.637   4.214
 9087TIP3   OH227196   1.686   7.870   3.334
 9087TIP3    H127197   1.643   7.954   3.359
 9087TIP3    H227198   1.630   7.807   3.385
 9088TIP3   OH227199   1.110   7.636   4.789
 9088TIP3    H127200   1.106   7.616   4.885
 9088TIP3    H227201   1.034   7.584   4.757
 9089TIP3   OH227202   1.844   7.762   4.800
 9089TIP3    H127203   1.798   7.738   4.718
 9089TIP3    H227204   1.934   7.729   4.783
 9090TIP3   OH227205   2.503   7.367   3.305
 9090TIP3    H127206   2.443   7.322   3.241
 9090TIP3    H227207   2.502   7.456   3.263
 9091TIP3   OH227208   2.723   8.202   4.385
 9091TIP3    H127209   2.627   8.217   4.375
 9091TIP3    H227210   2.748   8.191   4.291
 9092TIP3   OH227211   2.200   7.820   4.028
 9092TIP3    H127212   2.109   7.794   4.052
 9092TIP3    H227213   2.234   7.735   3.993
 9093TIP3   OH227214   0.898   7.344   3.505
 9093TIP3    H127215   0.942   7.429   3.527
 9093TIP3    H227216   0.819   7.349   3.565
 9094TIP3   OH227217   1.465   7.820   3.745
 9094TIP3    H127218   1.419   7.898   3.781
 9094TIP3    H227219   1.437   7.755   3.813
 9095TIP3   OH227220   1.993   8.016   4.227
 9095TIP3    H127221   1.978   8.030   4.323
 9095TIP3    H227222   2.081   7.977   4.226
 9096TIP3   OH227223   1.919   7.872   3.155
 9096TIP3    H127224   1.847   7.877   3.223
 9096TIP3    H227225   1.872   7.906   3.075
 9097TIP3   OH227226   1.329   7.228   4.786
 9097TIP3    H127227   1.231   7.215   4.786
 9097TIP3    H227228   1.354   7.163   4.854
 9098TIP3   OH227229   2.152   7.799   3.321
 9098TIP3    H127230   2.130   7.739   3.396
 9098TIP3    H227231   2.237   7.836   3.353
 9099TIP3   OH227232   1.307   7.842   3.159
 9099TIP3    H127233   1.350   7.757   3.133
 9099TIP3    H227234   1.343   7.856   3.247
 9100TIP3   OH227235   1.016   7.586   3.581
 9100TIP3    H127236   0.950   7.623   3.644
 9100TIP3    H227237   1.021   7.659   3.517
 9101TIP3   OH227238   2.162   7.224   4.477
 9101TIP3    H127239   2.237   7.266   4.521
 9101TIP3    H227240   2.148   7.144   4.531
 9102TIP3   OH227241   2.043   6.974   3.646
 9102TIP3    H127242   2.025   6.997   3.553
 9102TIP3    H227243   2.081   7.057   3.681
 9103TIP3   OH227244   1.729   7.157   3.746
 9103TIP3    H127245   1.791   7.231   3.730
 9103TIP3    H227246   1.730   7.151   3.844
 9104TIP3   OH227247   1.999   7.472   4.554
 9104TIP3    H127248   2.023   7.530   4.630
 9104TIP3    H227249   2.056   7.395   4.572
 9105TIP3   OH227250   1.869   6.881   3.848
 9105TIP3    H127251   1.852   6.962   3.900
 9105TIP3    H227252   1.932   6.916   3.780
 9106TIP3   OH227253   1.382   6.884   3.637
 9106TIP3    H127254   1.378   6.974   3.674
 9106TIP3    H227255   1.479   6.869   3.644
 9107TIP3   OH227256   2.631   7.358   4.534
 9107TIP3    H127257   2.534   7.363   4.542
 9107TIP3    H227258   2.642   7.360   4.438
 9108TIP3   OH227259   2.288   7.569   3.923
 9108TIP3    H127260   2.210   7.511   3.936
 9108TIP3    H227261   2.357   7.521   3.973
 9109TIP3   OH227262   1.004   7.801   3.395
 9109TIP3    H127263   1.035   7.893   3.385
 9109TIP3    H227264   1.060   7.754   3.329
 9110TIP3   OH227265   0.945   7.074   3.521
 9110TIP3    H127266   0.947   7.172   3.523
 9110TIP3    H227267   0.855   7.058   3.491
 9111TIP3   OH227268   1.340   6.793   4.396
 9111TIP3    H127269   1.302   6.764   4.310
 9111TIP3    H227270   1.323   6.716   4.453
 9112TIP3   OH227271   1.162   7.939   5.032
 9112TIP3    H127272   1.180   7.844   5.044
 9112TIP3    H227273   1.070   7.937   4.996
 9113TIP3   OH227274   1.131   7.603   3.249
 9113TIP3    H127275   1.181   7.568   3.325
 9113TIP3    H227276   1.204   7.608   3.183
 9114TIP3   OH227277   1.784   8.025   4.854
 9114TIP3    H127278   1.747   8.040   4.764
 9114TIP3    H227279   1.819   7.935   4.844
 9115TIP3   OH227280   1.588   7.799   3.077
 9115TIP3    H127281   1.635   7.819   3.159
 9115TIP3    H227282   1.620   7.709   3.057
 9116TIP3   OH227283   2.254   8.048   4.427
 9116TIP3    H127284   2.323   8.104   4.385
 9116TIP3    H227285   2.179   8.111   4.427
 9117TIP3   OH227286   1.295   7.688   5.036
 9117TIP3    H127287   1.374   7.634   5.024
 9117TIP3    H227288   1.312   7.726   5.125
 9118TIP3   OH227289   1.340   7.519   3.463
 9118TIP3    H127290   1.312   7.479   3.546
 9118TIP3    H227291   1.378   7.443   3.414
 9119TIP3   OH227292   1.539   7.523   4.662
 9119TIP3    H127293   1.492   7.607   4.684
 9119TIP3    H227294   1.609   7.561   4.605
 9120TIP3   OH227295   1.446   7.312   3.308
 9120TIP3    H127296   1.419   7.312   3.213
 9120TIP3    H227297   1.543   7.318   3.299
 9121TIP3   OH227298   2.131   7.969   4.823
 9121TIP3    H127299   2.217   7.953   4.784
 9121TIP3    H227300   2.132   7.910   4.901
 9122TIP3   OH227301   2.266   7.636   2.976
 9122TIP3    H127302   2.252   7.592   2.889
 9122TIP3    H227303   2.252   7.730   2.950
 9123TIP3   OH227304   1.725   7.363   4.819
 9123TIP3    H127305   1.746   7.282   4.768
 9123TIP3    H227306   1.705   7.427   4.749
 9124TIP3   OH227307   1.743   7.157   4.630
 9124TIP3    H127308   1.768   7.202   4.546
 9124TIP3    H227309   1.652   7.127   4.610
 9125TIP3   OH227310   1.744   7.683   4.524
 9125TIP3    H127311   1.829   7.695   4.479
 9125TIP3    H227312   1.690   7.750   4.477
 9126TIP3   OH227313   2.342   7.658   4.877
 9126TIP3    H127314   2.392   7.581   4.909
 9126TIP3    H227315   2.413   7.719   4.849
 9127TIP3   OH227316   2.388   7.906   4.613
 9127TIP3    H127317   2.330   7.961   4.555
 9127TIP3    H227318   2.476   7.930   4.575
 9128TIP3   OH227319   1.583   7.490   5.030
 9128TIP3    H127320   1.537   7.412   5.066
 9128TIP3    H227321   1.650   7.447   4.972
 9129TIP3   OH227322   1.873   6.917   4.696
 9129TIP3    H127323   1.824   7.000   4.675
 9129TIP3    H227324   1.803   6.850   4.685
 9130TIP3   OH227325   1.998   7.426   4.911
 9130TIP3    H127326   2.006   7.406   5.006
 9130TIP3    H227327   1.906   7.397   4.897
 9131TIP3   OH227328   2.233   7.365   4.762
 9131TIP3    H127329   2.159   7.368   4.826
 9131TIP3    H227330   2.308   7.338   4.819
 9132TIP3   OH227331   2.468   7.313   4.910
 9132TIP3    H127332   2.477   7.218   4.932
 9132TIP3    H227333   2.457   7.354   4.999
 9133TIP3   OH227334   1.457   7.254   5.104
 9133TIP3    H127335   1.461   7.160   5.078
 9133TIP3    H227336   1.494   7.248   5.195
 9134TIP3   OH227337   1.957   6.922   4.959
 9134TIP3    H127338   2.027   6.854   4.953
 9134TIP3    H227339   1.921   6.919   4.868
 9135TIP3   OH227340   2.047   7.163   5.068
 9135TIP3    H127341   2.020   7.075   5.036
 9135TIP3    H227342   1.961   7.202   5.093
 9136TIP3   OH227343   0.742   7.713   3.427
 9136TIP3    H127344   0.829   7.750   3.401
 9136TIP3    H227345   0.734   7.634   3.369
 9137TIP3   OH227346   2.617   8.333   4.661
 9137TIP3    H127347   2.541   8.316   4.721
 9137TIP3    H227348   2.654   8.414   4.699
 9138TIP3   OH227349   2.421   7.823   3.298
 9138TIP3    H127350   2.494   7.881   3.268
 9138TIP3    H227351   2.462   7.784   3.379
 9139TIP3   OH227352   2.530   7.690   3.506
 9139TIP3    H127353   2.466   7.651   3.569
 9139TIP3    H227354   2.599   7.728   3.565
 9140TIP3   OH227355   2.570   8.083   3.936
 9140TIP3    H127356   2.634   8.029   3.886
 9140TIP3    H227357   2.571   8.168   3.890
 9141TIP3   OH227358   2.473   7.596   3.153
 9141TIP3    H127359   2.399   7.600   3.089
 9141TIP3    H227360   2.452   7.676   3.207
 9142TIP3   OH227361   2.340   7.275   3.110
 9142TIP3    H127362   2.293   7.318   3.038
 9142TIP3    H227363   2.321   7.180   3.094
 9143TIP3   OH227364   2.343   7.551   3.654
 9143TIP3    H127365   2.352   7.454   3.646
 9143TIP3    H227366   2.329   7.563   3.751
 9144TIP3   OH227367   0.972   7.624   4.404
 9144TIP3    H127368   0.964   7.590   4.312
 9144TIP3    H227369   1.070   7.620   4.416
 9145TIP3   OH227370   2.631   7.972   4.512
 9145TIP3    H127371   2.704   7.909   4.500
 9145TIP3    H227372   2.658   8.047   4.455
 9146TIP3   OH227373   2.816   7.776   4.514
 9146TIP3    H127374   2.743   7.727   4.559
 9146TIP3    H227375   2.891   7.715   4.532
 9147TIP3   OH227376   2.280   7.009   3.075
 9147TIP3    H127377   2.350   6.980   3.137
 9147TIP3    H227378   2.203   6.956   3.104
 9148TIP3   OH227379   2.341   7.270   3.545
 9148TIP3    H127380   2.382   7.182   3.559
 9148TIP3    H227381   2.399   7.304   3.474
 9149TIP3   OH227382   2.500   7.435   4.044
 9149TIP3    H127383   2.585   7.461   4.002
 9149TIP3    H227384   2.513   7.477   4.132
 9150TIP3   OH227385   2.570   7.584   4.274
 9150TIP3    H127386   2.494   7.620   4.325
 9150TIP3    H227387   2.602   7.665   4.229
 9151TIP3   OH227388   1.190   7.309   5.073
 9151TIP3    H127389   1.288   7.305   5.087
 9151TIP3    H227390   1.163   7.224   5.113
 9152TIP3   OH227391   3.022   7.176   4.831
 9152TIP3    H127392   3.081   7.112   4.788
 9152TIP3    H227393   2.992   7.231   4.755
 9153TIP3   OH227394   2.448   7.020   3.584
 9153TIP3    H127395   2.495   7.002   3.668
 9153TIP3    H227396   2.387   6.943   3.582
 9154TIP3   OH227397   1.160   7.007   4.374
 9154TIP3    H127398   1.223   6.937   4.399
 9154TIP3    H227399   1.196   7.086   4.416
 9155TIP3   OH227400   1.018   7.271   4.489
 9155TIP3    H127401   0.934   7.223   4.465
 9155TIP3    H227402   0.982   7.358   4.504
 9156TIP3   OH227403   2.892   7.318   4.640
 9156TIP3    H127404   2.814   7.362   4.680
 9156TIP3    H227405   2.848   7.255   4.580
 9157TIP3   OH227406   2.522   6.952   3.217
 9157TIP3    H127407   2.563   6.882   3.162
 9157TIP3    H227408   2.590   7.022   3.215
 9158TIP3   OH227409   0.937   6.761   3.963
 9158TIP3    H127410   0.851   6.769   4.009
 9158TIP3    H227411   0.930   6.831   3.895
 9159TIP3   OH227412   1.155   6.863   4.789
 9159TIP3    H127413   1.104   6.862   4.872
 9159TIP3    H227414   1.089   6.905   4.729
 9160TIP3   OH227415   2.775   7.089   4.515
 9160TIP3    H127416   2.691   7.131   4.489
 9160TIP3    H227417   2.745   6.996   4.522
 9161TIP3   OH227418   1.999   6.994   4.143
 9161TIP3    H127419   1.953   6.924   4.192
 9161TIP3    H227420   2.067   6.944   4.093
 9162TIP3   OH227421   2.522   6.877   4.038
 9162TIP3    H127422   2.555   6.929   3.962
 9162TIP3    H227423   2.426   6.894   4.033
 9163TIP3   OH227424   2.614   6.971   3.800
 9163TIP3    H127425   2.687   6.920   3.759
 9163TIP3    H227426   2.647   7.063   3.786
 9164TIP3   OH227427   1.244   6.702   4.149
 9164TIP3    H127428   1.151   6.669   4.153
 9164TIP3    H227429   1.292   6.617   4.145
 9165TIP3   OH227430   1.037   6.568   3.796
 9165TIP3    H127431   1.063   6.629   3.724
 9165TIP3    H227432   1.003   6.632   3.863
 9166TIP3   OH227433   1.694   6.730   4.029
 9166TIP3    H127434   1.750   6.782   3.969
 9166TIP3    H227435   1.712   6.772   4.114
 9167TIP3   OH227436   2.241   6.882   4.013
 9167TIP3    H127437   2.231   6.843   3.925
 9167TIP3    H227438   2.227   6.803   4.071
 9168TIP3   OH227439   2.266   6.807   3.578
 9168TIP3    H127440   2.181   6.852   3.594
 9168TIP3    H227441   2.249   6.720   3.621
 9169TIP3   OH227442   1.150   6.730   3.559
 9169TIP3    H127443   1.199   6.669   3.501
 9169TIP3    H227444   1.223   6.785   3.596
 9170TIP3   OH227445   1.659   6.908   3.659
 9170TIP3    H127446   1.717   6.861   3.721
 9170TIP3    H227447   1.680   7.001   3.684
 9171TIP3   OH227448   1.455   6.984   5.039
 9171TIP3    H127449   1.418   6.915   5.096
 9171TIP3    H227450   1.550   6.981   5.068
 9172TIP3   OH227451   1.702   6.977   5.157
 9172TIP3    H127452   1.792   6.959   5.122
 9172TIP3    H227453   1.694   6.907   5.225
 9173TIP3   OH227454   2.527   7.042   4.947
 9173TIP3    H127455   2.543   7.013   5.040
 9173TIP3    H227456   2.617   7.038   4.910
 9174TIP3   OH227457   3.741   7.955   3.209
 9174TIP3    H127458   3.699   8.037   3.177
 9174TIP3    H227459   3.669   7.893   3.190
 9175TIP3   OH227460   3.707   7.965   3.591
 9175TIP3    H127461   3.765   7.947   3.666
 9175TIP3    H227462   3.682   7.876   3.562
 9176TIP3   OH227463   3.028   7.863   3.952
 9176TIP3    H127464   3.060   7.795   4.015
 9176TIP3    H227465   3.101   7.926   3.954
 9177TIP3   OH227466   3.946   8.275   3.271
 9177TIP3    H127467   3.908   8.218   3.340
 9177TIP3    H227468   3.997   8.339   3.323
 9178TIP3   OH227469   3.089   8.207   3.750
 9178TIP3    H127470   3.035   8.135   3.713
 9178TIP3    H227471   3.143   8.234   3.673
 9179TIP3   OH227472   2.710   7.469   3.458
 9179TIP3    H127473   2.668   7.555   3.477
 9179TIP3    H227474   2.636   7.423   3.415
 9180TIP3   OH227475   2.765   7.762   3.633
 9180TIP3    H127476   2.814   7.684   3.666
 9180TIP3    H227477   2.838   7.821   3.607
 9181TIP3   OH227478   3.541   8.184   3.618
 9181TIP3    H127479   3.589   8.102   3.596
 9181TIP3    H227480   3.616   8.236   3.653
 9182TIP3   OH227481   3.959   7.702   3.655
 9182TIP3    H127482   3.991   7.612   3.676
 9182TIP3    H227483   3.921   7.687   3.565
 9183TIP3   OH227484   3.282   7.353   3.633
 9183TIP3    H127485   3.264   7.427   3.570
 9183TIP3    H227486   3.234   7.281   3.586
 9184TIP3   OH227487   3.974   7.446   3.249
 9184TIP3    H127488   4.044   7.433   3.317
 9184TIP3    H227489   4.028   7.481   3.176
 9185TIP3   OH227490   2.912   7.555   3.742
 9185TIP3    H127491   2.996   7.540   3.788
 9185TIP3    H227492   2.927   7.502   3.660
 9186TIP3   OH227493   3.354   7.753   3.533
 9186TIP3    H127494   3.448   7.730   3.546
 9186TIP3    H227495   3.316   7.668   3.502
 9187TIP3   OH227496   4.639   7.733   3.813
 9187TIP3    H127497   4.549   7.742   3.777
 9187TIP3    H227498   4.624   7.747   3.908
 9188TIP3   OH227499   3.269   7.332   4.070
 9188TIP3    H127500   3.218   7.376   3.999
 9188TIP3    H227501   3.218   7.359   4.149
 9189TIP3   OH227502   3.614   8.150   3.069
 9189TIP3    H127503   3.563   8.150   2.987
 9189TIP3    H227504   3.635   8.244   3.081
 9190TIP3   OH227505   3.379   8.125   3.861
 9190TIP3    H127506   3.312   8.184   3.901
 9190TIP3    H227507   3.421   8.187   3.798
 9191TIP3   OH227508   4.178   7.448   3.426
 9191TIP3    H127509   4.171   7.400   3.509
 9191TIP3    H227510   4.264   7.491   3.433
 9192TIP3   OH227511   3.150   7.452   3.852
 9192TIP3    H127512   3.208   7.528   3.873
 9192TIP3    H227513   3.199   7.414   3.775
 9193TIP3   OH227514   3.205   8.321   3.979
 9193TIP3    H127515   3.167   8.312   3.889
 9193TIP3    H227516   3.124   8.323   4.033
 9194TIP3   OH227517   2.622   7.972   3.202
 9194TIP3    H127518   2.586   7.986   3.111
 9194TIP3    H227519   2.629   8.065   3.229
 9195TIP3   OH227520   4.342   7.415   3.794
 9195TIP3    H127521   4.251   7.437   3.768
 9195TIP3    H227522   4.392   7.428   3.711
 9196TIP3   OH227523   3.629   7.052   3.778
 9196TIP3    H127524   3.617   6.957   3.800
 9196TIP3    H227525   3.553   7.091   3.827
 9197TIP3   OH227526   3.988   8.282   2.990
 9197TIP3    H127527   3.949   8.201   2.949
 9197TIP3    H227528   3.992   8.258   3.085
 9198TIP3   OH227529   4.264   8.421   3.762
 9198TIP3    H127530   4.272   8.375   3.677
 9198TIP3    H227531   4.279   8.513   3.732
 9199TIP3   OH227532   3.565   7.812   3.043
 9199TIP3    H127533   3.484   7.865   3.027
 9199TIP3    H227534   3.607   7.814   2.955
 9200TIP3   OH227535   3.521   7.605   2.750
 9200TIP3    H127536   3.588   7.656   2.799
 9200TIP3    H227537   3.579   7.541   2.703
 9201TIP3   OH227538   4.389   8.071   3.587
 9201TIP3    H127539   4.400   8.162   3.614
 9201TIP3    H227540   4.452   8.070   3.511
 9202TIP3   OH227541   3.916   7.892   3.011
 9202TIP3    H127542   3.858   7.916   3.087
 9202TIP3    H227543   3.997   7.865   3.059
 9203TIP3   OH227544   4.143   7.945   3.914
 9203TIP3    H127545   4.149   8.024   3.973
 9203TIP3    H227546   4.049   7.950   3.886
 9204TIP3   OH227547   3.151   7.899   3.416
 9204TIP3    H127548   3.108   7.838   3.352
 9204TIP3    H227549   3.226   7.846   3.450
 9205TIP3   OH227550   3.295   8.305   3.564
 9205TIP3    H127551   3.256   8.241   3.504
 9205TIP3    H227552   3.384   8.269   3.584
 9206TIP3   OH227553   3.278   7.877   3.776
 9206TIP3    H127554   3.315   7.854   3.688
 9206TIP3    H227555   3.320   7.964   3.795
 9207TIP3   OH227556   3.460   8.340   4.111
 9207TIP3    H127557   3.411   8.420   4.139
 9207TIP3    H227558   3.398   8.308   4.044
 9208TIP3   OH227559   3.746   7.758   2.835
 9208TIP3    H127560   3.807   7.817   2.885
 9208TIP3    H227561   3.775   7.775   2.742
 9209TIP3   OH227562   3.172   7.976   4.206
 9209TIP3    H127563   3.179   8.067   4.243
 9209TIP3    H227564   3.077   7.958   4.222
 9210TIP3   OH227565   4.266   6.999   2.884
 9210TIP3    H127566   4.185   7.021   2.934
 9210TIP3    H227567   4.280   7.082   2.833
 9211TIP3   OH227568   3.014   7.740   3.226
 9211TIP3    H127569   2.947   7.784   3.170
 9211TIP3    H227570   2.970   7.656   3.246
 9212TIP3   OH227571   2.806   8.124   4.136
 9212TIP3    H127572   2.735   8.102   4.073
 9212TIP3    H227573   2.840   8.036   4.163
 9213TIP3   OH227574   4.403   7.901   4.099
 9213TIP3    H127575   4.309   7.914   4.080
 9213TIP3    H227576   4.414   7.804   4.092
 9214TIP3   OH227577   2.987   8.333   4.142
 9214TIP3    H127578   3.045   8.294   4.211
 9214TIP3    H227579   2.918   8.263   4.133
 9215TIP3   OH227580   3.394   7.130   3.915
 9215TIP3    H127581   3.306   7.105   3.880
 9215TIP3    H227582   3.371   7.215   3.958
 9216TIP3   OH227583   3.931   7.244   4.104
 9216TIP3    H127584   4.001   7.221   4.168
 9216TIP3    H227585   3.849   7.227   4.156
 9217TIP3   OH227586   4.167   7.682   4.026
 9217TIP3    H127587   4.118   7.670   4.111
 9217TIP3    H227588   4.130   7.766   3.993
 9218TIP3   OH227589   3.828   7.787   2.580
 9218TIP3    H127590   3.795   7.767   2.490
 9218TIP3    H227591   3.889   7.860   2.560
 9219TIP3   OH227592   3.538   7.179   2.882
 9219TIP3    H127593   3.504   7.177   2.974
 9219TIP3    H227594   3.498   7.097   2.848
 9220TIP3   OH227595   3.322   7.652   3.924
 9220TIP3    H127596   3.277   7.674   4.008
 9220TIP3    H227597   3.308   7.734   3.872
 9221TIP3   OH227598   3.210   7.533   3.443
 9221TIP3    H127599   3.117   7.509   3.462
 9221TIP3    H227600   3.221   7.492   3.354
 9222TIP3   OH227601   3.701   7.615   3.171
 9222TIP3    H127602   3.648   7.685   3.125
 9222TIP3    H227603   3.757   7.582   3.099
 9223TIP3   OH227604   3.869   7.884   4.237
 9223TIP3    H127605   3.864   7.820   4.311
 9223TIP3    H227606   3.939   7.945   4.267
 9224TIP3   OH227607   3.837   7.633   3.415
 9224TIP3    H127608   3.783   7.663   3.339
 9224TIP3    H227609   3.885   7.561   3.370
 9225TIP3   OH227610   3.144   7.679   4.136
 9225TIP3    H127611   3.175   7.748   4.196
 9225TIP3    H227612   3.132   7.603   4.195
 9226TIP3   OH227613   3.193   7.154   2.847
 9226TIP3    H127614   3.183   7.154   2.944
 9226TIP3    H227615   3.115   7.207   2.821
 9227TIP3   OH227616   2.738   7.195   3.721
 9227TIP3    H127617   2.812   7.231   3.774
 9227TIP3    H227618   2.778   7.173   3.636
 9228TIP3   OH227619   2.702   7.176   3.239
 9228TIP3    H127620   2.748   7.216   3.162
 9228TIP3    H227621   2.643   7.251   3.262
 9229TIP3   OH227622   3.878   7.893   3.829
 9229TIP3    H127623   3.907   7.821   3.769
 9229TIP3    H227624   3.841   7.841   3.903
 9230TIP3   OH227625   3.540   7.352   3.502
 9230TIP3    H127626   3.461   7.354   3.559
 9230TIP3    H227627   3.612   7.350   3.567
 9231TIP3   OH227628   2.971   7.413   3.512
 9231TIP3    H127629   2.876   7.421   3.483
 9231TIP3    H227630   2.994   7.323   3.485
 9232TIP3   OH227631   3.236   7.405   3.202
 9232TIP3    H127632   3.330   7.423   3.181
 9232TIP3    H227633   3.189   7.429   3.118
 9233TIP3   OH227634   4.034   7.435   3.707
 9233TIP3    H127635   4.000   7.448   3.799
 9233TIP3    H227636   3.965   7.377   3.671
 9234TIP3   OH227637   3.086   7.441   2.977
 9234TIP3    H127638   3.015   7.397   2.926
 9234TIP3    H227639   3.139   7.479   2.904
 9235TIP3   OH227640   3.153   8.224   4.339
 9235TIP3    H127641   3.235   8.244   4.390
 9235TIP3    H227642   3.089   8.218   4.413
 9236TIP3   OH227643   3.619   7.684   3.598
 9236TIP3    H127644   3.695   7.650   3.547
 9236TIP3    H227645   3.629   7.639   3.684
 9237TIP3   OH227646   3.140   7.171   3.482
 9237TIP3    H127647   3.105   7.092   3.527
 9237TIP3    H227648   3.186   7.133   3.406
 9238TIP3   OH227649   3.593   7.581   3.895
 9238TIP3    H127650   3.505   7.623   3.905
 9238TIP3    H227651   3.653   7.645   3.940
 9239TIP3   OH227652   3.335   7.956   2.992
 9239TIP3    H127653   3.256   7.898   2.978
 9239TIP3    H227654   3.310   8.001   3.077
 9240TIP3   OH227655   3.790   7.280   2.855
 9240TIP3    H127656   3.693   7.263   2.862
 9240TIP3    H227657   3.797   7.375   2.877
 9241TIP3   OH227658   3.747   8.304   3.977
 9241TIP3    H127659   3.774   8.259   4.058
 9241TIP3    H227660   3.672   8.359   4.008
 9242TIP3   OH227661   3.860   7.531   2.953
 9242TIP3    H127662   3.956   7.538   2.965
 9242TIP3    H227663   3.838   7.611   2.901
 9243TIP3   OH227664   2.997   7.936   3.647
 9243TIP3    H127665   3.053   7.935   3.567
 9243TIP3    H227666   3.059   7.909   3.716
 9244TIP3   OH227667   3.441   8.142   2.825
 9244TIP3    H127668   3.402   8.214   2.879
 9244TIP3    H227669   3.405   8.064   2.874
 9245TIP3   OH227670   2.911   7.906   4.276
 9245TIP3    H127671   2.929   7.894   4.371
 9245TIP3    H227672   2.838   7.843   4.262
 9246TIP3   OH227673   3.639   8.020   4.298
 9246TIP3    H127674   3.579   7.969   4.241
 9246TIP3    H227675   3.726   7.990   4.264
 9247TIP3   OH227676   4.295   7.624   2.790
 9247TIP3    H127677   4.235   7.580   2.724
 9247TIP3    H227678   4.294   7.713   2.749
 9248TIP3   OH227679   4.518   8.462   3.873
 9248TIP3    H127680   4.422   8.475   3.867
 9248TIP3    H227681   4.541   8.452   3.778
 9249TIP3   OH227682   2.689   7.600   2.982
 9249TIP3    H127683   2.738   7.684   3.000
 9249TIP3    H227684   2.617   7.607   3.048
 9250TIP3   OH227685   3.260   8.076   3.230
 9250TIP3    H127686   3.224   8.158   3.267
 9250TIP3    H227687   3.231   8.013   3.299
 9251TIP3   OH227688   3.786   8.274   3.711
 9251TIP3    H127689   3.761   8.297   3.803
 9251TIP3    H227690   3.868   8.227   3.728
 9252TIP3   OH227691   3.792   8.103   2.566
 9252TIP3    H127692   3.824   8.094   2.658
 9252TIP3    H227693   3.710   8.155   2.579
 9253TIP3   OH227694   3.115   7.404   4.287
 9253TIP3    H127695   3.021   7.425   4.307
 9253TIP3    H227696   3.148   7.376   4.375
 9254TIP3   OH227697   3.916   8.077   2.812
 9254TIP3    H127698   3.913   8.006   2.879
 9254TIP3    H227699   4.013   8.081   2.794
 9255TIP3   OH227700   3.108   8.099   2.642
 9255TIP3    H127701   3.147   8.012   2.620
 9255TIP3    H227702   3.141   8.114   2.731
 9256TIP3   OH227703   2.813   7.838   3.064
 9256TIP3    H127704   2.748   7.877   3.126
 9256TIP3    H227705   2.819   7.911   2.999
 9257TIP3   OH227706   3.959   7.481   3.965
 9257TIP3    H127707   4.032   7.522   4.013
 9257TIP3    H227708   3.943   7.400   4.019
 9258TIP3   OH227709   3.836   7.231   3.134
 9258TIP3    H127710   3.823   7.253   3.040
 9258TIP3    H227711   3.876   7.313   3.169
 9259TIP3   OH227712   3.519   7.417   3.233
 9259TIP3    H127713   3.584   7.488   3.216
 9259TIP3    H227714   3.527   7.407   3.331
 9260TIP3   OH227715   3.791   7.728   4.029
 9260TIP3    H127716   3.813   7.784   4.106
 9260TIP3    H227717   3.844   7.648   4.047
 9261TIP3   OH227718   3.665   7.134   3.332
 9261TIP3    H127719   3.660   7.211   3.392
 9261TIP3    H227720   3.728   7.169   3.264
 9262TIP3   OH227721   3.179   7.141   3.124
 9262TIP3    H127722   3.176   7.232   3.159
 9262TIP3    H227723   3.276   7.124   3.131
 9263TIP3   OH227724   4.432   7.637   4.011
 9263TIP3    H127725   4.335   7.636   4.024
 9263TIP3    H227726   4.440   7.573   3.938
 9264TIP3   OH227727   2.802   8.058   2.884
 9264TIP3    H127728   2.827   8.152   2.872
 9264TIP3    H227729   2.855   8.013   2.816
 9265TIP3   OH227730   2.744   7.333   3.021
 9265TIP3    H127731   2.745   7.430   3.012
 9265TIP3    H227732   2.675   7.308   2.958
 9266TIP3   OH227733   3.130   7.040   3.881
 9266TIP3    H127734   3.094   7.028   3.790
 9266TIP3    H227735   3.149   6.948   3.904
 9267TIP3   OH227736   2.954   8.198   4.526
 9267TIP3    H127737   2.976   8.103   4.533
 9267TIP3    H227738   2.865   8.195   4.486
 9268TIP3   OH227739   2.928   7.858   2.737
 9268TIP3    H127740   2.979   7.826   2.814
 9268TIP3    H227741   3.000   7.862   2.670
 9269TIP3   OH227742   3.589   8.289   4.344
 9269TIP3    H127743   3.548   8.304   4.255
 9269TIP3    H227744   3.619   8.196   4.333
 9270TIP3   OH227745   3.385   8.041   2.551
 9270TIP3    H127746   3.415   8.059   2.640
 9270TIP3    H227747   3.415   7.949   2.537
 9271TIP3   OH227748   4.050   8.295   3.899
 9271TIP3    H127749   4.112   8.360   3.861
 9271TIP3    H227750   3.975   8.351   3.923
 9272TIP3   OH227751   3.079   7.944   4.523
 9272TIP3    H127752   3.164   7.907   4.495
 9272TIP3    H227753   3.104   7.982   4.611
 9273TIP3   OH227754   3.129   7.773   2.947
 9273TIP3    H127755   3.105   7.731   3.031
 9273TIP3    H227756   3.171   7.698   2.898
 9274TIP3   OH227757   3.405   7.830   4.174
 9274TIP3    H127758   3.332   7.895   4.182
 9274TIP3    H227759   3.457   7.869   4.100
 9275TIP3   OH227760   3.244   7.569   2.794
 9275TIP3    H127761   3.218   7.569   2.700
 9275TIP3    H227762   3.342   7.574   2.786
 9276TIP3   OH227763   3.932   8.168   4.272
 9276TIP3    H127764   3.975   8.256   4.289
 9276TIP3    H227765   3.923   8.141   4.363
 9277TIP3   OH227766   4.064   7.907   2.453
 9277TIP3    H127767   4.037   7.854   2.376
 9277TIP3    H227768   4.041   7.996   2.421
 9278TIP3   OH227769   3.528   7.626   4.307
 9278TIP3    H127770   3.534   7.549   4.247
 9278TIP3    H227771   3.487   7.695   4.250
 9279TIP3   OH227772   3.533   7.409   4.111
 9279TIP3    H127773   3.562   7.457   4.030
 9279TIP3    H227774   3.439   7.392   4.092
 9280TIP3   OH227775   3.552   7.951   3.985
 9280TIP3    H127776   3.637   7.966   3.942
 9280TIP3    H227777   3.495   8.019   3.941
 9281TIP3   OH227778   4.153   7.913   4.375
 9281TIP3    H127779   4.213   7.835   4.375
 9281TIP3    H227780   4.211   7.984   4.343
 9282TIP3   OH227781   4.192   8.154   4.086
 9282TIP3    H127782   4.127   8.211   4.040
 9282TIP3    H227783   4.277   8.188   4.048
 9283TIP3   OH227784   3.407   7.736   4.538
 9283TIP3    H127785   3.339   7.667   4.553
 9283TIP3    H227786   3.444   7.708   4.452
 9284TIP3   OH227787   3.668   7.176   4.184
 9284TIP3    H127788   3.621   7.259   4.159
 9284TIP3    H227789   3.599   7.109   4.172
 9285TIP3   OH227790   3.798   7.674   4.399
 9285TIP3    H127791   3.792   7.662   4.496
 9285TIP3    H227792   3.706   7.653   4.374
 9286TIP3   OH227793   4.032   7.613   4.248
 9286TIP3    H127794   3.957   7.627   4.310
 9286TIP3    H227795   4.106   7.594   4.310
 9287TIP3   OH227796   4.265   7.571   4.402
 9287TIP3    H127797   4.275   7.475   4.420
 9287TIP3    H227798   4.256   7.608   4.492
 9288TIP3   OH227799   3.248   7.511   4.593
 9288TIP3    H127800   3.277   7.423   4.563
 9288TIP3    H227801   3.284   7.510   4.685
 9289TIP3   OH227802   3.755   7.182   4.445
 9289TIP3    H127803   3.827   7.116   4.439
 9289TIP3    H227804   3.720   7.180   4.353
 9290TIP3   OH227805   3.829   7.407   4.587
 9290TIP3    H127806   3.804   7.332   4.529
 9290TIP3    H227807   3.747   7.462   4.587
 9291TIP3   OH227808   2.540   7.954   2.934
 9291TIP3    H127809   2.613   8.008   2.898
 9291TIP3    H227810   2.531   7.885   2.866
 9292TIP3   OH227811   4.406   8.583   4.154
 9292TIP3    H127812   4.328   8.574   4.213
 9292TIP3    H227813   4.438   8.671   4.179
 9293TIP3   OH227814   4.190   8.075   2.796
 9293TIP3    H127815   4.260   8.136   2.763
 9293TIP3    H227816   4.235   8.037   2.875
 9294TIP3   OH227817   4.322   7.948   2.998
 9294TIP3    H127818   4.263   7.904   3.062
 9294TIP3    H227819   4.395   7.981   3.056
 9295TIP3   OH227820   4.372   8.331   3.456
 9295TIP3    H127821   4.423   8.272   3.396
 9295TIP3    H227822   4.352   8.407   3.400
 9296TIP3   OH227823   4.261   7.860   2.638
 9296TIP3    H127824   4.190   7.864   2.570
 9296TIP3    H227825   4.233   7.934   2.695
 9297TIP3   OH227826   4.134   7.532   2.592
 9297TIP3    H127827   4.085   7.568   2.517
 9297TIP3    H227828   4.112   7.436   2.584
 9298TIP3   OH227829   4.141   7.791   3.148
 9298TIP3    H127830   4.145   7.701   3.109
 9298TIP3    H227831   4.144   7.771   3.242
 9299TIP3   OH227832   2.765   7.885   3.888
 9299TIP3    H127833   2.762   7.852   3.795
 9299TIP3    H227834   2.862   7.885   3.904
 9300TIP3   OH227835   4.431   8.228   3.987
 9300TIP3    H127836   4.507   8.167   3.984
 9300TIP3    H227837   4.465   8.307   3.940
 9301TIP3   OH227838   4.614   8.031   4.000
 9301TIP3    H127839   4.541   7.988   4.049
 9301TIP3    H227840   4.689   7.973   4.028
 9302TIP3   OH227841   4.077   7.266   2.576
 9302TIP3    H127842   4.152   7.235   2.631
 9302TIP3    H227843   4.004   7.206   2.600
 9303TIP3   OH227844   4.141   7.532   3.028
 9303TIP3    H127845   4.179   7.443   3.048
 9303TIP3    H227846   4.198   7.557   2.953
 9304TIP3   OH227847   4.275   7.765   3.508
 9304TIP3    H127848   4.367   7.765   3.465
 9304TIP3    H227849   4.297   7.713   3.589
 9305TIP3   OH227850   4.351   7.857   3.761
 9305TIP3    H127851   4.295   7.872   3.839
 9305TIP3    H227852   4.416   7.928   3.766
 9306TIP3   OH227853   2.983   7.559   4.544
 9306TIP3    H127854   3.079   7.561   4.561
 9306TIP3    H227855   2.958   7.479   4.593
 9307TIP3   OH227856   4.818   7.437   4.315
 9307TIP3    H127857   4.878   7.372   4.273
 9307TIP3    H227858   4.789   7.491   4.238
 9308TIP3   OH227859   4.240   7.281   3.074
 9308TIP3    H127860   4.294   7.264   3.155
 9308TIP3    H227861   4.184   7.201   3.073
 9309TIP3   OH227862   2.948   7.258   3.892
 9309TIP3    H127863   3.011   7.185   3.903
 9309TIP3    H227864   3.007   7.335   3.884
 9310TIP3   OH227865   2.746   7.530   3.967
 9310TIP3    H127866   2.795   7.532   3.883
 9310TIP3    H227867   2.767   7.617   4.003
 9311TIP3   OH227868   4.688   7.574   4.118
 9311TIP3    H127869   4.602   7.614   4.141
 9311TIP3    H227870   4.658   7.500   4.061
 9312TIP3   OH227871   4.320   7.207   2.704
 9312TIP3    H127872   4.362   7.137   2.651
 9312TIP3    H227873   4.388   7.277   2.705
 9313TIP3   OH227874   2.731   7.034   3.466
 9313TIP3    H127875   2.638   7.031   3.495
 9313TIP3    H227876   2.727   7.093   3.388
 9314TIP3   OH227877   2.911   7.045   4.271
 9314TIP3    H127878   2.870   7.079   4.354
 9314TIP3    H227879   2.865   7.104   4.208
 9315TIP3   OH227880   4.583   7.337   4.003
 9315TIP3    H127881   4.495   7.320   3.967
 9315TIP3    H227882   4.626   7.249   3.988
 9316TIP3   OH227883   3.789   7.249   3.617
 9316TIP3    H127884   3.750   7.176   3.669
 9316TIP3    H227885   3.866   7.206   3.575
 9317TIP3   OH227886   4.312   7.131   3.524
 9317TIP3    H127887   4.353   7.184   3.452
 9317TIP3    H227888   4.218   7.152   3.514
 9318TIP3   OH227889   4.408   7.233   3.288
 9318TIP3    H127890   4.484   7.183   3.251
 9318TIP3    H227891   4.449   7.321   3.301
 9319TIP3   OH227892   3.040   6.959   3.636
 9319TIP3    H127893   2.947   6.927   3.637
 9319TIP3    H227894   3.087   6.873   3.630
 9320TIP3   OH227895   2.832   6.829   3.286
 9320TIP3    H127896   2.861   6.885   3.212
 9320TIP3    H227897   2.803   6.896   3.351
 9321TIP3   OH227898   3.488   6.990   3.520
 9321TIP3    H127899   3.540   7.038   3.453
 9321TIP3    H227900   3.523   7.028   3.602
 9322TIP3   OH227901   4.026   7.139   3.501
 9322TIP3    H127902   4.031   7.098   3.413
 9322TIP3    H227903   4.016   7.059   3.558
 9323TIP3   OH227904   4.062   7.063   3.064
 9323TIP3    H127905   3.976   7.106   3.080
 9323TIP3    H227906   4.047   6.977   3.108
 9324TIP3   OH227907   2.947   6.981   3.055
 9324TIP3    H127908   2.993   6.923   2.992
 9324TIP3    H227909   3.021   7.038   3.086
 9325TIP3   OH227910   3.456   7.166   3.146
 9325TIP3    H127911   3.518   7.121   3.206
 9325TIP3    H227912   3.475   7.259   3.171
 9326TIP3   OH227913   3.251   7.217   4.510
 9326TIP3    H127914   3.214   7.160   4.581
 9326TIP3    H227915   3.343   7.226   4.544
 9327TIP3   OH227916   3.491   7.235   4.640
 9327TIP3    H127917   3.583   7.221   4.611
 9327TIP3    H227918   3.483   7.168   4.710
 9328TIP3   OH227919   4.323   7.299   4.433
 9328TIP3    H127920   4.340   7.272   4.526
 9328TIP3    H227921   4.413   7.295   4.395
 9329TIP3   OH227922   5.532   8.208   2.699
 9329TIP3    H127923   5.495   8.295   2.670
 9329TIP3    H227924   5.460   8.151   2.668
 9330TIP3   OH227925   5.527   8.224   3.079
 9330TIP3    H127926   5.564   8.197   3.165
 9330TIP3    H227927   5.485   8.141   3.050
 9331TIP3   OH227928   4.822   8.118   3.446
 9331TIP3    H127929   4.855   8.048   3.506
 9331TIP3    H227930   4.905   8.166   3.427
 9332TIP3   OH227931   5.749   8.525   2.765
 9332TIP3    H127932   5.748   8.453   2.832
 9332TIP3    H227933   5.813   8.586   2.805
 9333TIP3   OH227934   4.853   8.475   3.238
 9333TIP3    H127935   4.827   8.384   3.211
 9333TIP3    H227936   4.939   8.485   3.189
 9334TIP3   OH227937   4.508   7.734   2.938
 9334TIP3    H127938   4.457   7.816   2.955
 9334TIP3    H227939   4.437   7.675   2.909
 9335TIP3   OH227940   4.557   8.015   3.128
 9335TIP3    H127941   4.608   7.937   3.162
 9335TIP3    H227942   4.625   8.060   3.076
 9336TIP3   OH227943   5.345   8.443   3.115
 9336TIP3    H127944   5.393   8.362   3.085
 9336TIP3    H227945   5.422   8.498   3.139
 9337TIP3   OH227946   6.341   7.771   3.120
 9337TIP3    H127947   6.370   7.853   3.163
 9337TIP3    H227948   6.362   7.790   3.027
 9338TIP3   OH227949   5.740   7.953   3.151
 9338TIP3    H127950   5.781   7.867   3.173
 9338TIP3    H227951   5.706   7.934   3.062
 9339TIP3   OH227952   5.085   7.610   3.113
 9339TIP3    H127953   5.058   7.683   3.053
 9339TIP3    H227954   5.032   7.536   3.074
 9340TIP3   OH227955   5.774   7.701   2.738
 9340TIP3    H127956   5.844   7.687   2.805
 9340TIP3    H227957   5.827   7.736   2.664
 9341TIP3   OH227958   4.721   7.819   3.222
 9341TIP3    H127959   4.798   7.788   3.275
 9341TIP3    H227960   4.730   7.760   3.145
 9342TIP3   OH227961   5.148   8.010   3.025
 9342TIP3    H127962   5.242   7.985   3.037
 9342TIP3    H227963   5.109   7.926   2.993
 9343TIP3   OH227964   6.416   7.977   3.290
 9343TIP3    H127965   6.333   8.026   3.268
 9343TIP3    H227966   6.430   8.008   3.381
 9344TIP3   OH227967   5.067   7.594   3.550
 9344TIP3    H127968   5.002   7.619   3.482
 9344TIP3    H227969   5.014   7.612   3.631
 9345TIP3   OH227970   5.414   8.410   2.557
 9345TIP3    H127971   5.363   8.408   2.475
 9345TIP3    H227972   5.433   8.505   2.569
 9346TIP3   OH227973   5.178   8.375   3.344
 9346TIP3    H127974   5.111   8.438   3.376
 9346TIP3    H227975   5.210   8.421   3.263
 9347TIP3   OH227976   5.977   7.709   2.917
 9347TIP3    H127977   5.961   7.665   3.001
 9347TIP3    H227978   6.031   7.786   2.944
 9348TIP3   OH227979   4.952   7.718   3.331
 9348TIP3    H127980   5.021   7.782   3.356
 9348TIP3    H227981   4.998   7.668   3.260
 9349TIP3   OH227982   5.008   8.583   3.452
 9349TIP3    H127983   4.959   8.579   3.367
 9349TIP3    H227984   4.930   8.579   3.513
 9350TIP3   OH227985   4.397   8.220   2.687
 9350TIP3    H127986   4.363   8.226   2.594
 9350TIP3    H227987   4.410   8.314   2.704
 9351TIP3   OH227988   6.135   7.667   3.284
 9351TIP3    H127989   6.048   7.697   3.254
 9351TIP3    H227990   6.195   7.701   3.214
 9352TIP3   OH227991   5.431   7.311   3.270
 9352TIP3    H127992   5.412   7.217   3.287
 9352TIP3    H227993   5.356   7.353   3.317
 9353TIP3   OH227994   5.767   8.542   2.480
 9353TIP3    H127995   5.741   8.458   2.437
 9353TIP3    H227996   5.782   8.515   2.573
 9354TIP3   OH227997   6.024   8.701   3.265
 9354TIP3    H127998   6.040   8.607   3.242
 9354TIP3    H227999   6.062   8.738   3.182
 9355TIP3   OH228000   5.361   8.069   2.529
 9355TIP3    H128001   5.279   8.120   2.512
 9355TIP3    H228002   5.404   8.069   2.442
 9356TIP3   OH228003   5.317   7.863   2.237
 9356TIP3    H128004   5.385   7.912   2.286
 9356TIP3    H228005   5.373   7.798   2.189
 9357TIP3   OH228006   6.263   8.321   3.131
 9357TIP3    H128007   6.183   8.378   3.129
 9357TIP3    H228008   6.296   8.334   3.039
 9358TIP3   OH228009   5.708   8.150   2.499
 9358TIP3    H128010   5.653   8.171   2.578
 9358TIP3    H228011   5.792   8.124   2.543
 9359TIP3   OH228012   5.942   8.193   3.413
 9359TIP3    H128013   5.941   8.276   3.464
 9359TIP3    H228014   5.856   8.199   3.366
 9360TIP3   OH228015   4.945   8.153   2.902
 9360TIP3    H128016   4.903   8.092   2.838
 9360TIP3    H228017   5.019   8.099   2.937
 9361TIP3   OH228018   5.078   8.518   3.104
 9361TIP3    H128019   5.039   8.516   3.014
 9361TIP3    H228020   5.175   8.513   3.085
 9362TIP3   OH228021   5.064   8.132   3.265
 9362TIP3    H128022   5.100   8.103   3.179
 9362TIP3    H228023   5.113   8.215   3.281
 9363TIP3   OH228024   5.267   8.592   3.575
 9363TIP3    H128025   5.223   8.676   3.601
 9363TIP3    H228026   5.192   8.552   3.526
 9364TIP3   OH228027   5.543   8.016   2.323
 9364TIP3    H128028   5.603   8.074   2.374
 9364TIP3    H228029   5.572   8.034   2.230
 9365TIP3   OH228030   4.973   8.241   3.692
 9365TIP3    H128031   4.974   8.328   3.738
 9365TIP3    H228032   4.878   8.220   3.695
 9366TIP3   OH228033   6.061   7.255   2.370
 9366TIP3    H128034   5.980   7.276   2.421
 9366TIP3    H228035   6.075   7.338   2.320
 9367TIP3   OH228036   4.810   7.997   2.713
 9367TIP3    H128037   4.739   8.037   2.658
 9367TIP3    H228038   4.772   7.911   2.735
 9368TIP3   OH228039   4.608   8.381   3.626
 9368TIP3    H128040   4.545   8.362   3.554
 9368TIP3    H228041   4.640   8.292   3.652
 9369TIP3   OH228042   6.195   8.158   3.586
 9369TIP3    H128043   6.111   8.166   3.537
 9369TIP3    H228044   6.211   8.061   3.579
 9370TIP3   OH228045   4.795   8.584   3.625
 9370TIP3    H128046   4.846   8.548   3.699
 9370TIP3    H228047   4.720   8.520   3.619
 9371TIP3   OH228048   5.202   7.396   3.400
 9371TIP3    H128049   5.118   7.355   3.369
 9371TIP3    H228050   5.164   7.474   3.446
 9372TIP3   OH228051   5.724   7.503   3.592
 9372TIP3    H128052   5.793   7.476   3.656
 9372TIP3    H228053   5.641   7.484   3.640
 9373TIP3   OH228054   5.960   7.930   3.510
 9373TIP3    H128055   5.911   7.929   3.595
 9373TIP3    H228056   5.938   8.019   3.475
 9374TIP3   OH228057   5.627   8.047   2.068
 9374TIP3    H128058   5.591   8.027   1.979
 9374TIP3    H228059   5.697   8.111   2.045
 9375TIP3   OH228060   5.336   7.436   2.369
 9375TIP3    H128061   5.302   7.433   2.461
 9375TIP3    H228062   5.295   7.354   2.334
 9376TIP3   OH228063   5.130   7.912   3.417
 9376TIP3    H128064   5.073   7.923   3.496
 9376TIP3    H228065   5.105   7.992   3.365
 9377TIP3   OH228066   5.004   7.794   2.929
 9377TIP3    H128067   4.912   7.765   2.950
 9377TIP3    H228068   5.016   7.750   2.841
 9378TIP3   OH228069   5.499   7.873   2.661
 9378TIP3    H128070   5.445   7.942   2.615
 9378TIP3    H228071   5.553   7.839   2.588
 9379TIP3   OH228072   5.673   8.150   3.741
 9379TIP3    H128073   5.649   8.078   3.804
 9379TIP3    H228074   5.767   8.164   3.765
 9380TIP3   OH228075   5.654   7.902   2.895
 9380TIP3    H128076   5.591   7.928   2.825
 9380TIP3    H228077   5.689   7.821   2.852
 9381TIP3   OH228078   4.942   7.931   3.622
 9381TIP3    H128079   4.975   7.985   3.695
 9381TIP3    H228080   4.925   7.845   3.666
 9382TIP3   OH228081   4.993   7.413   2.333
 9382TIP3    H128082   4.982   7.410   2.431
 9382TIP3    H228083   4.913   7.464   2.308
 9383TIP3   OH228084   4.534   7.472   3.187
 9383TIP3    H128085   4.569   7.482   3.278
 9383TIP3    H228086   4.600   7.417   3.143
 9384TIP3   OH228087   4.499   7.436   2.724
 9384TIP3    H128088   4.545   7.474   2.646
 9384TIP3    H228089   4.439   7.510   2.746
 9385TIP3   OH228090   5.661   8.151   3.315
 9385TIP3    H128091   5.696   8.079   3.257
 9385TIP3    H228092   5.633   8.097   3.392
 9386TIP3   OH228093   5.338   7.612   2.989
 9386TIP3    H128094   5.255   7.611   3.041
 9386TIP3    H228095   5.405   7.604   3.058
 9387TIP3   OH228096   4.769   7.671   2.994
 9387TIP3    H128097   4.674   7.677   2.970
 9387TIP3    H228098   4.790   7.577   2.977
 9388TIP3   OH228099   5.032   7.663   2.689
 9388TIP3    H128100   5.126   7.679   2.667
 9388TIP3    H228101   4.985   7.686   2.606
 9389TIP3   OH228102   5.823   7.689   3.192
 9389TIP3    H128103   5.792   7.702   3.285
 9389TIP3    H228104   5.755   7.629   3.159
 9390TIP3   OH228105   4.881   7.702   2.465
 9390TIP3    H128106   4.809   7.654   2.419
 9390TIP3    H228107   4.932   7.736   2.389
 9391TIP3   OH228108   4.957   8.488   3.831
 9391TIP3    H128109   5.034   8.516   3.885
 9391TIP3    H228110   4.890   8.476   3.902
 9392TIP3   OH228111   5.414   7.945   3.091
 9392TIP3    H128112   5.485   7.898   3.044
 9392TIP3    H228113   5.415   7.901   3.178
 9393TIP3   OH228114   4.934   7.427   2.971
 9393TIP3    H128115   4.892   7.352   3.019
 9393TIP3    H228116   4.982   7.380   2.903
 9394TIP3   OH228117   5.393   7.846   3.367
 9394TIP3    H128118   5.302   7.876   3.389
 9394TIP3    H228119   5.449   7.902   3.425
 9395TIP3   OH228120   5.130   8.214   2.481
 9395TIP3    H128121   5.053   8.154   2.468
 9395TIP3    H228122   5.104   8.259   2.565
 9396TIP3   OH228123   6.021   8.453   3.126
 9396TIP3    H128124   6.056   8.517   3.061
 9396TIP3    H228125   5.942   8.416   3.081
 9397TIP3   OH228126   5.585   7.540   2.336
 9397TIP3    H128127   5.489   7.519   2.348
 9397TIP3    H228128   5.592   7.633   2.364
 9398TIP3   OH228129   5.529   8.568   3.469
 9398TIP3    H128130   5.572   8.525   3.544
 9398TIP3    H228131   5.438   8.579   3.504
 9399TIP3   OH228132   5.654   7.787   2.442
 9399TIP3    H128133   5.750   7.793   2.457
 9399TIP3    H228134   5.636   7.868   2.390
 9400TIP3   OH228135   4.810   8.217   3.138
 9400TIP3    H128136   4.857   8.203   3.052
 9400TIP3    H228137   4.864   8.163   3.198
 9401TIP3   OH228138   5.235   8.396   2.310
 9401TIP3    H128139   5.197   8.468   2.365
 9401TIP3    H228140   5.201   8.319   2.360
 9402TIP3   OH228141   4.704   8.160   3.766
 9402TIP3    H128142   4.741   8.176   3.855
 9402TIP3    H228143   4.665   8.073   3.783
 9403TIP3   OH228144   5.432   8.278   3.786
 9403TIP3    H128145   5.368   8.223   3.738
 9403TIP3    H228146   5.518   8.241   3.753
 9404TIP3   OH228147   6.094   7.881   2.272
 9404TIP3    H128148   6.033   7.836   2.209
 9404TIP3    H228149   6.087   7.971   2.234
 9405TIP3   OH228150   6.313   8.708   3.328
 9405TIP3    H128151   6.219   8.735   3.328
 9405TIP3    H228152   6.323   8.683   3.234
 9406TIP3   OH228153   5.784   8.332   2.998
 9406TIP3    H128154   5.693   8.301   3.018
 9406TIP3    H228155   5.823   8.249   2.963
 9407TIP3   OH228156   4.487   7.857   2.480
 9407TIP3    H128157   4.533   7.941   2.501
 9407TIP3    H228158   4.409   7.863   2.539
 9408TIP3   OH228159   5.054   8.338   2.720
 9408TIP3    H128160   5.006   8.411   2.764
 9408TIP3    H228161   5.032   8.267   2.784
 9409TIP3   OH228162   5.588   8.541   3.198
 9409TIP3    H128163   5.569   8.542   3.294
 9409TIP3    H228164   5.657   8.473   3.190
 9410TIP3   OH228165   5.590   8.372   2.054
 9410TIP3    H128166   5.623   8.355   2.146
 9410TIP3    H228167   5.504   8.414   2.072
 9411TIP3   OH228168   4.908   7.680   3.763
 9411TIP3    H128169   4.810   7.686   3.772
 9411TIP3    H228170   4.929   7.618   3.835
 9412TIP3   OH228171   5.713   8.334   2.300
 9412TIP3    H128172   5.708   8.263   2.368
 9412TIP3    H228173   5.810   8.335   2.282
 9413TIP3   OH228174   4.916   8.360   2.127
 9413TIP3    H128175   4.943   8.268   2.105
 9413TIP3    H228176   4.923   8.361   2.222
 9414TIP3   OH228177   4.606   8.098   2.557
 9414TIP3    H128178   4.537   8.134   2.617
 9414TIP3    H228179   4.611   8.171   2.492
 9415TIP3   OH228180   5.752   7.740   3.452
 9415TIP3    H128181   5.832   7.779   3.491
 9415TIP3    H228182   5.739   7.659   3.507
 9416TIP3   OH228183   5.634   7.488   2.620
 9416TIP3    H128184   5.620   7.512   2.527
 9416TIP3    H228185   5.674   7.570   2.656
 9417TIP3   OH228186   5.317   7.673   2.720
 9417TIP3    H128187   5.382   7.744   2.705
 9417TIP3    H228188   5.322   7.663   2.818
 9418TIP3   OH228189   5.590   7.989   3.523
 9418TIP3    H128190   5.615   8.039   3.603
 9418TIP3    H228191   5.643   7.907   3.534
 9419TIP3   OH228192   5.462   7.393   2.821
 9419TIP3    H128193   5.455   7.471   2.879
 9419TIP3    H228194   5.524   7.428   2.753
 9420TIP3   OH228195   4.976   7.397   2.609
 9420TIP3    H128196   4.971   7.485   2.650
 9420TIP3    H228197   5.072   7.381   2.618
 9421TIP3   OH228198   6.227   7.890   3.508
 9421TIP3    H128199   6.129   7.888   3.516
 9421TIP3    H228200   6.238   7.848   3.422
 9422TIP3   OH228201   5.879   8.085   2.898
 9422TIP3    H128202   5.804   8.024   2.911
 9422TIP3    H228203   5.951   8.039   2.946
 9423TIP3   OH228204   4.597   8.314   2.372
 9423TIP3    H128205   4.624   8.406   2.357
 9423TIP3    H228206   4.650   8.265   2.306
 9424TIP3   OH228207   4.537   7.587   2.497
 9424TIP3    H128208   4.536   7.685   2.497
 9424TIP3    H228209   4.454   7.566   2.454
 9425TIP3   OH228210   4.957   7.293   3.359
 9425TIP3    H128211   4.892   7.292   3.288
 9425TIP3    H228212   4.917   7.236   3.427
 9426TIP3   OH228213   4.754   8.460   4.009
 9426TIP3    H128214   4.771   8.366   4.026
 9426TIP3    H228215   4.662   8.457   3.976
 9427TIP3   OH228216   4.727   8.121   2.226
 9427TIP3    H128217   4.774   8.081   2.301
 9427TIP3    H228218   4.798   8.117   2.158
 9428TIP3   OH228219   5.373   8.543   3.823
 9428TIP3    H128220   5.342   8.553   3.730
 9428TIP3    H228221   5.409   8.451   3.818
 9429TIP3   OH228222   5.195   8.302   2.027
 9429TIP3    H128223   5.202   8.315   2.123
 9429TIP3    H228224   5.220   8.208   2.018
 9430TIP3   OH228225   5.843   8.562   3.412
 9430TIP3    H128226   5.906   8.614   3.358
 9430TIP3    H228227   5.759   8.604   3.391
 9431TIP3   OH228228   4.875   8.206   4.001
 9431TIP3    H128229   4.948   8.146   3.984
 9431TIP3    H228230   4.898   8.238   4.091
 9432TIP3   OH228231   4.927   8.029   2.435
 9432TIP3    H128232   4.901   7.988   2.519
 9432TIP3    H228233   4.967   7.953   2.387
 9433TIP3   OH228234   5.208   8.098   3.671
 9433TIP3    H128235   5.128   8.155   3.672
 9433TIP3    H228236   5.256   8.132   3.592
 9434TIP3   OH228237   5.040   7.827   2.280
 9434TIP3    H128238   5.014   7.826   2.185
 9434TIP3    H228239   5.137   7.830   2.272
 9435TIP3   OH228240   5.725   8.489   3.797
 9435TIP3    H128241   5.810   8.466   3.758
 9435TIP3    H228242   5.720   8.428   3.873
 9436TIP3   OH228243   5.853   8.166   1.941
 9436TIP3    H128244   5.833   8.111   1.863
 9436TIP3    H228245   5.833   8.254   1.905
 9437TIP3   OH228246   5.330   7.884   3.791
 9437TIP3    H128247   5.328   7.805   3.734
 9437TIP3    H228248   5.285   7.951   3.735
 9438TIP3   OH228249   5.327   7.671   3.598
 9438TIP3    H128250   5.355   7.707   3.512
 9438TIP3    H228251   5.233   7.647   3.581
 9439TIP3   OH228252   5.353   8.211   3.476
 9439TIP3    H128253   5.435   8.209   3.423
 9439TIP3    H228254   5.299   8.276   3.427
 9440TIP3   OH228255   5.937   8.171   3.852
 9440TIP3    H128256   5.985   8.088   3.867
 9440TIP3    H228257   6.008   8.228   3.820
 9441TIP3   OH228258   5.986   8.421   3.592
 9441TIP3    H128259   5.928   8.478   3.535
 9441TIP3    H228260   6.074   8.441   3.551
 9442TIP3   OH228261   5.208   7.991   4.025
 9442TIP3    H128262   5.141   7.922   4.041
 9442TIP3    H228263   5.242   7.965   3.937
 9443TIP3   OH228264   5.462   7.434   3.670
 9443TIP3    H128265   5.411   7.515   3.646
 9443TIP3    H228266   5.394   7.365   3.658
 9444TIP3   OH228267   5.589   7.936   3.885
 9444TIP3    H128268   5.574   7.920   3.980
 9444TIP3    H228269   5.500   7.912   3.851
 9445TIP3   OH228270   5.828   7.886   3.740
 9445TIP3    H128271   5.753   7.887   3.803
 9445TIP3    H228272   5.902   7.856   3.797
 9446TIP3   OH228273   6.057   7.828   3.889
 9446TIP3    H128274   6.071   7.733   3.906
 9446TIP3    H228275   6.053   7.865   3.980
 9447TIP3   OH228276   5.050   7.771   4.078
 9447TIP3    H128277   5.050   7.679   4.044
 9447TIP3    H228278   5.085   7.756   4.169
 9448TIP3   OH228279   5.556   7.443   3.928
 9448TIP3    H128280   5.623   7.371   3.921
 9448TIP3    H228281   5.516   7.438   3.839
 9449TIP3   OH228282   5.624   7.657   4.086
 9449TIP3    H128283   5.602   7.586   4.022
 9449TIP3    H228284   5.545   7.715   4.079
 9450TIP3   OH228285   4.335   8.221   2.416
 9450TIP3    H128286   4.418   8.261   2.381
 9450TIP3    H228287   4.321   8.148   2.352
 9451TIP3   OH228288   6.202   8.851   3.628
 9451TIP3    H128289   6.130   8.838   3.694
 9451TIP3    H228290   6.258   8.915   3.673
 9452TIP3   OH228291   5.985   8.332   2.282
 9452TIP3    H128292   6.056   8.392   2.250
 9452TIP3    H228293   6.029   8.293   2.360
 9453TIP3   OH228294   6.118   8.204   2.479
 9453TIP3    H128295   6.059   8.163   2.546
 9453TIP3    H228296   6.191   8.241   2.533
 9454TIP3   OH228297   6.053   8.115   2.125
 9454TIP3    H128298   5.980   8.123   2.059
 9454TIP3    H228299   6.030   8.191   2.183
 9455TIP3   OH228300   5.933   7.787   2.075
 9455TIP3    H128301   5.879   7.822   2.002
 9455TIP3    H228302   5.910   7.692   2.069
 9456TIP3   OH228303   5.934   8.063   2.629
 9456TIP3    H128304   5.944   7.967   2.623
 9456TIP3    H228305   5.920   8.077   2.726
 9457TIP3   OH228306   4.558   8.140   3.377
 9457TIP3    H128307   4.559   8.105   3.285
 9457TIP3    H228308   4.655   8.142   3.395
 9458TIP3   OH228309   6.227   8.490   3.481
 9458TIP3    H128310   6.297   8.421   3.476
 9458TIP3    H228311   6.263   8.558   3.419
 9459TIP3   OH228312   6.412   8.293   3.500
 9459TIP3    H128313   6.336   8.243   3.537
 9459TIP3    H228314   6.484   8.228   3.515
 9460TIP3   OH228315   5.874   7.521   2.061
 9460TIP3    H128316   5.947   7.490   2.119
 9460TIP3    H228317   5.799   7.465   2.086
 9461TIP3   OH228318   5.932   7.781   2.517
 9461TIP3    H128319   5.973   7.693   2.533
 9461TIP3    H228320   5.991   7.814   2.447
 9462TIP3   OH228321   6.094   7.953   3.014
 9462TIP3    H128322   6.180   7.979   2.975
 9462TIP3    H228323   6.107   7.991   3.104
 9463TIP3   OH228324   6.162   8.096   3.245
 9463TIP3    H128325   6.087   8.132   3.296
 9463TIP3    H228326   6.198   8.178   3.204
 9464TIP3   OH228327   4.785   7.833   4.067
 9464TIP3    H128328   4.882   7.821   4.060
 9464TIP3    H228329   4.759   7.743   4.095
 9465TIP3   OH228330   6.611   7.691   3.802
 9465TIP3    H128331   6.673   7.627   3.761
 9465TIP3    H228332   6.584   7.745   3.725
 9466TIP3   OH228333   6.041   7.532   2.558
 9466TIP3    H128334   6.088   7.515   2.642
 9466TIP3    H228335   5.980   7.455   2.556
 9467TIP3   OH228336   4.535   7.817   3.451
 9467TIP3    H128337   4.566   7.730   3.424
 9467TIP3    H228338   4.610   7.871   3.430
 9468TIP3   OH228339   6.483   7.828   3.605
 9468TIP3    H128340   6.397   7.870   3.626
 9468TIP3    H228341   6.452   7.754   3.549
 9469TIP3   OH228342   6.118   7.464   2.192
 9469TIP3    H128343   6.158   7.393   2.139
 9469TIP3    H228344   6.186   7.534   2.189
 9470TIP3   OH228345   4.524   7.275   2.941
 9470TIP3    H128346   4.438   7.288   2.984
 9470TIP3    H228347   4.523   7.344   2.872
 9471TIP3   OH228348   4.757   7.378   3.752
 9471TIP3    H128349   4.687   7.390   3.818
 9471TIP3    H228350   4.711   7.409   3.670
 9472TIP3   OH228351   6.384   7.590   3.487
 9472TIP3    H128352   6.293   7.580   3.454
 9472TIP3    H228353   6.418   7.498   3.477
 9473TIP3   OH228354   5.587   7.505   3.108
 9473TIP3    H128355   5.545   7.435   3.161
 9473TIP3    H228356   5.661   7.458   3.065
 9474TIP3   OH228357   6.108   7.386   3.009
 9474TIP3    H128358   6.144   7.439   2.935
 9474TIP3    H228359   6.013   7.408   3.005
 9475TIP3   OH228360   6.205   7.487   2.774
 9475TIP3    H128361   6.280   7.435   2.738
 9475TIP3    H228362   6.239   7.578   2.760
 9476TIP3   OH228363   4.827   7.217   3.108
 9476TIP3    H128364   4.738   7.177   3.116
 9476TIP3    H228365   4.883   7.137   3.115
 9477TIP3   OH228366   4.623   7.083   2.769
 9477TIP3    H128367   4.653   7.143   2.699
 9477TIP3    H228368   4.592   7.146   2.837
 9478TIP3   OH228369   5.283   7.245   3.001
 9478TIP3    H128370   5.343   7.296   2.944
 9478TIP3    H228371   5.298   7.286   3.088
 9479TIP3   OH228372   5.825   7.396   2.987
 9479TIP3    H128373   5.826   7.354   2.900
 9479TIP3    H228374   5.814   7.317   3.046
 9480TIP3   OH228375   5.858   7.320   2.551
 9480TIP3    H128376   5.772   7.363   2.569
 9480TIP3    H228377   5.844   7.234   2.595
 9481TIP3   OH228378   4.743   7.246   2.532
 9481TIP3    H128379   4.791   7.182   2.476
 9481TIP3    H228380   4.817   7.299   2.569
 9482TIP3   OH228381   5.253   7.422   2.632
 9482TIP3    H128382   5.311   7.375   2.695
 9482TIP3    H228383   5.273   7.515   2.658
 9483TIP3   OH228384   5.044   7.496   4.018
 9483TIP3    H128385   5.010   7.424   4.073
 9483TIP3    H228386   5.139   7.497   4.045
 9484TIP3   OH228387   5.295   7.494   4.134
 9484TIP3    H128388   5.380   7.468   4.094
 9484TIP3    H228389   5.282   7.423   4.200
 9485TIP3   OH228390   6.121   7.558   3.920
 9485TIP3    H128391   6.139   7.527   4.012
 9485TIP3    H228392   6.210   7.553   3.880
 9486TIP3   OH228393   6.623   8.366   2.912
 9486TIP3    H128394   6.679   8.342   2.987
 9486TIP3    H228395   6.688   8.411   2.852
 9487TIP3   OH228396   6.299   7.985   2.426
 9487TIP3    H128397   6.256   8.069   2.450
 9487TIP3    H228398   6.224   7.937   2.386
 9488TIP3   OH228399   6.361   8.269   2.588
 9488TIP3    H128400   6.402   8.200   2.644
 9488TIP3    H228401   6.439   8.309   2.547
 9489TIP3   OH228402   6.831   7.865   2.614
 9489TIP3    H128403   6.812   7.931   2.545
 9489TIP3    H228404   6.794   7.785   2.570
 9490TIP3   OH228405   6.501   8.069   2.713
 9490TIP3    H128406   6.582   8.054   2.766
 9490TIP3    H228407   6.518   8.009   2.637
 9491TIP3   OH228408   6.857   7.842   3.050
 9491TIP3    H128409   6.801   7.883   2.981
 9491TIP3    H228410   6.802   7.861   3.129
 9492TIP3   OH228411   6.730   7.970   2.841
 9492TIP3    H128412   6.796   8.040   2.859
 9492TIP3    H228413   6.771   7.929   2.760
 9493TIP3   OH228414   6.198   8.477   2.193
 9493TIP3    H128415   6.184   8.527   2.111
 9493TIP3    H228416   6.247   8.544   2.243
 9494TIP3   OH228417   7.201   7.563   2.752
 9494TIP3    H128418   7.204   7.472   2.786
 9494TIP3    H228419   7.128   7.601   2.806
 9495TIP3   OH228420   6.724   8.498   3.179
 9495TIP3    H128421   6.717   8.581   3.228
 9495TIP3    H228422   6.630   8.468   3.190
 9496TIP3   OH228423   6.578   8.234   2.141
 9496TIP3    H128424   6.580   8.326   2.176
 9496TIP3    H228425   6.535   8.187   2.214
 9497TIP3   OH228426   6.977   7.649   2.890
 9497TIP3    H128427   6.890   7.616   2.858
 9497TIP3    H228428   6.945   7.725   2.944
 9498TIP3   OH228429   7.498   7.714   3.107
 9498TIP3    H128430   7.528   7.757   3.188
 9498TIP3    H228431   7.401   7.707   3.124
 9499TIP3   OH228432   6.927   8.151   2.915
 9499TIP3    H128433   6.867   8.185   2.986
 9499TIP3    H228434   6.929   8.224   2.851
 9500TIP3   OH228435   6.779   8.028   2.394
 9500TIP3    H128436   6.690   7.999   2.427
 9500TIP3    H228437   6.754   8.070   2.310
 9501TIP3   OH228438   6.763   8.198   3.129
 9501TIP3    H128439   6.729   8.264   3.191
 9501TIP3    H228440   6.734   8.115   3.170
 9502TIP3   OH228441   6.766   7.638   1.815
 9502TIP3    H128442   6.765   7.637   1.913
 9502TIP3    H228443   6.690   7.693   1.795
 9503TIP3   OH228444   6.329   7.711   2.689
 9503TIP3    H128445   6.402   7.742   2.746
 9503TIP3    H228446   6.374   7.677   2.611
 9504TIP3   OH228447   6.296   7.691   2.208
 9504TIP3    H128448   6.343   7.727   2.130
 9504TIP3    H228449   6.237   7.767   2.229
 9505TIP3   OH228450   7.087   7.807   2.539
 9505TIP3    H128451   7.000   7.814   2.583
 9505TIP3    H228452   7.140   7.868   2.592
 9506TIP3   OH228453   6.553   7.916   2.487
 9506TIP3    H128454   6.458   7.929   2.462
 9506TIP3    H228455   6.568   7.822   2.464
 9507TIP3   OH228456   6.632   7.932   1.984
 9507TIP3    H128457   6.563   7.890   1.929
 9507TIP3    H228458   6.631   8.024   1.949
 9508TIP3   OH228459   6.732   7.674   2.449
 9508TIP3    H128460   6.696   7.597   2.498
 9508TIP3    H228461   6.799   7.632   2.393
 9509TIP3   OH228462   6.478   8.428   3.264
 9509TIP3    H128463   6.472   8.389   3.353
 9509TIP3    H228464   6.400   8.388   3.218
 9510TIP3   OH228465   6.276   8.108   1.969
 9510TIP3    H128466   6.321   8.190   1.995
 9510TIP3    H228467   6.196   8.113   2.026
 9511TIP3   OH228468   6.705   7.932   3.259
 9511TIP3    H128469   6.608   7.935   3.269
 9511TIP3    H228470   6.731   7.876   3.334
 9512TIP3   OH228471   6.741   7.650   2.090
 9512TIP3    H128472   6.723   7.742   2.116
 9512TIP3    H228473   6.835   7.641   2.120
 9513TIP3   OH228474   6.325   7.839   1.974
 9513TIP3    H128475   6.320   7.937   1.980
 9513TIP3    H228476   6.235   7.816   1.948
 9514TIP3   OH228477   6.718   7.563   2.856
 9514TIP3    H128478   6.688   7.528   2.769
 9514TIP3    H228479   6.708   7.485   2.914
 9515TIP3   OH228480   6.550   8.717   3.477
 9515TIP3    H128481   6.587   8.626   3.476
 9515TIP3    H228482   6.466   8.704   3.429
 9516TIP3   OH228483   6.686   8.472   3.492
 9516TIP3    H128484   6.744   8.396   3.485
 9516TIP3    H228485   6.699   8.499   3.585
 9517TIP3   OH228486   7.094   8.157   3.276
 9517TIP3    H128487   7.133   8.070   3.255
 9517TIP3    H228488   7.029   8.168   3.206
 9518TIP3   OH228489   7.105   7.945   3.060
 9518TIP3    H128490   7.075   7.996   2.983
 9518TIP3    H228491   7.020   7.901   3.082
 9519TIP3   OH228492   6.998   8.246   3.518
 9519TIP3    H128493   6.931   8.175   3.530
 9519TIP3    H228494   7.035   8.222   3.429
 9520TIP3   OH228495   7.230   7.694   3.161
 9520TIP3    H128496   7.177   7.769   3.131
 9520TIP3    H228497   7.167   7.619   3.150
 9521TIP3   OH228498   6.842   8.024   3.565
 9521TIP3    H128499   6.846   7.932   3.533
 9521TIP3    H228500   6.877   8.012   3.656
 9522TIP3   OH228501   7.352   7.693   3.408
 9522TIP3    H128502   7.424   7.627   3.399
 9522TIP3    H228503   7.304   7.682   3.324
 9523TIP3   OH228504   7.415   7.896   3.581
 9523TIP3    H128505   7.395   7.832   3.510
 9523TIP3    H228506   7.346   7.966   3.567
 9524TIP3   OH228507   6.087   8.491   1.860
 9524TIP3    H128508   6.176   8.529   1.861
 9524TIP3    H228509   6.101   8.406   1.814
 9525TIP3   OH228510   6.360   8.328   2.879
 9525TIP3    H128511   6.341   8.365   2.792
 9525TIP3    H228512   6.456   8.351   2.889
 9526TIP3   OH228513   6.577   8.080   3.536
 9526TIP3    H128514   6.675   8.075   3.541
 9526TIP3    H228515   6.553   7.993   3.573
 9527TIP3   OH228516   6.533   7.771   2.863
 9527TIP3    H128517   6.597   7.698   2.872
 9527TIP3    H228518   6.592   7.848   2.865
 9528TIP3   OH228519   6.337   8.052   2.938
 9528TIP3    H128520   6.389   8.042   2.855
 9528TIP3    H228521   6.343   8.149   2.948
 9529TIP3   OH228522   6.324   7.549   2.437
 9529TIP3    H128523   6.232   7.545   2.468
 9529TIP3    H228524   6.317   7.608   2.359
 9530TIP3   OH228525   6.542   7.631   3.253
 9530TIP3    H128526   6.491   7.626   3.336
 9530TIP3    H228527   6.476   7.669   3.193
 9531TIP3   OH228528   6.632   7.471   2.608
 9531TIP3    H128529   6.540   7.436   2.612
 9531TIP3    H228530   6.682   7.387   2.605
 9532TIP3   OH228531   6.417   7.342   2.259
 9532TIP3    H128532   6.448   7.398   2.186
 9532TIP3    H228533   6.393   7.410   2.326
 9533TIP3   OH228534   7.054   7.496   2.521
 9533TIP3    H128535   7.110   7.546   2.461
 9533TIP3    H228536   7.088   7.528   2.607
 9534TIP3   OH228537   6.527   7.493   2.017
 9534TIP3    H128538   6.578   7.430   1.961
 9534TIP3    H228539   6.600   7.548   2.053
 9535TIP3   OH228540   7.005   7.666   2.158
 9535TIP3    H128541   7.056   7.593   2.119
 9535TIP3    H228542   7.063   7.741   2.135
 9536TIP3   OH228543   6.839   7.752   3.499
 9536TIP3    H128544   6.804   7.682   3.557
 9536TIP3    H228545   6.934   7.751   3.527
 9537TIP3   OH228546   7.087   7.747   3.618
 9537TIP3    H128547   7.178   7.733   3.587
 9537TIP3    H228548   7.078   7.676   3.685
 9538TIP3   OH228549   2.270   0.944   7.518
 9538TIP3    H128550   2.274   0.874   7.584
 9538TIP3    H228551   2.312   1.018   7.563
 9539TIP3   OH228552   1.925   1.397   7.541
 9539TIP3    H128553   1.986   1.339   7.490
 9539TIP3    H228554   1.938   1.362   7.629
 9540TIP3   OH228555   1.935   0.883   7.349
 9540TIP3    H128556   1.915   0.847   7.262
 9540TIP3    H228557   1.945   0.978   7.328
 9541TIP3   OH228558   2.082   1.238   7.394
 9541TIP3    H128559   2.120   1.155   7.358
 9541TIP3    H228560   2.129   1.303   7.336
 9542TIP3   OH228561   2.185   1.017   7.267
 9542TIP3    H128562   2.186   0.939   7.209
 9542TIP3    H228563   2.218   0.979   7.351
 9543TIP3   OH228564   2.203   0.597   7.274
 9543TIP3    H128565   2.149   0.588   7.353
 9543TIP3    H228566   2.286   0.554   7.302
 9544TIP3   OH228567   1.829   1.150   7.303
 9544TIP3    H128568   1.882   1.197   7.370
 9544TIP3    H228569   1.739   1.179   7.322
 9545TIP3   OH228570   2.363   1.040   6.688
 9545TIP3    H128571   2.376   1.136   6.671
 9545TIP3    H228572   2.454   1.007   6.670
 9546TIP3   OH228573   1.655   1.357   7.164
 9546TIP3    H128574   1.629   1.355   7.070
 9546TIP3    H228575   1.640   1.450   7.189
 9547TIP3   OH228576   1.883   1.257   6.806
 9547TIP3    H128577   1.945   1.189   6.771
 9547TIP3    H228578   1.918   1.271   6.896
 9548TIP3   OH228579   1.923   1.312   7.076
 9548TIP3    H128580   1.841   1.303   7.128
 9548TIP3    H228581   1.985   1.265   7.135
 9549TIP3   OH228582   2.112   0.497   6.824
 9549TIP3    H128583   2.094   0.451   6.741
 9549TIP3    H228584   2.203   0.528   6.810
 9550TIP3   OH228585   1.832   0.851   7.006
 9550TIP3    H128586   1.768   0.923   7.025
 9550TIP3    H228587   1.811   0.788   7.078
 9551TIP3   OH228588   2.618   0.305   7.028
 9551TIP3    H128589   2.554   0.249   6.980
 9551TIP3    H228590   2.595   0.392   6.989
 9552TIP3   OH228591   2.294   1.115   6.949
 9552TIP3    H128592   2.286   1.040   7.009
 9552TIP3    H228593   2.318   1.073   6.864
 9553TIP3   OH228594   2.062   0.850   6.853
 9553TIP3    H128595   2.120   0.818   6.925
 9553TIP3    H228596   1.976   0.848   6.902
 9554TIP3   OH228597   2.398   1.315   6.665
 9554TIP3    H128598   2.445   1.390   6.626
 9554TIP3    H228599   2.318   1.361   6.698
 9555TIP3   OH228600   2.220   0.790   7.075
 9555TIP3    H128601   2.205   0.715   7.137
 9555TIP3    H228602   2.316   0.777   7.058
 9556TIP3   OH228603   1.643   1.038   7.060
 9556TIP3    H128604   1.582   1.047   7.135
 9556TIP3    H228605   1.655   1.132   7.034
 9557TIP3   OH228606   2.351   1.471   7.647
 9557TIP3    H128607   2.310   1.516   7.571
 9557TIP3    H228608   2.445   1.477   7.622
 9558TIP3   OH228609   1.590   1.003   6.773
 9558TIP3    H128610   1.598   0.967   6.863
 9558TIP3    H228611   1.669   0.964   6.729
 9559TIP3   OH228612   2.028   1.065   6.674
 9559TIP3    H128613   2.070   1.003   6.738
 9559TIP3    H228614   2.091   1.062   6.599
 9560TIP3   OH228615   2.362   0.572   6.716
 9560TIP3    H128616   2.349   0.531   6.629
 9560TIP3    H228617   2.328   0.662   6.695
 9561TIP3   OH228618   1.360   1.320   6.936
 9561TIP3    H128619   1.456   1.304   6.928
 9561TIP3    H228620   1.344   1.370   6.853
 9562TIP3   OH228621   2.624   1.538   7.594
 9562TIP3    H128622   2.646   1.617   7.646
 9562TIP3    H228623   2.659   1.562   7.506
 9563TIP3   OH228624   2.492   0.756   7.045
 9563TIP3    H128625   2.558   0.822   7.012
 9563TIP3    H228626   2.542   0.719   7.121
 9564TIP3   OH228627   2.625   0.627   7.245
 9564TIP3    H128628   2.559   0.592   7.307
 9564TIP3    H228629   2.693   0.668   7.303
 9565TIP3   OH228630   2.654   1.019   7.680
 9565TIP3    H128631   2.723   0.953   7.656
 9565TIP3    H228632   2.678   1.092   7.620
 9566TIP3   OH228633   2.563   0.537   6.894
 9566TIP3    H128634   2.491   0.543   6.826
 9566TIP3    H228635   2.536   0.612   6.951
 9567TIP3   OH228636   2.440   0.197   6.842
 9567TIP3    H128637   2.402   0.270   6.791
 9567TIP3    H228638   2.386   0.123   6.811
 9568TIP3   OH228639   2.436   0.486   7.399
 9568TIP3    H128640   2.463   0.394   7.383
 9568TIP3    H228641   2.447   0.495   7.495
 9569TIP3   OH228642   2.183   1.423   7.225
 9569TIP3    H128643   2.236   1.409   7.143
 9569TIP3    H228644   2.244   1.479   7.277
 9570TIP3   OH228645   1.624   1.263   6.894
 9570TIP3    H128646   1.716   1.279   6.860
 9570TIP3    H228647   1.601   1.185   6.839
 9571TIP3   OH228648   2.328   1.382   6.998
 9571TIP3    H128649   2.325   1.284   6.985
 9571TIP3    H228650   2.293   1.413   6.912
 9572TIP3   OH228651   3.830   0.896   6.949
 9572TIP3    H128652   3.802   0.987   6.927
 9572TIP3    H228653   3.757   0.846   6.908
 9573TIP3   OH228654   3.836   0.899   7.330
 9573TIP3    H128655   3.861   0.876   7.421
 9573TIP3    H228656   3.787   0.821   7.301
 9574TIP3   OH228657   3.132   0.815   7.665
 9574TIP3    H128658   3.125   0.779   7.755
 9574TIP3    H228659   3.228   0.808   7.644
 9575TIP3   OH228660   4.078   1.200   7.014
 9575TIP3    H128661   4.060   1.135   7.083
 9575TIP3    H228662   4.107   1.277   7.065
 9576TIP3   OH228663   3.103   1.209   7.427
 9576TIP3    H128664   3.092   1.112   7.419
 9576TIP3    H228665   3.199   1.216   7.408
 9577TIP3   OH228666   2.795   0.411   7.220
 9577TIP3    H128667   2.745   0.494   7.224
 9577TIP3    H228668   2.737   0.360   7.160
 9578TIP3   OH228669   2.854   0.705   7.374
 9578TIP3    H128670   2.896   0.625   7.413
 9578TIP3    H228671   2.923   0.734   7.312
 9579TIP3   OH228672   3.730   1.663   7.030
 9579TIP3    H128673   3.770   1.592   6.976
 9579TIP3    H228674   3.715   1.617   7.114
 9580TIP3   OH228675   3.629   1.122   7.380
 9580TIP3    H128676   3.667   1.050   7.328
 9580TIP3    H228677   3.713   1.168   7.404
 9581TIP3   OH228678   4.043   0.616   7.425
 9581TIP3    H128679   4.094   0.536   7.408
 9581TIP3    H228680   4.001   0.631   7.338
 9582TIP3   OH228681   3.357   0.255   7.356
 9582TIP3    H128682   3.341   0.335   7.302
 9582TIP3    H228683   3.277   0.204   7.338
 9583TIP3   OH228684   4.040   0.408   7.049
 9583TIP3    H128685   4.101   0.356   7.105
 9583TIP3    H228686   4.087   0.406   6.964
 9584TIP3   OH228687   2.983   0.490   7.471
 9584TIP3    H128688   3.065   0.482   7.524
 9584TIP3    H228689   3.002   0.423   7.403
 9585TIP3   OH228690   3.446   0.686   7.283
 9585TIP3    H128691   3.541   0.661   7.296
 9585TIP3    H228692   3.408   0.601   7.253
 9586TIP3   OH228693   4.663   0.631   7.602
 9586TIP3    H128694   4.600   0.688   7.552
 9586TIP3    H228695   4.736   0.693   7.618
 9587TIP3   OH228696   3.722   1.116   6.815
 9587TIP3    H128697   3.678   1.100   6.731
 9587TIP3    H228698   3.677   1.198   6.844
 9588TIP3   OH228699   3.491   1.053   7.606
 9588TIP3    H128700   3.425   1.121   7.632
 9588TIP3    H228701   3.534   1.095   7.528
 9589TIP3   OH228702   3.234   0.434   7.553
 9589TIP3    H128703   3.309   0.483   7.592
 9589TIP3    H228704   3.279   0.360   7.510
 9590TIP3   OH228705   3.304   1.230   7.708
 9590TIP3    H128706   3.272   1.305   7.653
 9590TIP3    H228707   3.237   1.227   7.778
 9591TIP3   OH228708   2.689   0.918   6.949
 9591TIP3    H128709   2.678   0.955   6.860
 9591TIP3    H228710   2.740   0.991   6.989
 9592TIP3   OH228711   4.145   1.445   7.176
 9592TIP3    H128712   4.055   1.436   7.214
 9592TIP3    H228713   4.137   1.530   7.129
 9593TIP3   OH228714   3.844   1.490   6.849
 9593TIP3    H128715   3.894   1.408   6.829
 9593TIP3    H228716   3.905   1.556   6.808
 9594TIP3   OH228717   3.987   1.274   6.763
 9594TIP3    H128718   3.946   1.194   6.725
 9594TIP3    H228719   4.025   1.239   6.846
 9595TIP3   OH228720   4.366   1.357   7.521
 9595TIP3    H128721   4.359   1.278   7.464
 9595TIP3    H228722   4.350   1.430   7.458
 9596TIP3   OH228723   3.667   0.752   6.780
 9596TIP3    H128724   3.584   0.802   6.765
 9596TIP3    H228725   3.703   0.750   6.689
 9597TIP3   OH228726   3.619   0.533   6.495
 9597TIP3    H128727   3.690   0.585   6.537
 9597TIP3    H228728   3.670   0.467   6.446
 9598TIP3   OH228729   4.566   0.994   7.367
 9598TIP3    H128730   4.484   1.048   7.372
 9598TIP3    H228731   4.597   1.018   7.277
 9599TIP3   OH228732   4.006   0.833   6.748
 9599TIP3    H128733   3.952   0.858   6.827
 9599TIP3    H228734   4.092   0.813   6.791
 9600TIP3   OH228735   4.238   0.850   7.669
 9600TIP3    H128736   4.247   0.929   7.726
 9600TIP3    H228737   4.155   0.872   7.623
 9601TIP3   OH228738   3.240   0.827   7.165
 9601TIP3    H128739   3.199   0.769   7.096
 9601TIP3    H228740   3.317   0.773   7.193
 9602TIP3   OH228741   3.366   1.238   7.315
 9602TIP3    H128742   3.343   1.208   7.225
 9602TIP3    H228743   3.455   1.201   7.327
 9603TIP3   OH228744   3.382   0.810   7.525
 9603TIP3    H128745   3.400   0.786   7.432
 9603TIP3    H228746   3.419   0.900   7.532
 9604TIP3   OH228747   3.905   1.440   7.298
 9604TIP3    H128748   3.887   1.519   7.351
 9604TIP3    H228749   3.887   1.366   7.360
 9605TIP3   OH228750   3.509   1.394   7.795
 9605TIP3    H128751   3.458   1.446   7.860
 9605TIP3    H228752   3.444   1.326   7.767
 9606TIP3   OH228753   3.852   0.685   6.575
 9606TIP3    H128754   3.906   0.750   6.625
 9606TIP3    H228755   3.877   0.707   6.482
 9607TIP3   OH228756   3.597   1.364   6.860
 9607TIP3    H128757   3.677   1.421   6.861
 9607TIP3    H228758   3.535   1.415   6.806
 9608TIP3   OH228759   3.259   1.571   7.855
 9608TIP3    H128760   3.281   1.535   7.767
 9608TIP3    H228761   3.189   1.633   7.830
 9609TIP3   OH228762   3.106   0.670   6.970
 9609TIP3    H128763   3.044   0.722   6.915
 9609TIP3    H228764   3.059   0.587   6.979
 9610TIP3   OH228765   4.165   1.295   6.176
 9610TIP3    H128766   4.172   1.391   6.159
 9610TIP3    H228767   4.259   1.267   6.164
 9611TIP3   OH228768   2.750   1.244   7.530
 9611TIP3    H128769   2.839   1.241   7.493
 9611TIP3    H228770   2.736   1.338   7.549
 9612TIP3   OH228771   4.607   1.704   7.569
 9612TIP3    H128772   4.606   1.607   7.582
 9612TIP3    H228773   4.523   1.728   7.614
 9613TIP3   OH228774   3.737   1.486   7.695
 9613TIP3    H128775   3.723   1.581   7.714
 9613TIP3    H228776   3.652   1.449   7.730
 9614TIP3   OH228777   3.480   1.616   6.655
 9614TIP3    H128778   3.428   1.592   6.576
 9614TIP3    H228779   3.443   1.702   6.680
 9615TIP3   OH228780   2.914   1.466   7.037
 9615TIP3    H128781   2.959   1.450   7.123
 9615TIP3    H228782   2.864   1.381   7.027
 9616TIP3   OH228783   3.675   1.518   6.292
 9616TIP3    H128784   3.733   1.446   6.256
 9616TIP3    H228785   3.710   1.527   6.383
 9617TIP3   OH228786   3.730   1.566   6.560
 9617TIP3    H128787   3.641   1.576   6.601
 9617TIP3    H228788   3.779   1.524   6.633
 9618TIP3   OH228789   4.500   0.817   7.833
 9618TIP3    H128790   4.422   0.869   7.808
 9618TIP3    H228791   4.486   0.733   7.788
 9619TIP3   OH228792   4.234   0.584   7.795
 9619TIP3    H128793   4.247   0.647   7.874
 9619TIP3    H228794   4.230   0.659   7.722
 9620TIP3   OH228795   3.930   0.723   6.318
 9620TIP3    H128796   3.891   0.707   6.230
 9620TIP3    H228797   4.006   0.779   6.295
 9621TIP3   OH228798   3.442   0.582   7.660
 9621TIP3    H128799   3.430   0.623   7.746
 9621TIP3    H228800   3.427   0.660   7.601
 9622TIP3   OH228801   3.308   0.464   7.191
 9622TIP3    H128802   3.212   0.448   7.199
 9622TIP3    H228803   3.323   0.436   7.097
 9623TIP3   OH228804   3.795   0.554   6.917
 9623TIP3    H128805   3.746   0.626   6.870
 9623TIP3    H228806   3.860   0.528   6.849
 9624TIP3   OH228807   3.937   0.625   7.173
 9624TIP3    H128808   3.883   0.670   7.106
 9624TIP3    H228809   3.960   0.544   7.121
 9625TIP3   OH228810   2.883   0.223   7.013
 9625TIP3    H128811   2.892   0.221   6.916
 9625TIP3    H228812   2.788   0.245   7.020
 9626TIP3   OH228813   3.953   0.824   7.575
 9626TIP3    H128814   3.990   0.750   7.521
 9626TIP3    H228815   3.937   0.777   7.660
 9627TIP3   OH228816   3.056   0.336   7.235
 9627TIP3    H128817   2.963   0.371   7.230
 9627TIP3    H228818   3.046   0.265   7.170
 9628TIP3   OH228819   3.352   0.360   6.944
 9628TIP3    H128820   3.440   0.350   6.903
 9628TIP3    H228821   3.292   0.353   6.867
 9629TIP3   OH228822   3.187   0.341   6.719
 9629TIP3    H128823   3.112   0.326   6.658
 9629TIP3    H228824   3.245   0.390   6.658
 9630TIP3   OH228825   4.303   2.052   7.664
 9630TIP3    H128826   4.302   2.078   7.570
 9630TIP3    H228827   4.380   2.101   7.697
 9631TIP3   OH228828   3.707   0.620   7.344
 9631TIP3    H128829   3.789   0.591   7.300
 9631TIP3    H228830   3.718   0.584   7.435
 9632TIP3   OH228831   3.733   0.535   7.604
 9632TIP3    H128832   3.642   0.511   7.627
 9632TIP3    H228833   3.763   0.581   7.684
 9633TIP3   OH228834   3.442   0.895   6.736
 9633TIP3    H128835   3.364   0.839   6.717
 9633TIP3    H228836   3.415   0.937   6.821
 9634TIP3   OH228837   4.332   1.138   7.356
 9634TIP3    H128838   4.358   1.189   7.276
 9634TIP3    H228839   4.247   1.098   7.328
 9635TIP3   OH228840   3.870   0.284   6.549
 9635TIP3    H128841   3.808   0.235   6.606
 9635TIP3    H228842   3.905   0.350   6.613
 9636TIP3   OH228843   3.828   1.218   7.717
 9636TIP3    H128844   3.837   1.189   7.808
 9636TIP3    H228845   3.795   1.309   7.724
 9637TIP3   OH228846   3.968   0.478   6.714
 9637TIP3    H128847   4.066   0.491   6.719
 9637TIP3    H228848   3.941   0.554   6.658
 9638TIP3   OH228849   3.124   0.939   7.391
 9638TIP3    H128850   3.164   0.898   7.312
 9638TIP3    H228851   3.139   0.874   7.461
 9639TIP3   OH228852   3.577   1.052   6.555
 9639TIP3    H128853   3.529   1.139   6.558
 9639TIP3    H228854   3.519   0.998   6.613
 9640TIP3   OH228855   4.002   1.479   7.631
 9640TIP3    H128856   3.905   1.469   7.634
 9640TIP3    H228857   4.015   1.555   7.689
 9641TIP3   OH228858   4.400   0.551   6.518
 9641TIP3    H128859   4.342   0.500   6.457
 9641TIP3    H228860   4.386   0.641   6.480
 9642TIP3   OH228861   4.615   1.412   7.613
 9642TIP3    H128862   4.518   1.401   7.597
 9642TIP3    H228863   4.647   1.381   7.525
 9643TIP3   OH228864   4.105   1.371   6.440
 9643TIP3    H128865   4.075   1.299   6.497
 9643TIP3    H228866   4.117   1.328   6.354
 9644TIP3   OH228867   4.096   1.004   7.274
 9644TIP3    H128868   4.003   0.977   7.284
 9644TIP3    H228869   4.132   0.926   7.226
 9645TIP3   OH228870   3.225   1.231   7.035
 9645TIP3    H128871   3.222   1.311   6.979
 9645TIP3    H228872   3.134   1.199   7.023
 9646TIP3   OH228873   2.790   0.533   6.736
 9646TIP3    H128874   2.835   0.619   6.750
 9646TIP3    H228875   2.713   0.542   6.796
 9647TIP3   OH228876   3.361   0.995   6.975
 9647TIP3    H128877   3.327   1.085   6.991
 9647TIP3    H228878   3.319   0.945   7.048
 9648TIP3   OH228879   3.501   1.573   7.482
 9648TIP3    H128880   3.540   1.650   7.435
 9648TIP3    H228881   3.577   1.543   7.534
 9649TIP3   OH228882   3.147   1.466   6.883
 9649TIP3    H128883   3.059   1.473   6.926
 9649TIP3    H228884   3.176   1.560   6.884
 9650TIP3   OH228885   3.883   1.207   7.452
 9650TIP3    H128886   3.873   1.204   7.550
 9650TIP3    H228887   3.962   1.153   7.438
 9651TIP3   OH228888   3.859   1.099   6.340
 9651TIP3    H128889   3.911   1.075   6.420
 9651TIP3    H228890   3.770   1.073   6.367
 9652TIP3   OH228891   4.125   1.740   7.507
 9652TIP3    H128892   4.044   1.690   7.487
 9652TIP3    H228893   4.121   1.806   7.434
 9653TIP3   OH228894   4.195   1.568   6.159
 9653TIP3    H128895   4.236   1.633   6.100
 9653TIP3    H228896   4.119   1.621   6.191
 9654TIP3   OH228897   4.020   1.031   6.554
 9654TIP3    H128898   4.010   0.966   6.626
 9654TIP3    H228899   4.118   1.030   6.542
 9655TIP3   OH228900   2.947   1.450   7.645
 9655TIP3    H128901   2.983   1.360   7.654
 9655TIP3    H228902   2.899   1.461   7.729
 9656TIP3   OH228903   3.226   1.077   6.329
 9656TIP3    H128904   3.237   0.982   6.307
 9656TIP3    H228905   3.220   1.071   6.428
 9657TIP3   OH228906   3.205   1.081   6.599
 9657TIP3    H128907   3.185   1.042   6.685
 9657TIP3    H228908   3.171   1.172   6.611
 9658TIP3   OH228909   2.904   0.780   6.817
 9658TIP3    H128910   2.835   0.818   6.875
 9658TIP3    H228911   2.926   0.861   6.767
 9659TIP3   OH228912   3.446   1.290   6.563
 9659TIP3    H128913   3.354   1.294   6.596
 9659TIP3    H228914   3.445   1.364   6.500
 9660TIP3   OH228915   3.644   0.330   6.934
 9660TIP3    H128916   3.694   0.415   6.930
 9660TIP3    H228917   3.635   0.318   7.029
 9661TIP3   OH228918   3.913   0.691   7.809
 9661TIP3    H128919   3.927   0.758   7.881
 9661TIP3    H228920   3.942   0.611   7.856
 9662TIP3   OH228921   3.183   1.357   6.625
 9662TIP3    H128922   3.150   1.429   6.567
 9662TIP3    H228923   3.162   1.393   6.714
 9663TIP3   OH228924   4.186   0.762   7.154
 9663TIP3    H128925   4.106   0.709   7.167
 9663TIP3    H228926   4.255   0.710   7.201
 9664TIP3   OH228927   2.839   0.261   6.740
 9664TIP3    H128928   2.835   0.359   6.735
 9664TIP3    H228929   2.746   0.236   6.736
 9665TIP3   OH228930   4.152   1.716   7.099
 9665TIP3    H128931   4.109   1.763   7.024
 9665TIP3    H228932   4.246   1.734   7.078
 9666TIP3   OH228933   2.785   1.221   7.013
 9666TIP3    H128934   2.705   1.265   6.974
 9666TIP3    H228935   2.823   1.183   6.930
 9667TIP3   OH228936   3.385   1.282   6.248
 9667TIP3    H128937   3.326   1.211   6.285
 9667TIP3    H228938   3.462   1.229   6.223
 9668TIP3   OH228939   4.059   1.602   7.892
 9668TIP3    H128940   4.110   1.525   7.862
 9668TIP3    H228941   4.133   1.665   7.909
 9669TIP3   OH228942   3.821   1.321   6.164
 9669TIP3    H128943   3.865   1.258   6.223
 9669TIP3    H228944   3.879   1.320   6.085
 9670TIP3   OH228945   3.031   0.769   6.460
 9670TIP3    H128946   3.074   0.781   6.546
 9670TIP3    H228947   3.106   0.788   6.400
 9671TIP3   OH228948   3.552   1.003   6.283
 9671TIP3    H128949   3.546   1.015   6.381
 9671TIP3    H228950   3.548   0.905   6.278
 9672TIP3   OH228951   4.157   1.249   7.670
 9672TIP3    H128952   4.235   1.284   7.622
 9672TIP3    H228953   4.091   1.317   7.647
 9673TIP3   OH228954   3.243   0.708   6.700
 9673TIP3    H128955   3.212   0.666   6.781
 9673TIP3    H228956   3.273   0.631   6.646
 9674TIP3   OH228957   3.339   0.495   6.544
 9674TIP3    H128958   3.310   0.504   6.451
 9674TIP3    H228959   3.436   0.503   6.532
 9675TIP3   OH228960   4.162   0.825   6.200
 9675TIP3    H128961   4.139   0.784   6.114
 9675TIP3    H228962   4.131   0.917   6.181
 9676TIP3   OH228963   3.661   0.893   7.752
 9676TIP3    H128964   3.746   0.882   7.706
 9676TIP3    H228965   3.615   0.956   7.691
 9677TIP3   OH228966   4.285   1.065   7.829
 9677TIP3    H128967   4.226   1.131   7.787
 9677TIP3    H228968   4.372   1.105   7.804
 9678TIP3   OH228969   3.151   1.569   6.444
 9678TIP3    H128970   3.246   1.555   6.424
 9678TIP3    H228971   3.123   1.616   6.363
 9679TIP3   OH228972   2.613   0.948   6.635
 9679TIP3    H128973   2.701   0.987   6.656
 9679TIP3    H228974   2.635   0.858   6.604
 9680TIP3   OH228975   2.536   1.560   7.073
 9680TIP3    H128976   2.482   1.491   7.029
 9680TIP3    H228977   2.582   1.504   7.141
 9681TIP3   OH228978   2.660   1.423   7.270
 9681TIP3    H128979   2.672   1.329   7.291
 9681TIP3    H228980   2.735   1.465   7.317
 9682TIP3   OH228981   4.409   1.801   7.060
 9682TIP3    H128982   4.435   1.838   7.146
 9682TIP3    H228983   4.470   1.844   6.999
 9683TIP3   OH228984   4.434   1.825   7.345
 9683TIP3    H128985   4.391   1.738   7.336
 9683TIP3    H228986   4.510   1.800   7.399
 9684TIP3   OH228987   4.299   1.013   6.528
 9684TIP3    H128988   4.363   1.080   6.499
 9684TIP3    H228989   4.344   0.978   6.609
 9685TIP3   OH228990   4.425   0.887   6.734
 9685TIP3    H128991   4.358   0.849   6.796
 9685TIP3    H228992   4.491   0.926   6.795
 9686TIP3   OH228993   4.483   1.276   7.170
 9686TIP3    H128994   4.535   1.209   7.121
 9686TIP3    H228995   4.480   1.349   7.105
 9687TIP3   OH228996   4.309   1.575   7.361
 9687TIP3    H128997   4.235   1.615   7.410
 9687TIP3    H228998   4.262   1.529   7.288
 9688TIP3   OH228999   4.356   0.786   6.383
 9688TIP3    H129000   4.287   0.798   6.313
 9688TIP3    H229001   4.334   0.864   6.439
 9689TIP3   OH229002   4.227   0.447   6.322
 9689TIP3    H129003   4.208   0.532   6.280
 9689TIP3    H229004   4.173   0.388   6.267
 9690TIP3   OH229005   4.236   0.754   6.879
 9690TIP3    H129006   4.240   0.659   6.856
 9690TIP3    H229007   4.225   0.754   6.977
 9691TIP3   OH229008   2.861   0.854   7.611
 9691TIP3    H129009   2.854   0.809   7.525
 9691TIP3    H229010   2.955   0.837   7.634
 9692TIP3   OH229011   4.518   1.162   7.730
 9692TIP3    H129012   4.596   1.102   7.734
 9692TIP3    H229013   4.557   1.245   7.699
 9693TIP3   OH229014   4.711   0.972   7.752
 9693TIP3    H129015   4.640   0.923   7.800
 9693TIP3    H229016   4.785   0.910   7.766
 9694TIP3   OH229017   4.240   0.501   6.753
 9694TIP3    H129018   4.269   0.421   6.802
 9694TIP3    H229019   4.303   0.503   6.678
 9695TIP3   OH229020   4.392   0.627   7.281
 9695TIP3    H129021   4.476   0.649   7.235
 9695TIP3    H229022   4.408   0.672   7.366
 9696TIP3   OH229023   4.457   0.781   7.502
 9696TIP3    H129024   4.381   0.820   7.550
 9696TIP3    H229025   4.494   0.860   7.457
 9697TIP3   OH229026   3.991   1.673   6.716
 9697TIP3    H129027   4.040   1.659   6.632
 9697TIP3    H229028   4.045   1.741   6.759
 9698TIP3   OH229029   3.272   1.483   7.599
 9698TIP3    H129030   3.216   1.554   7.564
 9698TIP3    H229031   3.358   1.509   7.558
 9699TIP3   OH229032   3.698   1.749   7.754
 9699TIP3    H129033   3.728   1.755   7.848
 9699TIP3    H229034   3.766   1.805   7.709
 9700TIP3   OH229035   3.891   1.901   7.641
 9700TIP3    H129036   3.963   1.863   7.589
 9700TIP3    H229037   3.941   1.963   7.699
 9701TIP3   OH229038   2.946   1.780   7.660
 9701TIP3    H129039   2.858   1.810   7.633
 9701TIP3    H229040   2.949   1.812   7.751
 9702TIP3   OH229041   3.183   1.738   7.527
 9702TIP3    H129042   3.096   1.752   7.571
 9702TIP3    H229043   3.164   1.774   7.437
 9703TIP3   OH229044   3.608   1.771   7.326
 9703TIP3    H129045   3.539   1.789   7.260
 9703TIP3    H229046   3.618   1.860   7.368
 9704TIP3   OH229047   3.876   1.709   7.382
 9704TIP3    H129048   3.782   1.726   7.362
 9704TIP3    H229049   3.919   1.780   7.332
 9705TIP3   OH229050   4.084   1.901   7.292
 9705TIP3    H129051   4.068   1.986   7.245
 9705TIP3    H229052   4.109   1.842   7.218
 9706TIP3   OH229053   2.857   1.558   7.411
 9706TIP3    H129054   2.892   1.540   7.501
 9706TIP3    H229055   2.930   1.518   7.358
 9707TIP3   OH229056   3.051   1.431   7.274
 9707TIP3    H129057   3.067   1.347   7.323
 9707TIP3    H229058   3.142   1.467   7.266
 9708TIP3   OH229059   3.318   1.526   7.273
 9708TIP3    H129060   3.345   1.434   7.258
 9708TIP3    H229061   3.371   1.546   7.352
 9709TIP3   OH229062   2.607   1.352   6.850
 9709TIP3    H129063   2.543   1.302   6.798
 9709TIP3    H229064   2.611   1.434   6.800
 9710TIP3   OH229065   3.415   1.515   6.388
 9710TIP3    H129066   3.503   1.538   6.351
 9710TIP3    H229067   3.393   1.440   6.327
 9711TIP3   OH229068   4.135   1.639   6.483
 9711TIP3    H129069   4.129   1.541   6.470
 9711TIP3    H229070   4.092   1.671   6.401
 9712TIP3   OH229071   2.722   1.352   6.448
 9712TIP3    H129072   2.728   1.357   6.545
 9712TIP3    H229073   2.808   1.308   6.427
 9713TIP3   OH229074   4.355   1.781   7.666
 9713TIP3    H129075   4.279   1.755   7.612
 9713TIP3    H229076   4.341   1.878   7.671
 9714TIP3   OH229077   5.628   1.157   6.431
 9714TIP3    H129078   5.597   1.247   6.408
 9714TIP3    H229079   5.555   1.104   6.395
 9715TIP3   OH229080   5.623   1.161   6.819
 9715TIP3    H129081   5.653   1.125   6.904
 9715TIP3    H229082   5.600   1.080   6.770
 9716TIP3   OH229083   4.923   1.050   7.181
 9716TIP3    H129084   4.955   0.979   7.240
 9716TIP3    H229085   5.005   1.097   7.164
 9717TIP3   OH229086   5.874   1.459   6.498
 9717TIP3    H129087   5.856   1.387   6.560
 9717TIP3    H229088   5.902   1.531   6.557
 9718TIP3   OH229089   4.901   1.459   6.905
 9718TIP3    H129090   4.891   1.361   6.905
 9718TIP3    H229091   4.997   1.467   6.896
 9719TIP3   OH229092   4.589   0.669   6.705
 9719TIP3    H129093   4.536   0.751   6.713
 9719TIP3    H229094   4.531   0.617   6.646
 9720TIP3   OH229095   4.657   0.959   6.864
 9720TIP3    H129096   4.700   0.876   6.895
 9720TIP3    H229097   4.722   0.993   6.801
 9721TIP3   OH229098   5.526   1.920   6.517
 9721TIP3    H129099   5.568   1.848   6.464
 9721TIP3    H229100   5.511   1.876   6.601
 9722TIP3   OH229101   5.425   1.380   6.866
 9722TIP3    H129102   5.465   1.301   6.825
 9722TIP3    H229103   5.507   1.427   6.888
 9723TIP3   OH229104   5.838   0.905   6.905
 9723TIP3    H129105   5.858   0.810   6.921
 9723TIP3    H229106   5.796   0.897   6.818
 9724TIP3   OH229107   5.143   0.510   6.853
 9724TIP3    H129108   5.129   0.591   6.801
 9724TIP3    H229109   5.085   0.447   6.809
 9725TIP3   OH229110   5.894   0.729   6.541
 9725TIP3    H129111   5.879   0.646   6.589
 9725TIP3    H229112   5.928   0.695   6.457
 9726TIP3   OH229113   4.784   0.739   6.962
 9726TIP3    H129114   4.875   0.741   6.999
 9726TIP3    H229115   4.800   0.681   6.885
 9727TIP3   OH229116   5.246   0.942   6.769
 9727TIP3    H129117   5.340   0.917   6.786
 9727TIP3    H229118   5.208   0.856   6.742
 9728TIP3   OH229119   6.491   0.902   7.052
 9728TIP3    H129120   6.411   0.949   7.023
 9728TIP3    H229121   6.531   0.963   7.115
 9729TIP3   OH229122   5.522   1.378   6.299
 9729TIP3    H129123   5.476   1.357   6.216
 9729TIP3    H229124   5.473   1.459   6.327
 9730TIP3   OH229125   5.280   1.300   7.087
 9730TIP3    H129126   5.219   1.368   7.123
 9730TIP3    H229127   5.322   1.347   7.012
 9731TIP3   OH229128   5.038   0.708   7.036
 9731TIP3    H129129   5.113   0.745   7.086
 9731TIP3    H229130   5.077   0.624   7.004
 9732TIP3   OH229131   5.110   1.497   7.188
 9732TIP3    H129132   5.083   1.583   7.151
 9732TIP3    H229133   5.031   1.478   7.243
 9733TIP3   OH229134   4.498   1.185   6.425
 9733TIP3    H129135   4.460   1.208   6.338
 9733TIP3    H229136   4.529   1.273   6.457
 9734TIP3   OH229137   5.942   1.703   6.665
 9734TIP3    H129138   5.852   1.692   6.704
 9734TIP3    H229139   5.931   1.789   6.619
 9735TIP3   OH229140   5.640   1.746   6.335
 9735TIP3    H129141   5.690   1.663   6.317
 9735TIP3    H229142   5.701   1.811   6.294
 9736TIP3   OH229143   5.786   1.530   6.247
 9736TIP3    H129144   5.735   1.452   6.219
 9736TIP3    H229145   5.825   1.499   6.331
 9737TIP3   OH229146   6.166   1.612   7.007
 9737TIP3    H129147   6.152   1.533   6.949
 9737TIP3    H229148   6.147   1.685   6.945
 9738TIP3   OH229149   5.459   1.011   6.268
 9738TIP3    H129150   5.377   1.060   6.245
 9738TIP3    H229151   5.502   1.001   6.180
 9739TIP3   OH229152   5.414   0.789   5.996
 9739TIP3    H129153   5.488   0.845   6.027
 9739TIP3    H229154   5.461   0.713   5.962
 9740TIP3   OH229155   6.363   1.257   6.857
 9740TIP3    H129156   6.276   1.304   6.860
 9740TIP3    H229157   6.389   1.276   6.764
 9741TIP3   OH229158   5.806   1.092   6.234
 9741TIP3    H129159   5.751   1.114   6.312
 9741TIP3    H229160   5.889   1.065   6.278
 9742TIP3   OH229161   6.038   1.133   7.148
 9742TIP3    H129162   6.031   1.214   7.202
 9742TIP3    H229163   5.950   1.133   7.106
 9743TIP3   OH229164   5.039   1.086   6.654
 9743TIP3    H129165   4.998   1.027   6.587
 9743TIP3    H229166   5.115   1.033   6.685
 9744TIP3   OH229167   5.168   1.498   6.801
 9744TIP3    H129168   5.147   1.463   6.712
 9744TIP3    H229169   5.257   1.461   6.818
 9745TIP3   OH229170   5.173   1.055   7.015
 9745TIP3    H129171   5.204   1.027   6.926
 9745TIP3    H229172   5.219   1.140   7.028
 9746TIP3   OH229173   5.702   1.696   6.786
 9746TIP3    H129174   5.687   1.774   6.843
 9746TIP3    H229175   5.686   1.621   6.847
 9747TIP3   OH229176   5.313   1.613   7.334
 9747TIP3    H129177   5.251   1.675   7.379
 9747TIP3    H229178   5.249   1.560   7.282
 9748TIP3   OH229179   5.638   0.955   6.061
 9748TIP3    H129180   5.700   1.011   6.112
 9748TIP3    H229181   5.667   0.974   5.969
 9749TIP3   OH229182   5.061   1.176   7.434
 9749TIP3    H129183   5.064   1.262   7.479
 9749TIP3    H229184   4.966   1.153   7.446
 9750TIP3   OH229185   5.392   1.622   6.339
 9750TIP3    H129186   5.472   1.677   6.348
 9750TIP3    H229187   5.330   1.682   6.295
 9751TIP3   OH229188   5.106   1.780   7.421
 9751TIP3    H129189   5.072   1.781   7.329
 9751TIP3    H229190   5.026   1.758   7.473
 9752TIP3   OH229191   4.904   0.929   6.459
 9752TIP3    H129192   4.837   0.975   6.406
 9752TIP3    H229193   4.866   0.840   6.464
 9753TIP3   OH229194   5.961   1.553   5.659
 9753TIP3    H129195   5.968   1.650   5.647
 9753TIP3    H229196   6.054   1.525   5.647
 9754TIP3   OH229197   4.686   1.314   7.370
 9754TIP3    H129198   4.620   1.294   7.300
 9754TIP3    H229199   4.724   1.226   7.389
 9755TIP3   OH229200   4.540   1.503   7.002
 9755TIP3    H129201   4.636   1.500   6.988
 9755TIP3    H229202   4.530   1.585   7.053
 9756TIP3   OH229203   6.404   1.960   7.057
 9756TIP3    H129204   6.403   1.863   7.070
 9756TIP3    H229205   6.320   1.984   7.102
 9757TIP3   OH229206   5.509   1.742   7.191
 9757TIP3    H129207   5.506   1.835   7.222
 9757TIP3    H229208   5.437   1.702   7.244
 9758TIP3   OH229209   5.276   1.872   6.141
 9758TIP3    H129210   5.224   1.851   6.061
 9758TIP3    H229211   5.238   1.958   6.168
 9759TIP3   OH229212   4.710   1.720   6.526
 9759TIP3    H129213   4.754   1.708   6.613
 9759TIP3    H229214   4.656   1.638   6.522
 9760TIP3   OH229215   5.475   1.776   5.779
 9760TIP3    H129216   5.532   1.704   5.744
 9760TIP3    H229217   5.507   1.784   5.871
 9761TIP3   OH229218   5.526   1.822   6.048
 9761TIP3    H129219   5.436   1.833   6.087
 9761TIP3    H229220   5.573   1.780   6.121
 9762TIP3   OH229221   6.293   1.078   7.317
 9762TIP3    H129222   6.213   1.111   7.273
 9762TIP3    H229223   6.268   0.983   7.323
 9763TIP3   OH229224   4.890   1.497   7.352
 9763TIP3    H129225   4.940   1.480   7.434
 9763TIP3    H229226   4.816   1.433   7.360
 9764TIP3   OH229227   6.102   0.885   7.283
 9764TIP3    H129228   6.028   0.865   7.341
 9764TIP3    H229229   6.062   0.942   7.215
 9765TIP3   OH229230   5.725   1.000   5.806
 9765TIP3    H129231   5.689   0.975   5.719
 9765TIP3    H229232   5.807   1.046   5.781
 9766TIP3   OH229233   5.240   0.841   7.174
 9766TIP3    H129234   5.177   0.858   7.247
 9766TIP3    H229235   5.223   0.919   7.117
 9767TIP3   OH229236   5.107   0.718   6.681
 9767TIP3    H129237   5.010   0.703   6.688
 9767TIP3    H229238   5.122   0.691   6.587
 9768TIP3   OH229239   5.594   0.809   6.398
 9768TIP3    H129240   5.544   0.881   6.353
 9768TIP3    H229241   5.658   0.783   6.329
 9769TIP3   OH229242   5.780   1.117   7.477
 9769TIP3    H129243   5.754   1.036   7.526
 9769TIP3    H229244   5.876   1.121   7.499
 9770TIP3   OH229245   5.712   0.884   6.659
 9770TIP3    H129246   5.660   0.898   6.578
 9770TIP3    H229247   5.774   0.816   6.624
 9771TIP3   OH229248   5.042   0.870   7.366
 9771TIP3    H129249   5.057   0.937   7.435
 9771TIP3    H229250   5.026   0.789   7.417
 9772TIP3   OH229251   4.674   0.478   6.501
 9772TIP3    H129252   4.686   0.479   6.404
 9772TIP3    H229253   4.579   0.497   6.505
 9773TIP3   OH229254   5.756   1.096   7.070
 9773TIP3    H129255   5.794   1.029   7.008
 9773TIP3    H229256   5.734   1.038   7.146
 9774TIP3   OH229257   4.851   0.603   6.720
 9774TIP3    H129258   4.757   0.632   6.708
 9774TIP3    H229259   4.848   0.522   6.667
 9775TIP3   OH229260   5.148   0.613   6.433
 9775TIP3    H129261   5.239   0.604   6.400
 9775TIP3    H229262   5.094   0.615   6.351
 9776TIP3   OH229263   4.972   0.619   6.209
 9776TIP3    H129264   4.902   0.593   6.147
 9776TIP3    H229265   5.035   0.659   6.146
 9777TIP3   OH229266   6.099   2.307   7.156
 9777TIP3    H129267   6.095   2.331   7.061
 9777TIP3    H229268   6.178   2.356   7.185
 9778TIP3   OH229269   5.051   1.420   7.575
 9778TIP3    H129270   5.131   1.448   7.623
 9778TIP3    H229271   4.986   1.417   7.649
 9779TIP3   OH229272   5.497   0.860   6.836
 9779TIP3    H129273   5.582   0.845   6.790
 9779TIP3    H229274   5.516   0.825   6.926
 9780TIP3   OH229275   5.507   0.787   7.101
 9780TIP3    H129276   5.417   0.799   7.137
 9780TIP3    H229277   5.561   0.838   7.164
 9781TIP3   OH229278   5.227   1.159   6.213
 9781TIP3    H129279   5.155   1.094   6.201
 9781TIP3    H229280   5.208   1.192   6.304
 9782TIP3   OH229281   6.125   1.395   6.842
 9782TIP3    H129282   6.147   1.444   6.760
 9782TIP3    H229283   6.041   1.350   6.817
 9783TIP3   OH229284   5.612   0.509   6.093
 9783TIP3    H129285   5.595   0.530   5.999
 9783TIP3    H229286   5.666   0.588   6.121
 9784TIP3   OH229287   5.632   1.482   7.210
 9784TIP3    H129288   5.651   1.456   7.301
 9784TIP3    H229289   5.588   1.568   7.220
 9785TIP3   OH229290   5.761   0.733   6.189
 9785TIP3    H129291   5.859   0.743   6.198
 9785TIP3    H229292   5.739   0.801   6.123
 9786TIP3   OH229293   4.923   1.181   6.888
 9786TIP3    H129294   4.961   1.154   6.802
 9786TIP3    H229295   4.968   1.120   6.949
 9787TIP3   OH229296   5.374   1.311   6.040
 9787TIP3    H129297   5.325   1.396   6.045
 9787TIP3    H229298   5.319   1.254   6.097
 9788TIP3   OH229299   4.802   1.098   7.504
 9788TIP3    H129300   4.816   1.086   7.600
 9788TIP3    H229301   4.727   1.039   7.487
 9789TIP3   OH229302   5.527   1.222   7.529
 9789TIP3    H129303   5.465   1.166   7.478
 9789TIP3    H229304   5.614   1.191   7.494
 9790TIP3   OH229305   5.787   1.745   7.105
 9790TIP3    H129306   5.691   1.736   7.120
 9790TIP3    H229307   5.813   1.793   7.187
 9791TIP3   OH229308   6.204   0.807   6.001
 9791TIP3    H129309   6.143   0.755   5.944
 9791TIP3    H229310   6.184   0.898   5.967
 9792TIP3   OH229311   6.416   1.671   7.094
 9792TIP3    H129312   6.318   1.663   7.086
 9792TIP3    H229313   6.443   1.639   7.005
 9793TIP3   OH229314   5.904   1.628   5.929
 9793TIP3    H129315   5.870   1.563   5.991
 9793TIP3    H229316   5.909   1.578   5.845
 9794TIP3   OH229317   5.893   1.259   6.760
 9794TIP3    H129318   5.800   1.232   6.773
 9794TIP3    H229319   5.929   1.178   6.717
 9795TIP3   OH229320   5.023   1.487   6.519
 9795TIP3    H129321   5.020   1.568   6.463
 9795TIP3    H229322   4.929   1.466   6.526
 9796TIP3   OH229323   4.583   0.788   6.222
 9796TIP3    H129324   4.630   0.872   6.241
 9796TIP3    H229325   4.507   0.797   6.283
 9797TIP3   OH229326   5.155   1.250   6.457
 9797TIP3    H129327   5.122   1.340   6.477
 9797TIP3    H229328   5.120   1.200   6.534
 9798TIP3   OH229329   5.293   1.827   6.984
 9798TIP3    H129330   5.334   1.900   6.933
 9798TIP3    H229331   5.370   1.791   7.030
 9799TIP3   OH229332   4.942   1.723   6.370
 9799TIP3    H129333   4.855   1.732   6.414
 9799TIP3    H229334   4.973   1.816   6.371
 9800TIP3   OH229335   5.679   1.465   6.942
 9800TIP3    H129336   5.668   1.463   7.040
 9800TIP3    H229337   5.751   1.402   6.929
 9801TIP3   OH229338   5.656   1.359   5.825
 9801TIP3    H129339   5.709   1.333   5.904
 9801TIP3    H229340   5.568   1.328   5.852
 9802TIP3   OH229341   5.928   1.995   6.995
 9802TIP3    H129342   5.850   1.936   6.992
 9802TIP3    H229343   5.909   2.057   6.922
 9803TIP3   OH229344   5.993   1.829   5.644
 9803TIP3    H129345   6.028   1.904   5.593
 9803TIP3    H229346   5.912   1.872   5.682
 9804TIP3   OH229347   5.817   1.287   6.036
 9804TIP3    H129348   5.804   1.224   6.110
 9804TIP3    H229349   5.915   1.285   6.029
 9805TIP3   OH229350   4.730   1.690   7.143
 9805TIP3    H129351   4.784   1.617   7.176
 9805TIP3    H229352   4.759   1.762   7.200
 9806TIP3   OH229353   5.020   1.336   5.825
 9806TIP3    H129354   5.032   1.243   5.800
 9806TIP3    H229355   5.000   1.328   5.921
 9807TIP3   OH229356   4.969   1.340   6.094
 9807TIP3    H129357   5.038   1.314   6.157
 9807TIP3    H229358   4.967   1.438   6.105
 9808TIP3   OH229359   4.697   1.032   6.304
 9808TIP3    H129360   4.631   1.079   6.360
 9808TIP3    H229361   4.710   1.100   6.234
 9809TIP3   OH229362   5.233   1.542   6.047
 9809TIP3    H129363   5.145   1.562   6.084
 9809TIP3    H229364   5.244   1.616   5.986
 9810TIP3   OH229365   5.444   0.591   6.460
 9810TIP3    H129366   5.497   0.666   6.426
 9810TIP3    H229367   5.441   0.613   6.554
 9811TIP3   OH229368   5.698   0.921   7.273
 9811TIP3    H129369   5.696   0.977   7.352
 9811TIP3    H229370   5.743   0.842   7.306
 9812TIP3   OH229371   4.978   1.612   6.118
 9812TIP3    H129372   4.947   1.681   6.055
 9812TIP3    H229373   4.960   1.656   6.204
 9813TIP3   OH229374   5.980   1.023   6.640
 9813TIP3    H129375   5.907   0.960   6.650
 9813TIP3    H229376   6.053   0.973   6.685
 9814TIP3   OH229377   4.690   1.237   6.109
 9814TIP3    H129378   4.746   1.317   6.109
 9814TIP3    H229379   4.739   1.184   6.042
 9815TIP3   OH229380   4.636   0.517   6.231
 9815TIP3    H129381   4.632   0.615   6.222
 9815TIP3    H229382   4.545   0.492   6.211
 9816TIP3   OH229383   5.948   1.974   6.586
 9816TIP3    H129384   5.905   2.021   6.511
 9816TIP3    H229385   6.043   1.991   6.565
 9817TIP3   OH229386   4.561   1.457   6.492
 9817TIP3    H129387   4.496   1.487   6.557
 9817TIP3    H229388   4.527   1.501   6.410
 9818TIP3   OH229389   4.722   2.004   7.566
 9818TIP3    H129390   4.809   2.003   7.613
 9818TIP3    H229391   4.702   1.909   7.564
 9819TIP3   OH229392   5.200   1.959   7.612
 9819TIP3    H129393   5.294   1.940   7.616
 9819TIP3    H229394   5.172   1.899   7.539
 9820TIP3   OH229395   5.182   1.537   5.737
 9820TIP3    H129396   5.122   1.470   5.776
 9820TIP3    H229397   5.257   1.480   5.714
 9821TIP3   OH229398   5.838   1.872   7.345
 9821TIP3    H129399   5.832   1.801   7.413
 9821TIP3    H229400   5.916   1.923   7.375
 9822TIP3   OH229401   5.619   1.577   5.653
 9822TIP3    H129402   5.654   1.508   5.714
 9822TIP3    H229403   5.680   1.571   5.577
 9823TIP3   OH229404   4.849   1.404   7.764
 9823TIP3    H129405   4.866   1.308   7.767
 9823TIP3    H229406   4.761   1.407   7.721
 9824TIP3   OH229407   4.830   1.053   5.963
 9824TIP3    H129408   4.887   1.024   6.036
 9824TIP3    H229409   4.897   1.062   5.891
 9825TIP3   OH229410   5.458   1.495   7.540
 9825TIP3    H129411   5.415   1.512   7.454
 9825TIP3    H229412   5.486   1.401   7.532
 9826TIP3   OH229413   5.347   1.266   5.770
 9826TIP3    H129414   5.344   1.277   5.867
 9826TIP3    H229415   5.347   1.168   5.764
 9827TIP3   OH229416   5.952   1.505   7.151
 9827TIP3    H129417   6.025   1.549   7.104
 9827TIP3    H229418   5.878   1.566   7.132
 9828TIP3   OH229419   4.971   1.148   7.747
 9828TIP3    H129420   5.048   1.094   7.724
 9828TIP3    H229421   4.996   1.176   7.838
 9829TIP3   OH229422   5.033   0.963   6.180
 9829TIP3    H129423   5.010   0.922   6.266
 9829TIP3    H229424   5.072   0.887   6.132
 9830TIP3   OH229425   5.308   1.056   7.411
 9830TIP3    H129426   5.224   1.107   7.406
 9830TIP3    H229427   5.354   1.084   7.327
 9831TIP3   OH229428   5.136   0.754   6.030
 9831TIP3    H129429   5.108   0.762   5.937
 9831TIP3    H229430   5.234   0.760   6.021
 9832TIP3   OH229431   5.828   1.431   7.543
 9832TIP3    H129432   5.896   1.392   7.485
 9832TIP3    H229433   5.810   1.357   7.604
 9833TIP3   OH229434   5.962   1.085   5.683
 9833TIP3    H129435   5.936   1.041   5.600
 9833TIP3    H229436   5.928   1.176   5.664
 9834TIP3   OH229437   5.389   0.830   7.529
 9834TIP3    H129438   5.345   0.768   7.467
 9834TIP3    H229439   5.364   0.916   7.486
 9835TIP3   OH229440   5.468   1.144   7.213
 9835TIP3    H129441   5.551   1.149   7.162
 9835TIP3    H229442   5.410   1.206   7.164
 9836TIP3   OH229443   6.035   1.117   7.583
 9836TIP3    H129444   6.070   1.045   7.641
 9836TIP3    H229445   6.117   1.150   7.542
 9837TIP3   OH229446   6.080   1.358   7.336
 9837TIP3    H129447   6.022   1.412   7.277
 9837TIP3    H229448   6.167   1.376   7.295
 9838TIP3   OH229449   5.279   0.955   7.760
 9838TIP3    H129450   5.223   0.882   7.790
 9838TIP3    H229451   5.332   0.912   7.689
 9839TIP3   OH229452   5.667   0.893   7.569
 9839TIP3    H129453   5.694   0.857   7.656
 9839TIP3    H229454   5.572   0.875   7.570
 9840TIP3   OH229455   4.949   1.817   5.934
 9840TIP3    H129456   5.041   1.814   5.905
 9840TIP3    H229457   4.908   1.860   5.857
 9841TIP3   OH229458   4.424   1.194   6.150
 9841TIP3    H129459   4.517   1.219   6.130
 9841TIP3    H229460   4.417   1.109   6.101
 9842TIP3   OH229461   4.339   1.811   6.562
 9842TIP3    H129462   4.275   1.750   6.519
 9842TIP3    H229463   4.384   1.750   6.623
 9843TIP3   OH229464   4.476   1.656   6.745
 9843TIP3    H129465   4.461   1.586   6.811
 9843TIP3    H229466   4.527   1.719   6.798
 9844TIP3   OH229467   6.205   2.058   6.546
 9844TIP3    H129468   6.229   2.090   6.635
 9844TIP3    H229469   6.269   2.104   6.490
 9845TIP3   OH229470   6.232   2.080   6.828
 9845TIP3    H129471   6.185   1.995   6.824
 9845TIP3    H229472   6.305   2.055   6.887
 9846TIP3   OH229473   6.280   1.760   7.401
 9846TIP3    H129474   6.204   1.768   7.463
 9846TIP3    H229475   6.320   1.849   7.406
 9847TIP3   OH229476   6.097   1.268   6.017
 9847TIP3    H129477   6.164   1.335   5.992
 9847TIP3    H229478   6.138   1.231   6.099
 9848TIP3   OH229479   6.218   1.142   6.225
 9848TIP3    H129480   6.151   1.099   6.283
 9848TIP3    H229481   6.280   1.182   6.290
 9849TIP3   OH229482   6.280   1.535   6.657
 9849TIP3    H129483   6.332   1.465   6.611
 9849TIP3    H229484   6.271   1.603   6.588
 9850TIP3   OH229485   6.106   1.832   6.848
 9850TIP3    H129486   6.034   1.872   6.901
 9850TIP3    H229487   6.056   1.785   6.778
 9851TIP3   OH229488   6.154   1.044   5.869
 9851TIP3    H129489   6.084   1.055   5.800
 9851TIP3    H229490   6.130   1.120   5.927
 9852TIP3   OH229491   6.027   0.700   5.815
 9852TIP3    H129492   6.005   0.779   5.764
 9852TIP3    H229493   5.943   0.653   5.812
 9853TIP3   OH229494   6.033   1.005   6.368
 9853TIP3    H129495   6.032   0.908   6.351
 9853TIP3    H229496   6.018   1.008   6.465
 9854TIP3   OH229497   4.659   1.067   7.118
 9854TIP3    H129498   4.656   1.038   7.025
 9854TIP3    H229499   4.757   1.070   7.133
 9855TIP3   OH229500   6.321   1.419   7.222
 9855TIP3    H129501   6.393   1.352   7.215
 9855TIP3    H229502   6.348   1.485   7.156
 9856TIP3   OH229503   6.507   1.226   7.244
 9856TIP3    H129504   6.432   1.169   7.273
 9856TIP3    H229505   6.581   1.163   7.262
 9857TIP3   OH229506   6.037   0.752   6.236
 9857TIP3    H129507   6.062   0.671   6.288
 9857TIP3    H229508   6.102   0.750   6.164
 9858TIP3   OH229509   6.193   0.901   6.759
 9858TIP3    H129510   6.282   0.922   6.724
 9858TIP3    H229511   6.205   0.925   6.853
 9859TIP3   OH229512   6.260   1.037   6.995
 9859TIP3    H129513   6.180   1.070   7.041
 9859TIP3    H229514   6.291   1.117   6.948
 9860TIP3   OH229515   4.875   0.754   7.773
 9860TIP3    H129516   4.971   0.756   7.782
 9860TIP3    H229517   4.852   0.670   7.816
 9861TIP3   OH229518   4.636   0.717   7.195
 9861TIP3    H129519   4.684   0.718   7.109
 9861TIP3    H229520   4.662   0.803   7.231
 9862TIP3   OH229521   5.788   1.929   6.202
 9862TIP3    H129522   5.840   1.917   6.119
 9862TIP3    H229523   5.840   1.996   6.249
 9863TIP3   OH229524   4.886   1.734   7.587
 9863TIP3    H129525   4.793   1.709   7.569
 9863TIP3    H229526   4.894   1.713   7.681
 9864TIP3   OH229527   5.067   1.769   7.135
 9864TIP3    H129528   5.019   1.844   7.096
 9864TIP3    H229529   5.152   1.781   7.089
 9865TIP3   OH229530   5.506   2.009   7.271
 9865TIP3    H129531   5.548   2.008   7.359
 9865TIP3    H229532   5.571   2.060   7.219
 9866TIP3   OH229533   5.685   2.163   7.132
 9866TIP3    H129534   5.754   2.111   7.089
 9866TIP3    H229535   5.739   2.220   7.191
 9867TIP3   OH229536   4.741   2.022   7.158
 9867TIP3    H129537   4.651   2.053   7.134
 9867TIP3    H229538   4.752   2.066   7.244
 9868TIP3   OH229539   4.978   2.002   7.017
 9868TIP3    H129540   4.890   2.014   7.061
 9868TIP3    H229541   4.958   2.033   6.927
 9869TIP3   OH229542   5.402   2.027   6.815
 9869TIP3    H129543   5.332   2.044   6.750
 9869TIP3    H229544   5.413   2.115   6.855
 9870TIP3   OH229545   5.672   1.969   6.868
 9870TIP3    H129546   5.577   1.983   6.848
 9870TIP3    H229547   5.714   2.042   6.820
 9871TIP3   OH229548   5.881   2.160   6.779
 9871TIP3    H129549   5.864   2.243   6.730
 9871TIP3    H229550   5.905   2.098   6.706
 9872TIP3   OH229551   4.651   1.814   6.902
 9872TIP3    H129552   4.679   1.786   6.992
 9872TIP3    H229553   4.724   1.773   6.850
 9873TIP3   OH229554   4.847   1.688   6.763
 9873TIP3    H129555   4.863   1.603   6.811
 9873TIP3    H229556   4.938   1.723   6.757
 9874TIP3   OH229557   5.115   1.780   6.765
 9874TIP3    H129558   5.144   1.688   6.753
 9874TIP3    H229559   5.163   1.801   6.848
 9875TIP3   OH229560   4.436   1.594   6.298
 9875TIP3    H129561   4.353   1.558   6.261
 9875TIP3    H229562   4.431   1.684   6.260
 9876TIP3   OH229563   5.215   1.772   5.875
 9876TIP3    H129564   5.301   1.795   5.836
 9876TIP3    H229565   5.190   1.698   5.814
 9877TIP3   OH229566   5.936   1.896   5.969
 9877TIP3    H129567   5.928   1.798   5.958
 9877TIP3    H229568   5.886   1.926   5.890
 9878TIP3   OH229569   4.502   1.574   5.942
 9878TIP3    H129570   4.510   1.652   5.998
 9878TIP3    H229571   4.595   1.561   5.913
 9879TIP3   OH229572   6.156   2.037   7.156
 9879TIP3    H129573   6.077   2.006   7.106
 9879TIP3    H229574   6.136   2.132   7.162
 9880TIP3   OH229575   7.424   1.409   5.920
 9880TIP3    H129576   7.395   1.501   5.899
 9880TIP3    H229577   7.346   1.360   5.889
 9881TIP3   OH229578   7.431   1.429   6.291
 9881TIP3    H129579   7.445   1.396   6.383
 9881TIP3    H229580   7.373   1.359   6.256
 9882TIP3   OH229581   6.720   1.302   6.662
 9882TIP3    H129582   6.748   1.233   6.724
 9882TIP3    H229583   6.795   1.363   6.669
 9883TIP3   OH229584   7.668   1.711   5.983
 9883TIP3    H129585   7.659   1.643   6.051
 9883TIP3    H229586   7.694   1.789   6.037
 9884TIP3   OH229587   6.693   1.718   6.391
 9884TIP3    H129588   6.684   1.620   6.393
 9884TIP3    H229589   6.790   1.726   6.387
 9885TIP3   OH229590   6.394   0.935   6.186
 9885TIP3    H129591   6.335   1.011   6.201
 9885TIP3    H229592   6.333   0.876   6.138
 9886TIP3   OH229593   6.455   1.217   6.351
 9886TIP3    H129594   6.496   1.133   6.384
 9886TIP3    H229595   6.513   1.239   6.277
 9887TIP3   OH229596   7.311   2.180   5.996
 9887TIP3    H129597   7.356   2.105   5.953
 9887TIP3    H229598   7.302   2.153   6.088
 9888TIP3   OH229599   7.634   1.139   6.402
 9888TIP3    H129600   7.663   1.049   6.422
 9888TIP3    H229601   7.602   1.131   6.310
 9889TIP3   OH229602   6.973   0.755   6.302
 9889TIP3    H129603   6.943   0.847   6.286
 9889TIP3    H229604   6.886   0.709   6.310
 9890TIP3   OH229605   7.633   0.915   6.025
 9890TIP3    H129606   7.689   0.865   6.088
 9890TIP3    H229607   7.689   0.910   5.946
 9891TIP3   OH229608   6.588   1.001   6.444
 9891TIP3    H129609   6.681   1.002   6.476
 9891TIP3    H229610   6.597   0.935   6.373
 9892TIP3   OH229611   7.040   1.201   6.252
 9892TIP3    H129612   7.134   1.174   6.268
 9892TIP3    H229613   6.999   1.116   6.227
 9893TIP3   OH229614   7.310   1.630   5.791
 9893TIP3    H129615   7.272   1.618   5.703
 9893TIP3    H229616   7.267   1.714   5.818
 9894TIP3   OH229617   7.072   1.558   6.578
 9894TIP3    H129618   7.003   1.598   6.634
 9894TIP3    H229619   7.090   1.633   6.520
 9895TIP3   OH229620   6.844   0.964   6.512
 9895TIP3    H129621   6.916   1.013   6.556
 9895TIP3    H229622   6.858   0.875   6.552
 9896TIP3   OH229623   6.902   1.751   6.676
 9896TIP3    H129624   6.878   1.839   6.640
 9896TIP3    H229625   6.823   1.735   6.732
 9897TIP3   OH229626   6.298   1.443   5.911
 9897TIP3    H129627   6.252   1.470   5.829
 9897TIP3    H229628   6.328   1.529   5.946
 9898TIP3   OH229629   7.712   1.938   6.140
 9898TIP3    H129630   7.625   1.980   6.134
 9898TIP3    H229631   7.764   2.012   6.101
 9899TIP3   OH229632   7.437   2.000   5.828
 9899TIP3    H129633   7.487   1.919   5.803
 9899TIP3    H229634   7.496   2.067   5.787
 9900TIP3   OH229635   7.578   1.786   5.734
 9900TIP3    H129636   7.545   1.704   5.695
 9900TIP3    H229637   7.618   1.753   5.818
 9901TIP3   OH229638   7.912   1.861   6.489
 9901TIP3    H129639   7.935   1.800   6.416
 9901TIP3    H229640   7.923   1.949   6.448
 9902TIP3   OH229641   7.253   1.265   5.750
 9902TIP3    H129642   7.172   1.318   5.732
 9902TIP3    H229643   7.300   1.269   5.665
 9903TIP3   OH229644   7.226   1.038   5.455
 9903TIP3    H129645   7.287   1.100   5.501
 9903TIP3    H229646   7.271   0.953   5.475
 9904TIP3   OH229647   8.186   1.501   6.337
 9904TIP3    H129648   8.094   1.531   6.345
 9904TIP3    H229649   8.206   1.527   6.245
 9905TIP3   OH229650   7.600   1.345   5.721
 9905TIP3    H129651   7.546   1.368   5.800
 9905TIP3    H229652   7.685   1.323   5.764
 9906TIP3   OH229653   7.868   1.367   6.523
 9906TIP3    H129654   7.910   1.439   6.573
 9906TIP3    H229655   7.809   1.415   6.463
 9907TIP3   OH229656   6.834   1.342   6.137
 9907TIP3    H129657   6.795   1.281   6.071
 9907TIP3    H229658   6.910   1.288   6.171
 9908TIP3   OH229659   6.955   1.758   6.277
 9908TIP3    H129660   6.912   1.725   6.195
 9908TIP3    H229661   7.046   1.728   6.264
 9909TIP3   OH229662   6.983   1.304   6.504
 9909TIP3    H129663   7.003   1.278   6.411
 9909TIP3    H229664   7.017   1.395   6.509
 9910TIP3   OH229665   7.506   1.922   6.336
 9910TIP3    H129666   7.461   2.010   6.325
 9910TIP3    H229667   7.600   1.951   6.316
 9911TIP3   OH229668   7.108   1.869   6.815
 9911TIP3    H129669   7.051   1.932   6.863
 9911TIP3    H229670   7.040   1.816   6.769
 9912TIP3   OH229671   7.439   1.206   5.547
 9912TIP3    H129672   7.499   1.265   5.599
 9912TIP3    H229673   7.468   1.226   5.455
 9913TIP3   OH229674   6.853   1.440   6.911
 9913TIP3    H129675   6.858   1.521   6.965
 9913TIP3    H229676   6.762   1.411   6.933
 9914TIP3   OH229677   7.189   1.881   5.829
 9914TIP3    H129678   7.271   1.934   5.833
 9914TIP3    H229679   7.127   1.942   5.787
 9915TIP3   OH229680   6.905   2.035   6.907
 9915TIP3    H129681   6.869   2.037   6.817
 9915TIP3    H229682   6.824   2.014   6.960
 9916TIP3   OH229683   6.703   1.185   5.937
 9916TIP3    H129684   6.631   1.229   5.888
 9916TIP3    H229685   6.663   1.101   5.961
 9917TIP3   OH229686   7.752   1.811   5.150
 9917TIP3    H129687   7.762   1.907   5.133
 9917TIP3    H229688   7.845   1.780   5.136
 9918TIP3   OH229689   6.482   1.569   6.852
 9918TIP3    H129690   6.412   1.550   6.786
 9918TIP3    H229691   6.517   1.480   6.872
 9919TIP3   OH229692   6.335   1.765   6.479
 9919TIP3    H129693   6.432   1.760   6.478
 9919TIP3    H229694   6.320   1.841   6.537
 9920TIP3   OH229695   8.178   2.223   6.527
 9920TIP3    H129696   8.199   2.132   6.553
 9920TIP3    H229697   8.101   2.240   6.586
 9921TIP3   OH229698   7.284   2.010   6.656
 9921TIP3    H129699   7.286   2.100   6.697
 9921TIP3    H229700   7.228   1.961   6.720
 9922TIP3   OH229701   7.070   2.125   5.630
 9922TIP3    H129702   7.023   2.109   5.546
 9922TIP3    H229703   7.037   2.213   5.656
 9923TIP3   OH229704   6.506   1.975   6.012
 9923TIP3    H129705   6.550   1.967   6.099
 9923TIP3    H229706   6.452   1.894   6.010
 9924TIP3   OH229707   7.268   2.030   5.266
 9924TIP3    H129708   7.326   1.959   5.230
 9924TIP3    H229709   7.304   2.040   5.357
 9925TIP3   OH229710   7.321   2.079   5.534
 9925TIP3    H129711   7.233   2.088   5.578
 9925TIP3    H229712   7.376   2.047   5.607
 9926TIP3   OH229713   6.686   1.752   6.838
 9926TIP3    H129714   6.735   1.736   6.922
 9926TIP3    H229715   6.612   1.688   6.846
 9927TIP3   OH229716   7.512   1.245   5.291
 9927TIP3    H129717   7.485   1.219   5.201
 9927TIP3    H229718   7.597   1.290   5.271
 9928TIP3   OH229719   7.037   1.098   6.669
 9928TIP3    H129720   6.968   1.111   6.738
 9928TIP3    H229721   7.020   1.174   6.610
 9929TIP3   OH229722   6.896   0.985   6.164
 9929TIP3    H129723   6.805   0.953   6.179
 9929TIP3    H229724   6.914   0.949   6.074
 9930TIP3   OH229725   7.386   1.068   5.889
 9930TIP3    H129726   7.338   1.139   5.841
 9930TIP3    H229727   7.455   1.043   5.824
 9931TIP3   OH229728   7.532   1.133   6.147
 9931TIP3    H129729   7.473   1.174   6.081
 9931TIP3    H229730   7.556   1.051   6.097
 9932TIP3   OH229731   6.835   1.126   6.856
 9932TIP3    H129732   6.837   1.185   6.932
 9932TIP3    H229733   6.809   1.041   6.896
 9933TIP3   OH229734   6.472   0.735   5.986
 9933TIP3    H129735   6.483   0.722   5.890
 9933TIP3    H229736   6.377   0.757   5.990
 9934TIP3   OH229737   7.506   1.339   6.534
 9934TIP3    H129738   7.550   1.262   6.491
 9934TIP3    H229739   7.565   1.348   6.612
 9935TIP3   OH229740   6.651   0.853   6.207
 9935TIP3    H129741   6.559   0.888   6.194
 9935TIP3    H229742   6.644   0.772   6.155
 9936TIP3   OH229743   6.943   0.877   5.918
 9936TIP3    H129744   7.033   0.860   5.885
 9936TIP3    H229745   6.887   0.865   5.839
 9937TIP3   OH229746   6.781   0.851   5.691
 9937TIP3    H129747   6.702   0.841   5.634
 9937TIP3    H229748   6.837   0.902   5.629
 9938TIP3   OH229749   7.890   2.562   6.637
 9938TIP3    H129750   7.888   2.589   6.544
 9938TIP3    H229751   7.942   2.632   6.680
 9939TIP3   OH229752   6.847   1.678   7.061
 9939TIP3    H129753   6.926   1.708   7.109
 9939TIP3    H229754   6.783   1.673   7.134
 9940TIP3   OH229755   7.295   1.132   6.317
 9940TIP3    H129756   7.382   1.106   6.281
 9940TIP3    H229757   7.304   1.105   6.412
 9941TIP3   OH229758   7.312   1.065   6.582
 9941TIP3    H129759   7.220   1.047   6.611
 9941TIP3    H229760   7.354   1.092   6.666
 9942TIP3   OH229761   7.024   1.415   5.701
 9942TIP3    H129762   6.951   1.350   5.691
 9942TIP3    H229763   7.005   1.449   5.792
 9943TIP3   OH229764   7.937   1.635   6.327
 9943TIP3    H129765   7.963   1.687   6.248
 9943TIP3    H229766   7.850   1.598   6.299
 9944TIP3   OH229767   7.438   0.816   5.532
 9944TIP3    H129768   7.392   0.755   5.595
 9944TIP3    H229769   7.489   0.872   5.595
 9945TIP3   OH229770   7.564   0.996   5.687
 9945TIP3    H129771   7.662   1.002   5.696
 9945TIP3    H229772   7.544   1.072   5.631
 9946TIP3   OH229773   6.727   1.444   6.378
 9946TIP3    H129774   6.761   1.408   6.294
 9946TIP3    H229775   6.749   1.374   6.441
 9947TIP3   OH229776   7.168   1.563   5.522
 9947TIP3    H129777   7.121   1.650   5.527
 9947TIP3    H229778   7.114   1.510   5.585
 9948TIP3   OH229779   6.601   1.352   6.987
 9948TIP3    H129780   6.620   1.339   7.082
 9948TIP3    H229781   6.526   1.292   6.972
 9949TIP3   OH229782   7.313   1.485   7.016
 9949TIP3    H129783   7.241   1.438   6.969
 9949TIP3    H229784   7.383   1.418   7.010
 9950TIP3   OH229785   7.541   1.939   6.621
 9950TIP3    H129786   7.455   1.980   6.650
 9950TIP3    H229787   7.599   2.018   6.651
 9951TIP3   OH229788   7.990   1.062   5.491
 9951TIP3    H129789   7.929   1.015   5.430
 9951TIP3    H229790   7.981   1.153   5.454
 9952TIP3   OH229791   7.693   1.886   5.414
 9952TIP3    H129792   7.668   1.815   5.475
 9952TIP3    H229793   7.706   1.840   5.329
 9953TIP3   OH229794   7.696   1.512   6.255
 9953TIP3    H129795   7.600   1.492   6.264
 9953TIP3    H229796   7.724   1.434   6.202
 9954TIP3   OH229797   6.820   1.745   6.011
 9954TIP3    H129798   6.817   1.824   5.953
 9954TIP3    H229799   6.726   1.725   6.019
 9955TIP3   OH229800   6.379   1.045   5.711
 9955TIP3    H129801   6.425   1.130   5.732
 9955TIP3    H229802   6.302   1.051   5.772
 9956TIP3   OH229803   6.952   1.508   5.944
 9956TIP3    H129804   6.917   1.597   5.966
 9956TIP3    H229805   6.916   1.455   6.018
 9957TIP3   OH229806   7.087   2.079   6.465
 9957TIP3    H129807   7.127   2.152   6.413
 9957TIP3    H229808   7.161   2.059   6.527
 9958TIP3   OH229809   6.738   1.979   5.856
 9958TIP3    H129810   6.651   1.988   5.901
 9958TIP3    H229811   6.769   2.073   5.859
 9959TIP3   OH229812   7.452   1.612   5.315
 9959TIP3    H129813   7.506   1.587   5.394
 9959TIP3    H229814   7.363   1.588   5.346
 9960TIP3   OH229815   7.788   2.087   5.132
 9960TIP3    H129816   7.818   2.161   5.076
 9960TIP3    H229817   7.708   2.129   5.170
 9961TIP3   OH229818   7.612   1.544   5.529
 9961TIP3    H129819   7.604   1.478   5.600
 9961TIP3    H229820   7.709   1.543   5.515
 9962TIP3   OH229821   6.528   1.946   6.628
 9962TIP3    H129822   6.579   1.873   6.667
 9962TIP3    H229823   6.549   2.019   6.688
 9963TIP3   OH229824   6.818   1.591   5.312
 9963TIP3    H129825   6.827   1.497   5.288
 9963TIP3    H229826   6.796   1.584   5.408
 9964TIP3   OH229827   6.761   1.598   5.583
 9964TIP3    H129828   6.831   1.571   5.644
 9964TIP3    H229829   6.763   1.696   5.592
 9965TIP3   OH229830   6.493   1.290   5.790
 9965TIP3    H129831   6.427   1.335   5.847
 9965TIP3    H229832   6.506   1.359   5.722
 9966TIP3   OH229833   7.029   1.795   5.534
 9966TIP3    H129834   6.941   1.819   5.570
 9966TIP3    H229835   7.045   1.872   5.477
 9967TIP3   OH229836   7.232   0.843   5.905
 9967TIP3    H129837   7.284   0.927   5.908
 9967TIP3    H229838   7.228   0.819   5.999
 9968TIP3   OH229839   7.487   1.146   6.803
 9968TIP3    H129840   7.540   1.228   6.787
 9968TIP3    H229841   7.553   1.080   6.774
 9969TIP3   OH229842   6.773   1.870   5.604
 9969TIP3    H129843   6.743   1.940   5.542
 9969TIP3    H229844   6.757   1.913   5.691
 9970TIP3   OH229845   7.773   1.279   6.123
 9970TIP3    H129846   7.694   1.225   6.144
 9970TIP3    H229847   7.844   1.234   6.174
 9971TIP3   OH229848   6.489   1.495   5.594
 9971TIP3    H129849   6.557   1.565   5.602
 9971TIP3    H229850   6.533   1.439   5.527
 9972TIP3   OH229851   6.436   0.775   5.698
 9972TIP3    H129852   6.423   0.871   5.706
 9972TIP3    H229853   6.347   0.740   5.709
 9973TIP3   OH229854   7.756   2.184   6.030
 9973TIP3    H129855   7.705   2.255   5.986
 9973TIP3    H229856   7.843   2.227   6.038
 9974TIP3   OH229857   6.356   1.714   5.978
 9974TIP3    H129858   6.294   1.743   6.047
 9974TIP3    H229859   6.319   1.758   5.898
 9975TIP3   OH229860   6.519   2.261   7.052
 9975TIP3    H129861   6.605   2.261   7.100
 9975TIP3    H229862   6.498   2.166   7.051
 9976TIP3   OH229863   6.992   2.220   7.097
 9976TIP3    H129864   7.087   2.207   7.104
 9976TIP3    H229865   6.970   2.157   7.025
 9977TIP3   OH229866   6.978   1.796   5.221
 9977TIP3    H129867   6.924   1.723   5.261
 9977TIP3    H229868   7.054   1.746   5.187
 9978TIP3   OH229869   7.606   2.108   6.823
 9978TIP3    H129870   7.602   2.043   6.897
 9978TIP3    H229871   7.685   2.160   6.844
 9979TIP3   OH229872   7.412   1.833   5.136
 9979TIP3    H129873   7.459   1.772   5.196
 9979TIP3    H229874   7.469   1.833   5.056
 9980TIP3   OH229875   6.646   1.668   7.252
 9980TIP3    H129876   6.661   1.572   7.263
 9980TIP3    H229877   6.559   1.669   7.206
 9981TIP3   OH229878   6.626   1.311   5.448
 9981TIP3    H129879   6.681   1.281   5.523
 9981TIP3    H229880   6.694   1.316   5.378
 9982TIP3   OH229881   7.258   1.757   7.016
 9982TIP3    H129882   7.210   1.779   6.933
 9982TIP3    H229883   7.278   1.662   7.003
 9983TIP3   OH229884   7.141   1.505   5.254
 9983TIP3    H129885   7.141   1.521   5.351
 9983TIP3    H229886   7.130   1.408   5.251
 9984TIP3   OH229887   7.723   1.737   6.633
 9984TIP3    H129888   7.803   1.771   6.586
 9984TIP3    H229889   7.681   1.821   6.657
 9985TIP3   OH229890   6.775   1.394   7.222
 9985TIP3    H129891   6.848   1.330   7.219
 9985TIP3    H229892   6.779   1.418   7.316
 9986TIP3   OH229893   6.829   1.220   5.670
 9986TIP3    H129894   6.803   1.186   5.757
 9986TIP3    H229895   6.864   1.140   5.625
 9987TIP3   OH229896   7.103   1.327   6.895
 9987TIP3    H129897   7.014   1.371   6.899
 9987TIP3    H229898   7.128   1.339   6.801
 9988TIP3   OH229899   6.931   1.010   5.513
 9988TIP3    H129900   6.902   1.012   5.420
 9988TIP3    H229901   7.028   1.016   5.502
 9989TIP3   OH229902   7.748   1.336   5.176
 9989TIP3    H129903   7.734   1.294   5.089
 9989TIP3    H229904   7.718   1.428   5.154
 9990TIP3   OH229905   7.193   1.089   6.984
 9990TIP3    H129906   7.157   1.031   6.913
 9990TIP3    H229907   7.178   1.178   6.945
 9991TIP3   OH229908   7.287   1.423   6.697
 9991TIP3    H129909   7.348   1.386   6.630
 9991TIP3    H229910   7.220   1.470   6.643
 9992TIP3   OH229911   7.044   1.194   7.192
 9992TIP3    H129912   6.979   1.123   7.195
 9992TIP3    H229913   7.097   1.172   7.113
 9993TIP3   OH229914   6.743   2.071   5.415
 9993TIP3    H129915   6.838   2.065   5.395
 9993TIP3    H229916   6.714   2.124   5.338
 9994TIP3   OH229917   6.220   1.457   5.626
 9994TIP3    H129918   6.315   1.476   5.615
 9994TIP3    H229919   6.214   1.367   5.586
 9995TIP3   OH229920   6.139   2.066   6.046
 9995TIP3    H129921   6.071   2.006   6.008
 9995TIP3    H229922   6.182   2.006   6.111
 9996TIP3   OH229923   6.272   1.912   6.232
 9996TIP3    H129924   6.258   1.842   6.299
 9996TIP3    H229925   6.322   1.976   6.285
 9997TIP3   OH229926   8.003   2.303   6.036
 9997TIP3    H129927   8.017   2.337   6.126
 9997TIP3    H229928   8.062   2.359   5.983
 9998TIP3   OH229929   8.010   2.344   6.315
 9998TIP3    H129930   7.929   2.294   6.341
 9998TIP3    H229931   8.077   2.300   6.370
 9999TIP3   OH229932   7.889   1.530   5.501
 9999TIP3    H129933   7.957   1.594   5.471
 9999TIP3    H229934   7.932   1.495   5.582
10000TIP3   OH229935   8.010   1.412   5.712
10000TIP3    H129936   7.944   1.364   5.767
10000TIP3    H229937   8.073   1.444   5.779
10001TIP3   OH229938   8.069   1.791   6.140
10001TIP3    H129939   8.120   1.723   6.092
10001TIP3    H229940   8.069   1.866   6.076
10002TIP3   OH229941   7.948   1.302   5.357
10002TIP3    H129942   7.878   1.309   5.288
10002TIP3    H229943   7.926   1.380   5.411
10003TIP3   OH229944   7.813   0.966   5.302
10003TIP3    H129945   7.808   1.038   5.238
10003TIP3    H229946   7.774   0.893   5.250
10004TIP3   OH229947   7.829   1.265   5.851
10004TIP3    H129948   7.834   1.170   5.828
10004TIP3    H229949   7.814   1.265   5.948
10005TIP3   OH229950   6.455   1.328   6.603
10005TIP3    H129951   6.450   1.295   6.511
10005TIP3    H229952   6.552   1.325   6.619
10006TIP3   OH229953   7.834   1.014   5.725
10006TIP3    H129954   7.862   0.934   5.776
10006TIP3    H229955   7.899   1.015   5.651
10007TIP3   OH229956   7.985   1.164   6.253
10007TIP3    H129957   8.078   1.158   6.229
10007TIP3    H229958   7.989   1.185   6.348
10008TIP3   OH229959   6.662   1.006   7.275
10008TIP3    H129960   6.757   0.988   7.270
10008TIP3    H229961   6.630   0.922   7.313
10009TIP3   OH229962   6.442   0.981   6.680
10009TIP3    H129963   6.488   0.982   6.594
10009TIP3    H229964   6.473   1.062   6.721
10010TIP3   OH229965   7.576   2.184   5.688
10010TIP3    H129966   7.634   2.177   5.609
10010TIP3    H229967   7.626   2.246   5.744
10011TIP3   OH229968   6.683   1.991   7.071
10011TIP3    H129969   6.590   1.966   7.057
10011TIP3    H229970   6.697   1.969   7.164
10012TIP3   OH229971   6.865   2.021   6.620
10012TIP3    H129972   6.815   2.097   6.582
10012TIP3    H229973   6.949   2.036   6.572
10013TIP3   OH229974   7.302   2.268   6.749
10013TIP3    H129975   7.343   2.269   6.839
10013TIP3    H229976   7.373   2.312   6.697
10014TIP3   OH229977   7.489   2.402   6.598
10014TIP3    H129978   7.558   2.356   6.545
10014TIP3    H229979   7.543   2.462   6.652
10015TIP3   OH229980   6.538   2.279   6.645
10015TIP3    H129981   6.447   2.310   6.622
10015TIP3    H229982   6.549   2.323   6.731
10016TIP3   OH229983   6.773   2.256   6.504
10016TIP3    H129984   6.686   2.268   6.548
10016TIP3    H229985   6.754   2.288   6.413
10017TIP3   OH229986   7.190   2.272   6.300
10017TIP3    H129987   7.124   2.308   6.239
10017TIP3    H229988   7.227   2.353   6.340
10018TIP3   OH229989   6.448   2.073   6.388
10018TIP3    H129990   6.474   2.043   6.478
10018TIP3    H229991   6.519   2.029   6.337
10019TIP3   OH229992   6.642   1.945   6.247
10019TIP3    H129993   6.656   1.861   6.298
10019TIP3    H229994   6.732   1.982   6.247
10020TIP3   OH229995   6.907   2.041   6.251
10020TIP3    H129996   6.935   1.948   6.241
10020TIP3    H229997   6.957   2.064   6.333
10021TIP3   OH229998   6.237   1.847   5.775
10021TIP3    H129999   6.150   1.814   5.744
10021TIP3    H230000   6.227   1.941   5.752
10022TIP3   OH230001   7.010   2.028   5.363
10022TIP3    H130002   7.097   2.052   5.326
10022TIP3    H230003   6.987   1.953   5.303
10023TIP3   OH230004   7.730   2.153   5.458
10023TIP3    H130005   7.721   2.055   5.446
10023TIP3    H230006   7.683   2.185   5.378
10024TIP3   OH230007   6.311   1.867   5.417
10024TIP3    H130008   6.311   1.888   5.511
10024TIP3    H230009   6.399   1.825   5.405
10025TIP3   OH230010   7.947   2.296   6.654
10025TIP3    H130011   7.880   2.263   6.589
10025TIP3    H230012   7.928   2.392   6.650
10026TIP3   OH230013   8.474   1.958   5.925
10026TIP3    H130014   8.432   1.886   5.876
10026TIP3    H230015   8.565   1.955   5.887
10027TIP3   OH230016   8.196   1.206   5.699
10027TIP3    H130017   8.121   1.266   5.679
10027TIP3    H230018   8.179   1.132   5.638
10028TIP3   OH230019   8.275   1.457   5.833
10028TIP3    H130020   8.282   1.361   5.819
10028TIP3    H230021   8.317   1.491   5.753
10029TIP3   OH230022   8.092   1.694   5.395
10029TIP3    H130023   8.047   1.723   5.314
10029TIP3    H230024   8.117   1.781   5.435
10030TIP3   OH230025   8.297   1.805   6.303
10030TIP3    H130026   8.220   1.813   6.243
10030TIP3    H230027   8.254   1.767   6.381
10031TIP3   OH230028   8.133   2.019   5.980
10031TIP3    H130029   8.229   2.033   5.978
10031TIP3    H230030   8.103   2.102   6.021
10032TIP3   OH230031   8.272   2.228   5.495
10032TIP3    H130032   8.355   2.236   5.545
10032TIP3    H230033   8.228   2.158   5.546
10033TIP3   OH230034   8.259   0.995   5.469
10033TIP3    H130035   8.273   1.001   5.373
10033TIP3    H230036   8.162   1.002   5.474
10034TIP3   OH230037   8.174   1.291   5.196
10034TIP3    H130038   8.222   1.375   5.215
10034TIP3    H230039   8.098   1.300   5.258
10035TIP3   OH230040   8.320   2.207   6.112
10035TIP3    H130041   8.378   2.140   6.151
10035TIP3    H230042   8.340   2.285   6.166
10036TIP3   OH230043   8.275   1.539   5.261
10036TIP3    H130044   8.213   1.584   5.322
10036TIP3    H230045   8.278   1.603   5.186
10037TIP3   OH230046   8.275   1.737   5.070
10037TIP3    H130047   8.349   1.794   5.098
10037TIP3    H230048   8.295   1.729   4.972
10038TIP3   OH230049   8.233   1.022   5.195
10038TIP3    H130050   8.219   1.119   5.194
10038TIP3    H230051   8.149   0.988   5.161
10039TIP3   OH230052   8.134   1.952   5.467
10039TIP3    H130053   8.079   1.998   5.532
10039TIP3    H230054   8.122   2.009   5.388
10040TIP3   OH230055   8.277   2.481   6.513
10040TIP3    H130056   8.364   2.473   6.555
10040TIP3    H230057   8.246   2.387   6.513
10041TIP3   OH230058   8.007   1.707   5.116
10041TIP3    H130059   8.103   1.723   5.101
10041TIP3    H230060   7.998   1.617   5.077
10042TIP3   OH230061   7.934   2.324   5.534
10042TIP3    H130062   7.866   2.263   5.497
10042TIP3    H230063   7.981   2.264   5.595
10043TIP3   OH230064   8.072   2.166   5.714
10043TIP3    H130065   8.051   2.102   5.785
10043TIP3    H230066   8.121   2.233   5.766
10044TIP3   OH230067   8.249   1.589   6.075
10044TIP3    H130068   8.254   1.541   5.989
10044TIP3    H230069   8.343   1.610   6.090
10045TIP3   OH230070   8.328   2.528   6.137
10045TIP3    H130071   8.244   2.567   6.103
10045TIP3    H230072   8.319   2.553   6.230
10046TIP3   OH230073   8.589   2.516   6.009
10046TIP3    H130074   8.499   2.519   6.046
10046TIP3    H230075   8.572   2.548   5.918
10047TIP3   OH230076   8.239   2.332   5.873
10047TIP3    H130077   8.267   2.306   5.963
10047TIP3    H230078   8.312   2.290   5.822
10048TIP3   OH230079   8.426   2.195   5.734
10048TIP3    H130080   8.434   2.102   5.761
10048TIP3    H230081   8.518   2.213   5.704
10049TIP3   OH230082   8.040   2.098   5.252
10049TIP3    H130083   7.950   2.073   5.225
10049TIP3    H230084   8.033   2.195   5.247
10050TIP3   OH230085   8.112   2.134   4.921
10050TIP3    H130086   8.074   2.168   5.004
10050TIP3    H230087   8.175   2.067   4.953
10051TIP3   OH230088   1.676   2.454   7.093
10051TIP3    H130089   1.646   2.546   7.077
10051TIP3    H230090   1.596   2.405   7.066
10052TIP3   OH230091   1.646   2.463   7.466
10052TIP3    H130092   1.700   2.447   7.546
10052TIP3    H230093   1.614   2.374   7.445
10053TIP3   OH230094   1.917   2.760   7.165
10053TIP3    H130095   1.905   2.691   7.231
10053TIP3    H230096   1.949   2.834   7.218
10054TIP3   OH230097   0.947   2.762   7.561
10054TIP3    H130098   0.932   2.665   7.565
10054TIP3    H230099   1.045   2.764   7.563
10055TIP3   OH230100   0.696   2.234   7.495
10055TIP3    H130101   0.746   2.201   7.571
10055TIP3    H230102   0.758   2.300   7.459
10056TIP3   OH230103   1.568   3.220   7.179
10056TIP3    H130104   1.610   3.148   7.127
10056TIP3    H230105   1.562   3.179   7.267
10057TIP3   OH230106   1.472   2.682   7.514
10057TIP3    H130107   1.513   2.601   7.479
10057TIP3    H230108   1.552   2.725   7.549
10058TIP3   OH230109   2.476   2.002   7.516
10058TIP3    H130110   2.494   2.082   7.570
10058TIP3    H230111   2.501   2.033   7.427
10059TIP3   OH230112   1.867   2.161   7.563
10059TIP3    H130113   1.923   2.084   7.583
10059TIP3    H230114   1.850   2.149   7.468
10060TIP3   OH230115   1.253   1.844   7.523
10060TIP3    H130116   1.208   1.922   7.485
10060TIP3    H230117   1.189   1.774   7.502
10061TIP3   OH230118   1.918   1.933   7.144
10061TIP3    H130119   1.988   1.921   7.212
10061TIP3    H230120   1.972   1.967   7.070
10062TIP3   OH230121   1.295   2.242   7.431
10062TIP3    H130122   1.390   2.218   7.438
10062TIP3    H230123   1.257   2.159   7.395
10063TIP3   OH230124   2.539   2.196   7.697
10063TIP3    H130125   2.453   2.244   7.694
10063TIP3    H230126   2.592   2.254   7.754
10064TIP3   OH230127   1.562   2.676   6.965
10064TIP3    H130128   1.520   2.660   6.879
10064TIP3    H230129   1.516   2.758   6.993
10065TIP3   OH230130   2.118   1.944   7.327
10065TIP3    H130131   2.129   1.889   7.405
10065TIP3    H230132   2.175   2.020   7.349
10066TIP3   OH230133   0.561   2.482   7.086
10066TIP3    H130134   0.506   2.505   7.008
10066TIP3    H230135   0.578   2.569   7.126
10067TIP3   OH230136   1.984   3.003   7.324
10067TIP3    H130137   1.894   2.992   7.363
10067TIP3    H230138   1.975   3.090   7.281
10068TIP3   OH230139   2.276   1.892   7.699
10068TIP3    H130140   2.189   1.919   7.667
10068TIP3    H230141   2.336   1.926   7.630
10069TIP3   OH230142   1.682   3.047   6.996
10069TIP3    H130143   1.734   2.965   6.979
10069TIP3    H230144   1.744   3.113   6.957
10070TIP3   OH230145   1.829   2.832   6.913
10070TIP3    H130146   1.791   2.751   6.877
10070TIP3    H230147   1.867   2.800   6.998
10071TIP3   OH230148   2.207   2.914   7.668
10071TIP3    H130149   2.198   2.834   7.611
10071TIP3    H230150   2.192   2.986   7.605
10072TIP3   OH230151   1.501   2.305   6.930
10072TIP3    H130152   1.422   2.358   6.909
10072TIP3    H230153   1.549   2.305   6.845
10073TIP3   OH230154   1.461   2.096   6.640
10073TIP3    H130155   1.528   2.145   6.692
10073TIP3    H230156   1.519   2.032   6.594
10074TIP3   OH230157   2.405   2.545   7.515
10074TIP3    H130158   2.323   2.600   7.524
10074TIP3    H230159   2.436   2.574   7.427
10075TIP3   OH230160   1.852   2.390   6.897
10075TIP3    H130161   1.797   2.414   6.975
10075TIP3    H230162   1.936   2.365   6.941
10076TIP3   OH230163   2.074   2.456   7.782
10076TIP3    H130164   2.074   2.551   7.805
10076TIP3    H230165   1.993   2.450   7.730
10077TIP3   OH230166   1.086   2.388   7.314
10077TIP3    H130167   1.048   2.327   7.248
10077TIP3    H230168   1.160   2.336   7.351
10078TIP3   OH230169   1.221   2.804   7.462
10078TIP3    H130170   1.201   2.759   7.378
10078TIP3    H230171   1.308   2.764   7.484
10079TIP3   OH230172   1.199   2.385   7.647
10079TIP3    H130173   1.233   2.325   7.577
10079TIP3    H230174   1.282   2.426   7.677
10080TIP3   OH230175   1.744   2.993   7.447
10080TIP3    H130176   1.730   3.076   7.495
10080TIP3    H230177   1.725   2.924   7.513
10081TIP3   OH230178   1.689   2.249   6.727
10081TIP3    H130179   1.750   2.308   6.777
10081TIP3    H230180   1.715   2.271   6.634
10082TIP3   OH230181   1.436   2.924   6.999
10082TIP3    H130182   1.519   2.975   7.010
10082TIP3    H230183   1.376   2.990   6.962
10083TIP3   OH230184   2.205   1.487   6.773
10083TIP3    H130185   2.126   1.510   6.826
10083TIP3    H230186   2.220   1.570   6.724
10084TIP3   OH230187   0.956   2.230   7.115
10084TIP3    H130188   0.883   2.270   7.063
10084TIP3    H230189   0.919   2.145   7.140
10085TIP3   OH230190   2.007   2.854   6.325
10085TIP3    H130191   2.016   2.950   6.310
10085TIP3    H230192   2.100   2.824   6.312
10086TIP3   OH230193   2.443   3.261   7.711
10086TIP3    H130194   2.449   3.165   7.727
10086TIP3    H230195   2.365   3.282   7.767
10087TIP3   OH230196   1.575   3.058   7.874
10087TIP3    H130197   1.519   3.132   7.900
10087TIP3    H230198   1.509   2.985   7.869
10088TIP3   OH230199   1.317   3.170   6.806
10088TIP3    H130200   1.271   3.153   6.722
10088TIP3    H230201   1.283   3.259   6.830
10089TIP3   OH230202   0.753   3.021   7.191
10089TIP3    H130203   0.803   3.013   7.275
10089TIP3    H230204   0.707   2.935   7.188
10090TIP3   OH230205   1.517   3.075   6.443
10090TIP3    H130206   1.575   3.004   6.408
10090TIP3    H230207   1.552   3.084   6.534
10091TIP3   OH230208   1.569   3.123   6.713
10091TIP3    H130209   1.481   3.131   6.756
10091TIP3    H230210   1.621   3.084   6.785
10092TIP3   OH230211   1.765   2.290   6.470
10092TIP3    H130212   1.733   2.267   6.380
10092TIP3    H230213   1.850   2.333   6.448
10093TIP3   OH230214   1.479   1.668   6.769
10093TIP3    H130215   1.449   1.662   6.862
10093TIP3    H230216   1.438   1.587   6.732
10094TIP3   OH230217   1.162   2.028   7.328
10094TIP3    H130218   1.073   1.990   7.345
10094TIP3    H230219   1.179   1.987   7.241
10095TIP3   OH230220   1.640   2.107   7.064
10095TIP3    H130221   1.589   2.179   7.020
10095TIP3    H230222   1.696   2.075   6.990
10096TIP3   OH230223   1.795   2.132   7.298
10096TIP3    H130224   1.736   2.163   7.226
10096TIP3    H230225   1.832   2.053   7.252
10097TIP3   OH230226   1.144   1.634   6.750
10097TIP3    H130227   1.120   1.626   6.844
10097TIP3    H230228   1.070   1.690   6.717
10098TIP3   OH230229   1.815   2.406   7.671
10098TIP3    H130230   1.837   2.313   7.646
10098TIP3    H230231   1.788   2.398   7.765
10099TIP3   OH230232   1.490   1.836   7.389
10099TIP3    H130233   1.404   1.844   7.438
10099TIP3    H230234   1.553   1.854   7.460
10100TIP3   OH230235   0.944   1.880   7.372
10100TIP3    H130236   0.853   1.890   7.408
10100TIP3    H230237   0.964   1.787   7.390
10101TIP3   OH230238   1.184   1.897   7.089
10101TIP3    H130239   1.277   1.916   7.066
10101TIP3    H230240   1.134   1.924   7.009
10102TIP3   OH230241   1.972   1.911   7.622
10102TIP3    H130242   1.941   1.918   7.714
10102TIP3    H230243   1.901   1.858   7.580
10103TIP3   OH230244   1.021   1.938   6.874
10103TIP3    H130245   0.953   1.885   6.827
10103TIP3    H230246   1.075   1.967   6.797
10104TIP3   OH230247   2.156   3.605   7.801
10104TIP3    H130248   2.157   3.622   7.705
10104TIP3    H230249   2.237   3.653   7.829
10105TIP3   OH230250   1.566   2.176   7.474
10105TIP3    H130251   1.641   2.143   7.421
10105TIP3    H230252   1.593   2.152   7.563
10106TIP3   OH230253   1.110   1.639   7.395
10106TIP3    H130254   1.054   1.576   7.346
10106TIP3    H230255   1.190   1.641   7.339
10107TIP3   OH230256   1.272   2.458   6.874
10107TIP3    H130257   1.199   2.393   6.864
10107TIP3    H230258   1.253   2.492   6.966
10108TIP3   OH230259   2.175   2.696   7.503
10108TIP3    H130260   2.201   2.747   7.423
10108TIP3    H230261   2.089   2.657   7.477
10109TIP3   OH230262   1.731   1.770   6.744
10109TIP3    H130263   1.635   1.752   6.752
10109TIP3    H230264   1.740   1.864   6.769
10110TIP3   OH230265   1.799   2.020   6.846
10110TIP3    H130266   1.895   2.025   6.862
10110TIP3    H230267   1.781   2.100   6.794
10111TIP3   OH230268   0.963   2.483   7.546
10111TIP3    H130269   1.000   2.457   7.460
10111TIP3    H230270   1.035   2.451   7.605
10112TIP3   OH230271   1.418   2.608   6.699
10112TIP3    H130272   1.369   2.694   6.705
10112TIP3    H230273   1.364   2.553   6.760
10113TIP3   OH230274   1.839   3.030   7.794
10113TIP3    H130275   1.744   3.043   7.811
10113TIP3    H230276   1.879   3.086   7.863
10114TIP3   OH230277   2.239   2.113   6.681
10114TIP3    H130278   2.177   2.068   6.618
10114TIP3    H230279   2.236   2.202   6.640
10115TIP3   OH230280   2.452   2.974   7.761
10115TIP3    H130281   2.355   2.962   7.749
10115TIP3    H230282   2.482   2.939   7.675
10116TIP3   OH230283   1.941   2.930   6.590
10116TIP3    H130284   1.918   2.860   6.652
10116TIP3    H230285   1.956   2.882   6.506
10117TIP3   OH230286   1.940   2.567   7.410
10117TIP3    H130287   1.851   2.538   7.434
10117TIP3    H230288   1.976   2.485   7.371
10118TIP3   OH230289   1.068   2.787   7.175
10118TIP3    H130290   1.065   2.868   7.122
10118TIP3    H230291   0.974   2.771   7.193
10119TIP3   OH230292   0.607   2.095   6.908
10119TIP3    H130293   0.674   2.167   6.904
10119TIP3    H230294   0.555   2.127   6.984
10120TIP3   OH230295   1.199   2.550   7.117
10120TIP3    H130296   1.167   2.640   7.139
10120TIP3    H230297   1.167   2.500   7.195
10121TIP3   OH230298   1.333   3.131   7.630
10121TIP3    H130299   1.379   3.206   7.588
10121TIP3    H230300   1.406   3.081   7.668
10122TIP3   OH230301   0.983   3.029   7.029
10122TIP3    H130302   0.898   3.037   7.077
10122TIP3    H230303   1.016   3.121   7.034
10123TIP3   OH230304   1.727   2.764   7.612
10123TIP3    H130305   1.764   2.772   7.701
10123TIP3    H230306   1.802   2.719   7.569
10124TIP3   OH230307   1.701   2.660   6.492
10124TIP3    H130308   1.756   2.634   6.569
10124TIP3    H230309   1.614   2.630   6.522
10125TIP3   OH230310   1.961   3.296   7.658
10125TIP3    H130311   1.882   3.242   7.642
10125TIP3    H230312   1.954   3.361   7.584
10126TIP3   OH230313   2.037   3.130   6.308
10126TIP3    H130314   2.076   3.204   6.259
10126TIP3    H230315   1.957   3.175   6.343
10127TIP3   OH230316   1.862   2.590   6.704
10127TIP3    H130317   1.852   2.524   6.776
10127TIP3    H230318   1.959   2.587   6.693
10128TIP3   OH230319   1.062   2.638   6.491
10128TIP3    H130320   1.077   2.545   6.465
10128TIP3    H230321   1.044   2.628   6.586
10129TIP3   OH230322   1.008   2.643   6.763
10129TIP3    H130323   1.082   2.614   6.819
10129TIP3    H230324   1.013   2.741   6.772
10130TIP3   OH230325   0.747   2.329   6.959
10130TIP3    H130326   0.682   2.375   7.017
10130TIP3    H230327   0.765   2.400   6.895
10131TIP3   OH230328   1.776   1.721   7.026
10131TIP3    H130329   1.764   1.743   6.932
10131TIP3    H230330   1.819   1.802   7.061
10132TIP3   OH230331   1.274   2.838   6.709
10132TIP3    H130332   1.188   2.864   6.746
10132TIP3    H230333   1.292   2.914   6.652
10133TIP3   OH230334   1.462   1.906   7.123
10133TIP3    H130335   1.526   1.979   7.107
10133TIP3    H230336   1.469   1.897   7.221
10134TIP3   OH230337   1.611   1.630   7.229
10134TIP3    H130338   1.594   1.711   7.282
10134TIP3    H230339   1.674   1.664   7.162
10135TIP3   OH230340   1.020   2.915   6.780
10135TIP3    H130341   0.991   2.986   6.718
10135TIP3    H230342   1.005   2.959   6.867
10136TIP3   OH230343   1.134   1.636   7.032
10136TIP3    H130344   1.144   1.731   7.055
10136TIP3    H230345   1.229   1.611   7.028
10137TIP3   OH230346   2.022   2.316   7.302
10137TIP3    H130347   1.948   2.254   7.313
10137TIP3    H230348   2.095   2.271   7.351
10138TIP3   OH230349   0.744   2.543   6.767
10138TIP3    H130350   0.816   2.607   6.777
10138TIP3    H230351   0.786   2.483   6.701
10139TIP3   OH230352   0.725   1.851   6.814
10139TIP3    H130353   0.717   1.935   6.864
10139TIP3    H230354   0.673   1.793   6.872
10140TIP3   OH230355   1.992   3.275   7.248
10140TIP3    H130356   1.951   3.322   7.173
10140TIP3    H230357   2.087   3.294   7.229
10141TIP3   OH230358   0.608   2.773   7.160
10141TIP3    H130359   0.527   2.799   7.206
10141TIP3    H230360   0.587   2.806   7.070
10142TIP3   OH230361   1.226   2.840   6.399
10142TIP3    H130362   1.171   2.768   6.440
10142TIP3    H230363   1.302   2.788   6.368
10143TIP3   OH230364   1.662   2.878   6.315
10143TIP3    H130365   1.703   2.813   6.376
10143TIP3    H230366   1.720   2.875   6.237
10144TIP3   OH230367   0.874   2.351   6.626
10144TIP3    H130368   0.932   2.323   6.700
10144TIP3    H230369   0.941   2.357   6.554
10145TIP3   OH230370   1.386   2.555   6.431
10145TIP3    H130371   1.389   2.568   6.528
10145TIP3    H230372   1.387   2.457   6.426
10146TIP3   OH230373   1.976   2.782   7.767
10146TIP3    H130374   2.069   2.809   7.756
10146TIP3    H230375   1.935   2.868   7.788
10147TIP3   OH230376   1.073   2.264   6.840
10147TIP3    H130377   1.051   2.227   6.928
10147TIP3    H230378   1.113   2.187   6.795
10148TIP3   OH230379   1.184   2.058   6.686
10148TIP3    H130380   1.157   2.062   6.592
10148TIP3    H230381   1.281   2.062   6.678
10149TIP3   OH230382   1.999   2.385   6.353
10149TIP3    H130383   1.980   2.340   6.268
10149TIP3    H230384   1.967   2.475   6.330
10150TIP3   OH230385   0.992   3.119   6.593
10150TIP3    H130386   1.087   3.110   6.573
10150TIP3    H230387   0.964   3.169   6.514
10151TIP3   OH230388   0.479   2.491   6.808
10151TIP3    H130389   0.573   2.515   6.795
10151TIP3    H230390   0.474   2.404   6.763
10152TIP3   OH230391   0.363   3.114   7.229
10152TIP3    H130392   0.325   3.046   7.171
10152TIP3    H230393   0.411   3.061   7.295
10153TIP3   OH230394   0.507   2.970   7.410
10153TIP3    H130395   0.533   2.885   7.448
10153TIP3    H230396   0.562   3.032   7.462
10154TIP3   OH230397   2.246   3.367   7.210
10154TIP3    H130398   2.276   3.392   7.300
10154TIP3    H230399   2.318   3.401   7.154
10155TIP3   OH230400   2.279   3.380   7.493
10155TIP3    H130401   2.232   3.294   7.487
10155TIP3    H230402   2.350   3.354   7.556
10156TIP3   OH230403   2.140   2.572   6.682
10156TIP3    H130404   2.207   2.637   6.653
10156TIP3    H230405   2.184   2.534   6.761
10157TIP3   OH230406   2.267   2.440   6.886
10157TIP3    H130407   2.202   2.398   6.947
10157TIP3    H230408   2.334   2.475   6.948
10158TIP3   OH230409   2.322   2.834   7.315
10158TIP3    H130410   2.378   2.766   7.272
10158TIP3    H230411   2.319   2.904   7.248
10159TIP3   OH230412   2.149   3.135   7.507
10159TIP3    H130413   2.076   3.167   7.564
10159TIP3    H230414   2.100   3.085   7.438
10160TIP3   OH230415   2.203   2.348   6.532
10160TIP3    H130416   2.131   2.350   6.466
10160TIP3    H230417   2.177   2.424   6.588
10161TIP3   OH230418   2.072   2.021   6.487
10161TIP3    H130419   2.030   2.055   6.407
10161TIP3    H230420   2.051   1.925   6.479
10162TIP3   OH230421   2.078   2.298   7.031
10162TIP3    H130422   2.089   2.202   7.026
10162TIP3    H230423   2.064   2.312   7.128
10163TIP3   OH230424   2.338   2.698   7.869
10163TIP3    H130425   2.424   2.653   7.877
10163TIP3    H230426   2.363   2.788   7.849
10164TIP3   OH230427   2.541   2.519   7.901
10164TIP3    H130428   2.478   2.464   7.949
10164TIP3    H230429   2.617   2.459   7.892
10165TIP3   OH230430   2.020   1.754   6.469
10165TIP3    H130431   2.096   1.724   6.523
10165TIP3    H230432   1.948   1.693   6.494
10166TIP3   OH230433   2.076   2.013   6.924
10166TIP3    H130434   2.118   1.925   6.939
10166TIP3    H230435   2.135   2.047   6.854
10167TIP3   OH230436   2.235   2.189   7.424
10167TIP3    H130437   2.322   2.212   7.384
10167TIP3    H230438   2.249   2.225   7.514
10168TIP3   OH230439   2.301   2.334   7.662
10168TIP3    H130440   2.226   2.374   7.711
10168TIP3    H230441   2.337   2.412   7.615
10169TIP3   OH230442   2.184   1.764   6.965
10169TIP3    H130443   2.234   1.747   7.048
10169TIP3    H230444   2.125   1.686   6.963
10170TIP3   OH230445   2.262   1.696   6.597
10170TIP3    H130446   2.304   1.625   6.545
10170TIP3    H230447   2.331   1.766   6.595
10171TIP3   OH230448   1.828   3.233   6.863
10171TIP3    H130449   1.882   3.220   6.783
10171TIP3    H230450   1.883   3.293   6.915
10172TIP3   OH230451   1.088   3.071   7.784
10172TIP3    H130452   1.075   3.158   7.741
10172TIP3    H230453   1.183   3.059   7.767
10173TIP3   OH230454   1.726   3.468   7.759
10173TIP3    H130455   1.807   3.417   7.746
10173TIP3    H230456   1.731   3.493   7.853
10174TIP3   OH230457   1.017   3.313   7.672
10174TIP3    H130458   0.942   3.355   7.718
10174TIP3    H230459   0.999   3.337   7.578
10175TIP3   OH230460   1.450   3.331   7.473
10175TIP3    H130461   1.377   3.348   7.410
10175TIP3    H230462   1.461   3.420   7.512
10176TIP3   OH230463   1.717   3.261   7.521
10176TIP3    H130464   1.622   3.282   7.506
10176TIP3    H230465   1.760   3.342   7.490
10177TIP3   OH230466   1.925   3.459   7.442
10177TIP3    H130467   1.909   3.543   7.394
10177TIP3    H230468   1.950   3.398   7.369
10178TIP3   OH230469   0.696   3.113   7.554
10178TIP3    H130470   0.717   3.101   7.648
10178TIP3    H230471   0.772   3.068   7.511
10179TIP3   OH230472   0.896   2.988   7.421
10179TIP3    H130473   0.911   2.903   7.468
10179TIP3    H230474   0.988   3.024   7.419
10180TIP3   OH230475   1.159   3.078   7.426
10180TIP3    H130476   1.188   2.984   7.419
10180TIP3    H230477   1.210   3.102   7.506
10181TIP3   OH230478   1.757   1.750   7.514
10181TIP3    H130479   1.723   1.670   7.555
10181TIP3    H230480   1.825   1.713   7.454
10182TIP3   OH230481   2.255   1.615   7.421
10182TIP3    H130482   2.294   1.664   7.345
10182TIP3    H230483   2.162   1.639   7.414
10183TIP3   OH230484   2.346   1.721   7.185
10183TIP3    H130485   2.417   1.665   7.145
10183TIP3    H230486   2.384   1.810   7.168
10184TIP3   OH230487   1.400   1.500   7.367
10184TIP3    H130488   1.477   1.545   7.327
10184TIP3    H230489   1.418   1.510   7.462
10185TIP3   OH230490   1.964   1.620   7.389
10185TIP3    H130491   1.983   1.582   7.302
10185TIP3    H230492   1.951   1.539   7.443
10186TIP3   OH230493   2.001   1.551   6.956
10186TIP3    H130494   1.916   1.595   6.973
10186TIP3    H230495   1.987   1.466   7.003
10187TIP3   OH230496   0.471   2.892   6.959
10187TIP3    H130497   0.403   2.843   6.910
10187TIP3    H230498   0.464   2.980   6.917
10188TIP3   OH230499   1.410   1.654   7.035
10188TIP3    H130500   1.468   1.610   7.100
10188TIP3    H230501   1.428   1.747   7.059
10189TIP3   OH230502   1.258   3.072   6.539
10189TIP3    H130503   1.346   3.096   6.502
10189TIP3    H230504   1.236   2.998   6.479
10190TIP3   OH230505   1.978   3.197   6.633
10190TIP3    H130506   1.969   3.099   6.622
10190TIP3    H230507   1.932   3.228   6.552
10191TIP3   OH230508   0.563   2.913   6.595
10191TIP3    H130509   0.567   2.946   6.685
10191TIP3    H230510   0.651   2.869   6.583
10192TIP3   OH230511   2.188   3.330   7.810
10192TIP3    H130512   2.110   3.311   7.754
10192TIP3    H230513   2.178   3.426   7.825
10193TIP3   OH230514   3.470   2.713   6.582
10193TIP3    H130515   3.439   2.803   6.561
10193TIP3    H230516   3.394   2.661   6.550
10194TIP3   OH230517   3.469   2.713   6.971
10194TIP3    H130518   3.504   2.689   7.059
10194TIP3    H230519   3.427   2.630   6.943
10195TIP3   OH230520   2.765   2.603   7.332
10195TIP3    H130521   2.793   2.536   7.398
10195TIP3    H230522   2.841   2.662   7.334
10196TIP3   OH230523   3.714   3.017   6.651
10196TIP3    H130524   3.698   2.948   6.717
10196TIP3    H230525   3.745   3.091   6.705
10197TIP3   OH230526   2.738   3.016   7.051
10197TIP3    H130527   2.730   2.918   7.053
10197TIP3    H230528   2.835   3.025   7.051
10198TIP3   OH230529   2.446   2.218   6.836
10198TIP3    H130530   2.399   2.301   6.855
10198TIP3    H230531   2.374   2.166   6.794
10199TIP3   OH230532   2.502   2.505   7.016
10199TIP3    H130533   2.552   2.428   7.051
10199TIP3    H230534   2.567   2.544   6.955
10200TIP3   OH230535   3.365   3.476   6.667
10200TIP3    H130536   3.407   3.405   6.614
10200TIP3    H230537   3.358   3.434   6.754
10201TIP3   OH230538   3.266   2.940   7.014
10201TIP3    H130539   3.306   2.862   6.972
10201TIP3    H230540   3.348   2.987   7.039
10202TIP3   OH230541   4.284   2.256   7.013
10202TIP3    H130542   4.312   2.341   7.053
10202TIP3    H230543   4.304   2.272   6.919
10203TIP3   OH230544   3.680   2.437   7.044
10203TIP3    H130545   3.722   2.351   7.064
10203TIP3    H230546   3.647   2.420   6.954
10204TIP3   OH230547   3.021   2.098   7.010
10204TIP3    H130548   3.000   2.171   6.947
10204TIP3    H230549   2.972   2.024   6.967
10205TIP3   OH230550   3.714   2.191   6.631
10205TIP3    H130551   3.786   2.176   6.697
10205TIP3    H230552   3.767   2.225   6.556
10206TIP3   OH230553   2.650   2.300   7.120
10206TIP3    H130554   2.734   2.282   7.167
10206TIP3    H230555   2.665   2.245   7.040
10207TIP3   OH230556   3.091   2.498   6.913
10207TIP3    H130557   3.185   2.474   6.926
10207TIP3    H230558   3.053   2.414   6.881
10208TIP3   OH230559   4.356   2.468   7.182
10208TIP3    H130560   4.272   2.513   7.161
10208TIP3    H230561   4.369   2.495   7.274
10209TIP3   OH230562   3.015   2.080   7.442
10209TIP3    H130563   2.957   2.119   7.373
10209TIP3    H230564   2.962   2.102   7.522
10210TIP3   OH230565   3.356   2.931   6.453
10210TIP3    H130566   3.317   2.917   6.366
10210TIP3    H230567   3.311   3.015   6.480
10211TIP3   OH230568   3.119   2.859   7.237
10211TIP3    H130569   3.059   2.927   7.275
10211TIP3    H230570   3.163   2.908   7.165
10212TIP3   OH230571   3.918   2.196   6.810
10212TIP3    H130572   3.902   2.152   6.895
10212TIP3    H230573   3.971   2.273   6.837
10213TIP3   OH230574   2.886   2.196   7.228
10213TIP3    H130575   2.945   2.271   7.252
10213TIP3    H230576   2.937   2.157   7.153
10214TIP3   OH230577   2.949   3.055   7.336
10214TIP3    H130578   2.923   3.143   7.303
10214TIP3    H230579   2.871   3.036   7.393
10215TIP3   OH230580   2.340   2.744   6.574
10215TIP3    H130581   2.301   2.771   6.489
10215TIP3    H230582   2.373   2.829   6.610
10216TIP3   OH230583   3.781   3.259   6.814
10216TIP3    H130584   3.690   3.251   6.853
10216TIP3    H230585   3.774   3.346   6.769
10217TIP3   OH230586   4.077   2.155   7.180
10217TIP3    H130587   3.988   2.182   7.148
10217TIP3    H230588   4.135   2.188   7.108
10218TIP3   OH230589   3.368   1.797   7.163
10218TIP3    H130590   3.350   1.702   7.179
10218TIP3    H230591   3.291   1.837   7.208
10219TIP3   OH230592   3.478   3.304   6.483
10219TIP3    H130593   3.529   3.221   6.466
10219TIP3    H230594   3.540   3.369   6.444
10220TIP3   OH230595   3.624   3.089   6.399
10220TIP3    H130596   3.590   3.007   6.361
10220TIP3    H230597   3.663   3.056   6.484
10221TIP3   OH230598   4.009   3.169   7.158
10221TIP3    H130599   3.995   3.092   7.099
10221TIP3    H230600   3.989   3.244   7.098
10222TIP3   OH230601   3.299   2.564   6.417
10222TIP3    H130602   3.219   2.616   6.396
10222TIP3    H230603   3.346   2.561   6.332
10223TIP3   OH230604   3.257   2.352   6.128
10223TIP3    H130605   3.325   2.402   6.178
10223TIP3    H230606   3.315   2.288   6.081
10224TIP3   OH230607   4.204   2.811   7.007
10224TIP3    H130608   4.119   2.861   7.010
10224TIP3    H230609   4.232   2.833   6.915
10225TIP3   OH230610   3.648   2.647   6.385
10225TIP3    H130611   3.593   2.671   6.464
10225TIP3    H230612   3.731   2.621   6.429
10226TIP3   OH230613   3.881   2.685   7.303
10226TIP3    H130614   3.877   2.768   7.353
10226TIP3    H230615   3.794   2.687   7.257
10227TIP3   OH230616   2.880   2.643   6.805
10227TIP3    H130617   2.840   2.584   6.738
10227TIP3    H230618   2.957   2.590   6.836
10228TIP3   OH230619   3.011   3.059   6.950
10228TIP3    H130620   2.991   3.018   6.864
10228TIP3    H230621   3.100   3.023   6.970
10229TIP3   OH230622   3.013   2.616   7.156
10229TIP3    H130623   3.050   2.592   7.068
10229TIP3    H230624   3.059   2.700   7.177
10230TIP3   OH230625   3.539   3.254   6.936
10230TIP3    H130626   3.528   3.333   6.992
10230TIP3    H230627   3.525   3.180   6.999
10231TIP3   OH230628   3.153   3.174   7.481
10231TIP3    H130629   3.092   3.234   7.529
10231TIP3    H230630   3.089   3.118   7.433
10232TIP3   OH230631   3.484   2.506   6.214
10232TIP3    H130632   3.545   2.565   6.264
10232TIP3    H230633   3.511   2.527   6.121
10233TIP3   OH230634   2.914   2.728   7.575
10233TIP3    H130635   2.921   2.815   7.619
10233TIP3    H230636   2.820   2.707   7.593
10234TIP3   OH230637   3.232   3.181   6.488
10234TIP3    H130638   3.316   3.232   6.497
10234TIP3    H230639   3.173   3.246   6.448
10235TIP3   OH230640   2.946   3.338   7.571
10235TIP3    H130641   2.910   3.337   7.481
10235TIP3    H230642   2.866   3.318   7.626
10236TIP3   OH230643   4.004   1.744   6.263
10236TIP3    H130644   3.923   1.768   6.312
10236TIP3    H230645   4.019   1.825   6.209
10237TIP3   OH230646   2.747   2.487   6.607
10237TIP3    H130647   2.677   2.529   6.554
10237TIP3    H230648   2.711   2.399   6.621
10238TIP3   OH230649   3.803   3.111   5.813
10238TIP3    H130650   3.812   3.207   5.797
10238TIP3    H230651   3.896   3.081   5.798
10239TIP3   OH230652   2.524   2.875   7.518
10239TIP3    H130653   2.458   2.850   7.451
10239TIP3    H230654   2.565   2.789   7.543
10240TIP3   OH230655   2.383   3.065   7.144
10240TIP3    H130656   2.479   3.054   7.137
10240TIP3    H230657   2.377   3.138   7.207
10241TIP3   OH230658   4.246   3.520   7.206
10241TIP3    H130659   4.245   3.423   7.218
10241TIP3    H230660   4.161   3.543   7.250
10242TIP3   OH230661   3.348   3.302   7.337
10242TIP3    H130662   3.346   3.394   7.372
10242TIP3    H230663   3.278   3.260   7.392
10243TIP3   OH230664   3.113   3.426   6.293
10243TIP3    H130665   3.068   3.408   6.208
10243TIP3    H230666   3.079   3.515   6.316
10244TIP3   OH230667   2.550   3.277   6.678
10244TIP3    H130668   2.597   3.268   6.764
10244TIP3    H230669   2.501   3.193   6.676
10245TIP3   OH230670   3.313   3.331   5.931
10245TIP3    H130671   3.371   3.260   5.894
10245TIP3    H230672   3.349   3.340   6.021
10246TIP3   OH230673   3.365   3.380   6.200
10246TIP3    H130674   3.277   3.388   6.243
10246TIP3    H230675   3.418   3.342   6.272
10247TIP3   OH230676   4.136   2.646   7.480
10247TIP3    H130677   4.051   2.658   7.435
10247TIP3    H230678   4.149   2.550   7.470
10248TIP3   OH230679   2.730   3.057   7.499
10248TIP3    H130680   2.784   3.039   7.579
10248TIP3    H230681   2.656   2.994   7.511
10249TIP3   OH230682   3.130   1.874   7.292
10249TIP3    H130683   3.042   1.844   7.262
10249TIP3    H230684   3.104   1.956   7.339
10250TIP3   OH230685   3.663   1.990   7.484
10250TIP3    H130686   3.732   1.966   7.549
10250TIP3    H230687   3.580   1.973   7.532
10251TIP3   OH230688   3.905   2.424   7.404
10251TIP3    H130689   3.853   2.418   7.488
10251TIP3    H230690   3.877   2.510   7.368
10252TIP3   OH230691   3.562   2.548   5.957
10252TIP3    H130692   3.529   2.524   5.869
10252TIP3    H230693   3.647   2.590   5.935
10253TIP3   OH230694   3.274   1.926   6.260
10253TIP3    H130695   3.240   1.922   6.352
10253TIP3    H230696   3.236   1.842   6.226
10254TIP3   OH230697   3.060   2.393   7.306
10254TIP3    H130698   3.015   2.416   7.390
10254TIP3    H230699   3.044   2.475   7.254
10255TIP3   OH230700   2.946   2.279   6.822
10255TIP3    H130701   2.853   2.252   6.841
10255TIP3    H230702   2.958   2.238   6.734
10256TIP3   OH230703   3.436   2.364   6.552
10256TIP3    H130704   3.385   2.435   6.507
10256TIP3    H230705   3.492   2.330   6.479
10257TIP3   OH230706   3.612   2.645   7.634
10257TIP3    H130707   3.587   2.573   7.696
10257TIP3    H230708   3.704   2.659   7.660
10258TIP3   OH230709   3.593   2.390   6.788
10258TIP3    H130710   3.530   2.418   6.717
10258TIP3    H230711   3.629   2.310   6.743
10259TIP3   OH230712   2.884   2.424   7.520
10259TIP3    H130713   2.922   2.485   7.586
10259TIP3    H230714   2.875   2.342   7.572
10260TIP3   OH230715   2.930   1.899   6.226
10260TIP3    H130716   2.922   1.896   6.324
10260TIP3    H230717   2.852   1.953   6.203
10261TIP3   OH230718   2.475   1.942   7.099
10261TIP3    H130719   2.550   1.974   7.153
10261TIP3    H230720   2.517   1.909   7.018
10262TIP3   OH230721   2.438   1.921   6.615
10262TIP3    H130722   2.485   1.959   6.537
10262TIP3    H230723   2.379   1.996   6.636
10263TIP3   OH230724   3.606   2.637   7.209
10263TIP3    H130725   3.638   2.565   7.150
10263TIP3    H230726   3.574   2.584   7.285
10264TIP3   OH230727   3.279   2.099   6.883
10264TIP3    H130728   3.197   2.098   6.937
10264TIP3    H230729   3.348   2.095   6.950
10265TIP3   OH230730   2.708   2.157   6.890
10265TIP3    H130731   2.614   2.163   6.862
10265TIP3    H230732   2.732   2.065   6.868
10266TIP3   OH230733   2.973   2.151   6.581
10266TIP3    H130734   3.067   2.166   6.560
10266TIP3    H230735   2.927   2.174   6.497
10267TIP3   OH230736   3.769   2.174   7.084
10267TIP3    H130737   3.737   2.188   7.177
10267TIP3    H230738   3.698   2.116   7.050
10268TIP3   OH230739   2.821   2.189   6.356
10268TIP3    H130740   2.751   2.142   6.307
10268TIP3    H230741   2.874   2.225   6.282
10269TIP3   OH230742   3.935   3.864   7.308
10269TIP3    H130743   3.932   3.880   7.211
10269TIP3    H230744   4.009   3.919   7.335
10270TIP3   OH230745   2.907   2.979   7.706
10270TIP3    H130746   2.982   3.008   7.761
10270TIP3    H230747   2.836   2.979   7.775
10271TIP3   OH230748   3.356   2.431   6.980
10271TIP3    H130749   3.429   2.391   6.931
10271TIP3    H230750   3.362   2.388   7.067
10272TIP3   OH230751   2.874   1.914   6.864
10272TIP3    H130752   2.838   1.837   6.913
10272TIP3    H230753   2.924   1.872   6.793
10273TIP3   OH230754   3.332   2.330   7.274
10273TIP3    H130755   3.242   2.367   7.286
10273TIP3    H230756   3.389   2.394   7.321
10274TIP3   OH230757   3.068   2.716   6.363
10274TIP3    H130758   2.995   2.650   6.352
10274TIP3    H230759   3.049   2.749   6.454
10275TIP3   OH230760   3.968   2.952   6.992
10275TIP3    H130761   3.992   3.003   6.912
10275TIP3    H230762   3.883   2.910   6.966
10276TIP3   OH230763   3.526   2.026   6.233
10276TIP3    H130764   3.429   2.007   6.241
10276TIP3    H230765   3.534   2.120   6.256
10277TIP3   OH230766   3.472   3.035   7.362
10277TIP3    H130767   3.488   3.004   7.452
10277TIP3    H230768   3.429   3.121   7.376
10278TIP3   OH230769   3.594   2.277   6.334
10278TIP3    H130770   3.691   2.281   6.348
10278TIP3    H230771   3.576   2.356   6.280
10279TIP3   OH230772   2.760   2.738   7.039
10279TIP3    H130773   2.802   2.709   6.955
10279TIP3    H230774   2.807   2.683   7.104
10280TIP3   OH230775   3.215   2.865   6.187
10280TIP3    H130776   3.166   2.951   6.192
10280TIP3    H230777   3.161   2.809   6.248
10281TIP3   OH230778   2.646   2.665   7.648
10281TIP3    H130779   2.683   2.657   7.738
10281TIP3    H230780   2.575   2.599   7.649
10282TIP3   OH230781   3.369   2.797   7.640
10282TIP3    H130782   3.311   2.719   7.630
10282TIP3    H230783   3.457   2.755   7.644
10283TIP3   OH230784   3.627   3.298   7.259
10283TIP3    H130785   3.531   3.293   7.272
10283TIP3    H230786   3.654   3.349   7.338
10284TIP3   OH230787   4.036   2.372   6.168
10284TIP3    H130788   3.975   2.326   6.105
10284TIP3    H230789   4.032   2.460   6.126
10285TIP3   OH230790   4.259   3.230   7.245
10285TIP3    H130791   4.161   3.222   7.238
10285TIP3    H230792   4.284   3.198   7.156
10286TIP3   OH230793   3.737   3.186   6.076
10286TIP3    H130794   3.713   3.115   6.137
10286TIP3    H230795   3.752   3.139   5.992
10287TIP3   OH230796   3.734   2.816   6.907
10287TIP3    H130797   3.641   2.791   6.922
10287TIP3    H230798   3.768   2.735   6.864
10288TIP3   OH230799   2.864   3.044   6.666
10288TIP3    H130800   2.862   3.124   6.611
10288TIP3    H230801   2.770   3.026   6.679
10289TIP3   OH230802   2.427   2.347   6.371
10289TIP3    H130803   2.473   2.430   6.393
10289TIP3    H230804   2.350   2.351   6.433
10290TIP3   OH230805   2.995   2.806   6.607
10290TIP3    H130806   2.963   2.896   6.627
10290TIP3    H230807   2.962   2.756   6.683
10291TIP3   OH230808   3.134   3.385   7.134
10291TIP3    H130809   3.178   3.457   7.084
10291TIP3    H230810   3.210   3.348   7.183
10292TIP3   OH230811   2.779   3.284   6.517
10292TIP3    H130812   2.695   3.291   6.565
10292TIP3    H230813   2.811   3.377   6.521
10293TIP3   OH230814   3.518   3.023   7.094
10293TIP3    H130815   3.507   3.022   7.192
10293TIP3    H230816   3.597   2.967   7.084
10294TIP3   OH230817   3.497   2.917   5.979
10294TIP3    H130818   3.552   2.891   6.057
10294TIP3    H230819   3.410   2.886   6.008
10295TIP3   OH230820   3.769   3.553   7.145
10295TIP3    H130821   3.690   3.495   7.140
10295TIP3    H230822   3.751   3.616   7.072
10296TIP3   OH230823   3.835   3.388   5.796
10296TIP3    H130824   3.874   3.463   5.747
10296TIP3    H230825   3.754   3.431   5.830
10297TIP3   OH230826   2.859   2.159   7.654
10297TIP3    H130827   2.765   2.159   7.677
10297TIP3    H230828   2.898   2.106   7.727
10298TIP3   OH230829   3.658   2.848   6.192
10298TIP3    H130830   3.648   2.781   6.263
10298TIP3    H230831   3.755   2.845   6.180
10299TIP3   OH230832   2.570   3.246   7.294
10299TIP3    H130833   2.624   3.173   7.329
10299TIP3    H230834   2.594   3.317   7.355
10300TIP3   OH230835   2.858   2.894   5.978
10300TIP3    H130836   2.873   2.802   5.951
10300TIP3    H230837   2.839   2.883   6.073
10301TIP3   OH230838   2.803   2.899   6.250
10301TIP3    H130839   2.878   2.871   6.304
10301TIP3    H230840   2.808   2.997   6.259
10302TIP3   OH230841   2.537   2.590   6.453
10302TIP3    H130842   2.472   2.635   6.510
10302TIP3    H230843   2.553   2.658   6.386
10303TIP3   OH230844   3.698   2.225   7.342
10303TIP3    H130845   3.771   2.267   7.389
10303TIP3    H230846   3.680   2.146   7.398
10304TIP3   OH230847   3.572   1.977   6.514
10304TIP3    H130848   3.559   1.999   6.419
10304TIP3    H230849   3.613   2.059   6.548
10305TIP3   OH230850   3.071   3.094   6.197
10305TIP3    H130851   2.985   3.121   6.233
10305TIP3    H230852   3.088   3.169   6.137
10306TIP3   OH230853   3.256   2.162   6.613
10306TIP3    H130854   3.321   2.233   6.596
10306TIP3    H230855   3.264   2.153   6.711
10307TIP3   OH230856   3.532   2.479   7.419
10307TIP3    H130857   3.552   2.535   7.496
10307TIP3    H230858   3.584   2.399   7.438
10308TIP3   OH230859   3.401   1.882   6.713
10308TIP3    H130860   3.392   1.961   6.770
10308TIP3    H230861   3.464   1.915   6.645
10309TIP3   OH230862   2.817   3.172   6.267
10309TIP3    H130863   2.788   3.243   6.205
10309TIP3    H230864   2.801   3.215   6.354
10310TIP3   OH230865   2.915   1.886   6.502
10310TIP3    H130866   2.914   1.975   6.541
10310TIP3    H230867   3.011   1.866   6.510
10311TIP3   OH230868   4.169   2.376   7.400
10311TIP3    H130869   4.071   2.378   7.410
10311TIP3    H230870   4.175   2.333   7.313
10312TIP3   OH230871   3.820   2.571   6.788
10312TIP3    H130872   3.743   2.512   6.800
10312TIP3    H230873   3.891   2.523   6.837
10313TIP3   OH230874   2.535   2.797   6.257
10313TIP3    H130875   2.607   2.862   6.266
10313TIP3    H230876   2.577   2.738   6.191
10314TIP3   OH230877   2.476   2.076   6.392
10314TIP3    H130878   2.478   2.174   6.389
10314TIP3    H230879   2.395   2.057   6.344
10315TIP3   OH230880   3.790   3.529   6.734
10315TIP3    H130881   3.747   3.576   6.659
10315TIP3    H230882   3.884   3.552   6.715
10316TIP3   OH230883   2.864   1.796   7.261
10316TIP3    H130884   2.834   1.763   7.174
10316TIP3    H230885   2.853   1.716   7.317
10317TIP3   OH230886   2.402   3.016   6.642
10317TIP3    H130887   2.338   3.045   6.708
10317TIP3    H230888   2.367   3.060   6.560
10318TIP3   OH230889   2.564   3.565   7.719
10318TIP3    H130890   2.650   3.562   7.767
10318TIP3    H230891   2.544   3.470   7.715
10319TIP3   OH230892   3.038   3.525   7.755
10319TIP3    H130893   3.131   3.501   7.769
10319TIP3    H230894   3.013   3.461   7.686
10320TIP3   OH230895   3.022   3.096   5.887
10320TIP3    H130896   2.968   3.024   5.926
10320TIP3    H230897   3.099   3.046   5.853
10321TIP3   OH230898   3.680   3.430   7.496
10321TIP3    H130899   3.675   3.359   7.564
10321TIP3    H230900   3.759   3.479   7.525
10322TIP3   OH230901   3.458   3.135   5.802
10322TIP3    H130902   3.499   3.070   5.862
10322TIP3    H230903   3.516   3.132   5.723
10323TIP3   OH230904   2.700   2.976   7.879
10323TIP3    H130905   2.710   2.887   7.916
10323TIP3    H230906   2.606   2.976   7.851
10324TIP3   OH230907   2.670   2.610   6.113
10324TIP3    H130908   2.727   2.580   6.186
10324TIP3    H230909   2.736   2.615   6.041
10325TIP3   OH230910   3.298   3.059   7.693
10325TIP3    H130911   3.254   3.075   7.607
10325TIP3    H230912   3.331   2.966   7.681
10326TIP3   OH230913   3.183   2.812   5.919
10326TIP3    H130914   3.185   2.825   6.016
10326TIP3    H230915   3.184   2.714   5.913
10327TIP3   OH230916   3.793   3.060   7.299
10327TIP3    H130917   3.866   3.106   7.254
10327TIP3    H230918   3.720   3.124   7.285
10328TIP3   OH230919   2.818   2.681   7.875
10328TIP3    H130920   2.908   2.652   7.851
10328TIP3    H230921   2.813   2.651   7.968
10329TIP3   OH230922   2.872   2.520   6.328
10329TIP3    H130923   2.849   2.480   6.414
10329TIP3    H230924   2.911   2.444   6.280
10330TIP3   OH230925   3.152   2.575   7.555
10330TIP3    H130926   3.076   2.637   7.561
10330TIP3    H230927   3.200   2.610   7.475
10331TIP3   OH230928   2.980   2.315   6.171
10331TIP3    H130929   2.955   2.321   6.077
10331TIP3    H230930   3.078   2.318   6.164
10332TIP3   OH230931   3.665   2.989   7.697
10332TIP3    H130932   3.736   2.946   7.648
10332TIP3    H230933   3.653   2.928   7.773
10333TIP3   OH230934   3.796   2.641   5.840
10333TIP3    H130935   3.778   2.596   5.755
10333TIP3    H230936   3.764   2.732   5.817
10334TIP3   OH230937   3.280   2.368   7.680
10334TIP3    H130938   3.276   2.290   7.621
10334TIP3    H230939   3.231   2.436   7.627
10335TIP3   OH230940   3.273   2.155   7.491
10335TIP3    H130941   3.300   2.201   7.409
10335TIP3    H230942   3.179   2.135   7.471
10336TIP3   OH230943   3.291   2.677   7.348
10336TIP3    H130944   3.381   2.705   7.324
10336TIP3    H230945   3.236   2.751   7.313
10337TIP3   OH230946   3.879   2.653   7.741
10337TIP3    H130947   3.931   2.574   7.759
10337TIP3    H230948   3.946   2.714   7.706
10338TIP3   OH230949   3.922   2.912   7.485
10338TIP3    H130950   3.863   2.968   7.427
10338TIP3    H230951   4.009   2.934   7.445
10339TIP3   OH230952   3.044   2.492   7.831
10339TIP3    H130953   3.033   2.410   7.882
10339TIP3    H230954   3.137   2.485   7.802
10340TIP3   OH230955   3.402   1.921   7.563
10340TIP3    H130956   3.354   2.003   7.536
10340TIP3    H230957   3.333   1.852   7.549
10341TIP3   OH230958   3.536   2.420   7.766
10341TIP3    H130959   3.517   2.412   7.861
10341TIP3    H230960   3.447   2.397   7.731
10342TIP3   OH230961   3.768   2.365   7.627
10342TIP3    H130962   3.692   2.375   7.688
10342TIP3    H230963   3.840   2.341   7.688
10343TIP3   OH230964   4.007   2.318   7.772
10343TIP3    H130965   4.013   2.221   7.790
10343TIP3    H230966   3.997   2.355   7.863
10344TIP3   OH230967   2.968   2.253   7.957
10344TIP3    H130968   2.988   2.163   7.925
10344TIP3    H230969   3.037   2.261   8.026
10345TIP3   OH230970   3.501   1.931   7.816
10345TIP3    H130971   3.563   1.858   7.797
10345TIP3    H230972   3.453   1.935   7.731
10346TIP3   OH230973   3.575   2.153   7.966
10346TIP3    H130974   3.549   2.071   7.918
10346TIP3    H230975   3.492   2.205   7.962
10347TIP3   OH230976   2.788   3.377   6.080
10347TIP3    H130977   2.883   3.366   6.060
10347TIP3    H230978   2.760   3.426   6.000
10348TIP3   OH230979   2.266   2.757   6.291
10348TIP3    H130980   2.361   2.778   6.278
10348TIP3    H230981   2.260   2.668   6.251
10349TIP3   OH230982   2.181   3.368   6.712
10349TIP3    H130983   2.115   3.306   6.673
10349TIP3    H230984   2.226   3.309   6.776
10350TIP3   OH230985   2.315   3.214   6.897
10350TIP3    H130986   2.306   3.143   6.964
10350TIP3    H230987   2.368   3.278   6.949
10351TIP3   OH230988   4.041   3.625   6.693
10351TIP3    H130989   4.073   3.661   6.777
10351TIP3    H230990   4.098   3.672   6.629
10352TIP3   OH230991   4.077   3.642   6.978
10352TIP3    H130992   4.027   3.558   6.968
10352TIP3    H230993   4.149   3.611   7.035
10353TIP3   OH230994   4.123   3.319   7.552
10353TIP3    H130995   4.048   3.325   7.616
10353TIP3    H230996   4.162   3.408   7.560
10354TIP3   OH230997   3.936   2.829   6.170
10354TIP3    H130998   4.003   2.894   6.140
10354TIP3    H230999   3.981   2.790   6.248
10355TIP3   OH231000   4.063   2.696   6.374
10355TIP3    H131001   3.996   2.654   6.432
10355TIP3    H231002   4.127   2.733   6.438
10356TIP3   OH231003   4.122   3.091   6.808
10356TIP3    H131004   4.172   3.024   6.758
10356TIP3    H231005   4.121   3.167   6.746
10357TIP3   OH231006   3.947   3.389   7.000
10357TIP3    H131007   3.875   3.432   7.050
10357TIP3    H231008   3.898   3.343   6.929
10358TIP3   OH231009   4.000   2.606   6.019
10358TIP3    H131010   3.927   2.606   5.953
10358TIP3    H231011   3.972   2.682   6.074
10359TIP3   OH231012   3.868   2.281   5.974
10359TIP3    H131013   3.826   2.309   5.892
10359TIP3    H231014   3.848   2.184   5.972
10360TIP3   OH231015   3.875   2.554   6.517
10360TIP3    H131016   3.883   2.458   6.510
10360TIP3    H231017   3.860   2.567   6.614
10361TIP3   OH231018   2.501   2.629   7.266
10361TIP3    H131019   2.499   2.593   7.175
10361TIP3    H231020   2.598   2.628   7.284
10362TIP3   OH231021   4.167   2.979   7.378
10362TIP3    H131022   4.238   2.912   7.366
10362TIP3    H231023   4.188   3.045   7.311
10363TIP3   OH231024   4.351   2.780   7.384
10363TIP3    H131025   4.275   2.732   7.424
10363TIP3    H231026   4.423   2.716   7.403
10364TIP3   OH231027   3.811   2.017   5.968
10364TIP3    H131028   3.890   1.979   6.011
10364TIP3    H231029   3.743   1.949   5.982
10365TIP3   OH231030   3.873   2.271   6.411
10365TIP3    H131031   3.914   2.183   6.426
10365TIP3    H231032   3.931   2.304   6.339
10366TIP3   OH231033   4.033   2.439   6.910
10366TIP3    H131034   4.119   2.464   6.868
10366TIP3    H231035   4.047   2.478   6.998
10367TIP3   OH231036   4.105   2.588   7.139
10367TIP3    H131037   4.028   2.621   7.189
10367TIP3    H231038   4.136   2.670   7.095
10368TIP3   OH231039   2.714   2.308   7.874
10368TIP3    H131040   2.812   2.316   7.873
10368TIP3    H231041   2.705   2.259   7.958
10369TIP3   OH231042   4.556   2.183   7.694
10369TIP3    H131043   4.615   2.117   7.652
10369TIP3    H231044   4.525   2.234   7.616
10370TIP3   OH231045   3.979   2.021   6.453
10370TIP3    H131046   4.028   2.003   6.536
10370TIP3    H231047   3.920   1.944   6.450
10371TIP3   OH231048   2.682   2.005   7.274
10371TIP3    H131049   2.745   1.930   7.278
10371TIP3    H231050   2.744   2.080   7.263
10372TIP3   OH231051   2.482   2.275   7.344
10372TIP3    H131052   2.533   2.275   7.260
10372TIP3    H231053   2.507   2.360   7.382
10373TIP3   OH231054   4.423   2.316   7.500
10373TIP3    H131055   4.337   2.359   7.519
10373TIP3    H231056   4.391   2.244   7.441
10374TIP3   OH231057   4.061   1.949   6.084
10374TIP3    H131058   4.098   1.879   6.026
10374TIP3    H231059   4.130   2.019   6.077
10375TIP3   OH231060   2.469   1.783   6.845
10375TIP3    H131061   2.377   1.778   6.874
10375TIP3    H231062   2.463   1.841   6.766
10376TIP3   OH231063   3.623   3.489   6.350
10376TIP3    H131064   3.678   3.476   6.270
10376TIP3    H231065   3.677   3.550   6.402
10377TIP3   OH231066   2.676   1.874   7.658
10377TIP3    H131067   2.587   1.863   7.694
10377TIP3    H231068   2.652   1.928   7.581
10378TIP3   OH231069   2.724   3.297   7.738
10378TIP3    H131070   2.633   3.267   7.722
10378TIP3    H231071   2.741   3.264   7.828
10379TIP3   OH231072   2.907   3.325   7.283
10379TIP3    H131073   2.860   3.402   7.245
10379TIP3    H231074   2.993   3.337   7.239
10380TIP3   OH231075   3.348   3.567   7.423
10380TIP3    H131076   3.390   3.565   7.511
10380TIP3    H231077   3.414   3.618   7.372
10381TIP3   OH231078   3.526   3.721   7.282
10381TIP3    H131079   3.595   3.670   7.238
10381TIP3    H231080   3.579   3.778   7.342
10382TIP3   OH231081   4.324   2.080   7.380
10382TIP3    H131082   4.235   2.072   7.342
10382TIP3    H231083   4.357   1.987   7.368
10383TIP3   OH231084   2.581   3.582   7.305
10383TIP3    H131085   2.491   3.616   7.286
10383TIP3    H231086   2.595   3.619   7.393
10384TIP3   OH231087   2.819   3.560   7.167
10384TIP3    H131088   2.731   3.571   7.211
10384TIP3    H231089   2.799   3.590   7.076
10385TIP3   OH231090   3.244   3.586   6.965
10385TIP3    H131091   3.174   3.605   6.900
10385TIP3    H231092   3.256   3.673   7.007
10386TIP3   OH231093   3.513   3.524   7.018
10386TIP3    H131094   3.420   3.543   6.996
10386TIP3    H231095   3.560   3.596   6.972
10387TIP3   OH231096   3.709   3.711   6.927
10387TIP3    H131097   3.704   3.799   6.884
10387TIP3    H231098   3.743   3.655   6.854
10388TIP3   OH231099   2.493   3.372   7.053
10388TIP3    H131100   2.521   3.344   7.143
10388TIP3    H231101   2.565   3.330   7.001
10389TIP3   OH231102   2.689   3.246   6.912
10389TIP3    H131103   2.702   3.161   6.960
10389TIP3    H231104   2.781   3.280   6.910
10390TIP3   OH231105   2.957   3.338   6.917
10390TIP3    H131106   2.985   3.245   6.907
10390TIP3    H231107   3.005   3.360   6.999
10391TIP3   OH231108   3.530   1.995   7.003
10391TIP3    H131109   3.488   1.923   7.052
10391TIP3    H231110   3.603   1.949   6.956
10392TIP3   OH231111   4.049   1.879   6.908
10392TIP3    H131112   4.086   1.929   6.831
10392TIP3    H231113   3.953   1.896   6.898
10393TIP3   OH231114   4.145   1.974   6.670
10393TIP3    H131115   4.218   1.922   6.630
10393TIP3    H231116   4.178   2.065   6.655
10394TIP3   OH231117   2.774   1.702   7.016
10394TIP3    H131118   2.682   1.668   7.018
10394TIP3    H231119   2.823   1.617   7.011
10395TIP3   OH231120   2.556   1.572   6.665
10395TIP3    H131121   2.594   1.626   6.593
10395TIP3    H231122   2.536   1.639   6.733
10396TIP3   OH231123   3.222   1.737   6.896
10396TIP3    H131124   3.279   1.784   6.833
10396TIP3    H231125   3.251   1.774   6.980
10397TIP3   OH231126   3.765   1.883   6.879
10397TIP3    H131127   3.766   1.844   6.791
10397TIP3    H231128   3.755   1.804   6.936
10398TIP3   OH231129   3.798   1.809   6.444
10398TIP3    H131130   3.712   1.850   6.459
10398TIP3    H231131   3.785   1.721   6.487
10399TIP3   OH231132   2.280   3.149   6.440
10399TIP3    H131133   2.195   3.115   6.407
10399TIP3    H231134   2.271   3.243   6.416
10400TIP3   OH231135   2.685   1.734   6.424
10400TIP3    H131136   2.732   1.668   6.370
10400TIP3    H231137   2.759   1.786   6.461
10401TIP3   OH231138   3.192   1.911   6.524
10401TIP3    H131139   3.251   1.861   6.584
10401TIP3    H231140   3.215   2.003   6.551
10402TIP3   OH231141   3.054   3.329   6.026
10402TIP3    H131142   3.142   3.352   5.989
10402TIP3    H231143   3.032   3.254   5.966
10403TIP3   OH231144   3.773   3.453   6.120
10403TIP3    H131145   3.765   3.355   6.108
10403TIP3    H231146   3.728   3.484   6.039
10404TIP3   OH231147   3.025   1.998   7.868
10404TIP3    H131148   3.018   1.939   7.946
10404TIP3    H231149   3.121   2.015   7.866
10405TIP3   OH231150   2.358   3.168   6.080
10405TIP3    H131151   2.363   3.185   6.175
10405TIP3    H231152   2.445   3.124   6.063
10406TIP3   OH231153   4.061   2.047   7.797
10406TIP3    H131154   4.090   2.024   7.888
10406TIP3    H231155   4.148   2.048   7.752
10407TIP3   OH231156   3.998   3.594   7.305
10407TIP3    H131157   3.920   3.562   7.255
10407TIP3    H231158   3.976   3.689   7.312
10408TIP3   OH231159   5.267   2.972   6.068
10408TIP3    H131160   5.234   3.062   6.045
10408TIP3    H231161   5.192   2.918   6.036
10409TIP3   OH231162   5.268   2.970   6.457
10409TIP3    H131163   5.301   2.941   6.544
10409TIP3    H231164   5.224   2.889   6.425
10410TIP3   OH231165   4.563   2.861   6.818
10410TIP3    H131166   4.593   2.792   6.880
10410TIP3    H231167   4.642   2.916   6.811
10411TIP3   OH231168   5.512   3.272   6.136
10411TIP3    H131169   5.491   3.203   6.200
10411TIP3    H231170   5.539   3.346   6.193
10412TIP3   OH231171   4.540   3.276   6.541
10412TIP3    H131172   4.529   3.179   6.542
10412TIP3    H231173   4.637   3.283   6.533
10413TIP3   OH231174   4.242   2.477   6.324
10413TIP3    H131175   4.190   2.558   6.341
10413TIP3    H231176   4.174   2.422   6.281
10414TIP3   OH231177   4.300   2.763   6.505
10414TIP3    H131178   4.349   2.685   6.538
10414TIP3    H231179   4.356   2.793   6.432
10415TIP3   OH231180   5.164   3.736   6.153
10415TIP3    H131181   5.205   3.664   6.102
10415TIP3    H231182   5.145   3.692   6.237
10416TIP3   OH231183   5.062   3.196   6.501
10416TIP3    H131184   5.100   3.119   6.456
10416TIP3    H231185   5.145   3.241   6.526
10417TIP3   OH231186   6.080   2.514   6.500
10417TIP3    H131187   6.108   2.598   6.541
10417TIP3    H231188   6.099   2.531   6.406
10418TIP3   OH231189   5.478   2.695   6.530
10418TIP3    H131190   5.518   2.608   6.550
10418TIP3    H231191   5.443   2.679   6.441
10419TIP3   OH231192   4.819   2.355   6.496
10419TIP3    H131193   4.795   2.427   6.433
10419TIP3    H231194   4.771   2.280   6.453
10420TIP3   OH231195   5.510   2.448   6.118
10420TIP3    H131196   5.582   2.433   6.184
10420TIP3    H231197   5.562   2.482   6.043
10421TIP3   OH231198   4.447   2.556   6.607
10421TIP3    H131199   4.530   2.535   6.653
10421TIP3    H231200   4.459   2.500   6.526
10422TIP3   OH231201   4.886   2.755   6.402
10422TIP3    H131202   4.980   2.729   6.414
10422TIP3    H231203   4.847   2.671   6.369
10423TIP3   OH231204   6.153   2.725   6.667
10423TIP3    H131205   6.067   2.769   6.648
10423TIP3    H231206   6.163   2.747   6.761
10424TIP3   OH231207   4.810   2.339   6.934
10424TIP3    H131208   4.751   2.374   6.865
10424TIP3    H231209   4.756   2.357   7.013
10425TIP3   OH231210   5.158   3.191   5.936
10425TIP3    H131211   5.112   3.171   5.853
10425TIP3    H231212   5.110   3.273   5.964
10426TIP3   OH231213   4.917   3.115   6.724
10426TIP3    H131214   4.855   3.183   6.760
10426TIP3    H231215   4.958   3.164   6.650
10427TIP3   OH231216   5.716   2.452   6.296
10427TIP3    H131217   5.698   2.406   6.379
10427TIP3    H231218   5.766   2.530   6.326
10428TIP3   OH231219   4.684   2.452   6.715
10428TIP3    H131220   4.746   2.525   6.738
10428TIP3    H231221   4.733   2.412   6.640
10429TIP3   OH231222   4.747   3.311   6.826
10429TIP3    H131223   4.721   3.397   6.788
10429TIP3    H231224   4.667   3.293   6.881
10430TIP3   OH231225   4.136   2.999   6.061
10430TIP3    H131226   4.095   3.026   5.976
10430TIP3    H231227   4.166   3.085   6.097
10431TIP3   OH231228   5.579   3.517   6.301
10431TIP3    H131229   5.490   3.507   6.341
10431TIP3    H231230   5.569   3.603   6.255
10432TIP3   OH231231   5.871   2.415   6.666
10432TIP3    H131232   5.783   2.440   6.633
10432TIP3    H231233   5.930   2.447   6.594
10433TIP3   OH231234   5.164   2.055   6.651
10433TIP3    H131235   5.148   1.960   6.666
10433TIP3    H231236   5.086   2.094   6.696
10434TIP3   OH231237   5.278   3.561   5.974
10434TIP3    H131238   5.328   3.478   5.955
10434TIP3    H231239   5.339   3.626   5.933
10435TIP3   OH231240   5.422   3.345   5.885
10435TIP3    H131241   5.376   3.267   5.853
10435TIP3    H231242   5.462   3.312   5.968
10436TIP3   OH231243   5.805   3.426   6.644
10436TIP3    H131244   5.791   3.348   6.586
10436TIP3    H231245   5.785   3.500   6.583
10437TIP3   OH231246   5.097   2.822   5.905
10437TIP3    H131247   5.015   2.872   5.886
10437TIP3    H231248   5.139   2.817   5.818
10438TIP3   OH231249   5.053   2.609   5.615
10438TIP3    H131250   5.122   2.658   5.664
10438TIP3    H231251   5.109   2.544   5.568
10439TIP3   OH231252   5.999   3.068   6.493
10439TIP3    H131253   5.914   3.117   6.496
10439TIP3    H231254   6.028   3.090   6.402
10440TIP3   OH231255   5.444   2.905   5.872
10440TIP3    H131256   5.389   2.929   5.950
10440TIP3    H231257   5.527   2.879   5.917
10441TIP3   OH231258   5.678   2.941   6.789
10441TIP3    H131259   5.673   3.025   6.838
10441TIP3    H231260   5.591   2.942   6.744
10442TIP3   OH231261   4.675   2.900   6.291
10442TIP3    H131262   4.633   2.842   6.224
10442TIP3    H231263   4.751   2.845   6.320
10443TIP3   OH231264   4.807   3.315   6.436
10443TIP3    H131265   4.784   3.277   6.350
10443TIP3    H231266   4.895   3.276   6.453
10444TIP3   OH231267   4.814   2.870   6.648
10444TIP3    H131268   4.843   2.847   6.557
10444TIP3    H231269   4.855   2.957   6.663
10445TIP3   OH231270   5.340   3.510   6.424
10445TIP3    H131271   5.324   3.588   6.480
10445TIP3    H231272   5.322   3.435   6.485
10446TIP3   OH231273   4.950   3.428   6.971
10446TIP3    H131274   4.888   3.490   7.015
10446TIP3    H231275   4.885   3.375   6.919
10447TIP3   OH231276   5.283   2.760   5.701
10447TIP3    H131277   5.342   2.821   5.751
10447TIP3    H231278   5.309   2.782   5.608
10448TIP3   OH231279   4.705   2.980   7.076
10448TIP3    H131280   4.709   3.069   7.116
10448TIP3    H231281   4.610   2.961   7.086
10449TIP3   OH231282   5.030   3.436   5.976
10449TIP3    H131283   5.110   3.492   5.986
10449TIP3    H231284   4.967   3.495   5.933
10450TIP3   OH231285   4.744   3.595   7.058
10450TIP3    H131286   4.710   3.596   6.966
10450TIP3    H231287   4.662   3.574   7.109
10451TIP3   OH231288   5.799   1.999   5.751
10451TIP3    H131289   5.717   2.020   5.800
10451TIP3    H231290   5.812   2.082   5.701
10452TIP3   OH231291   4.542   2.744   6.096
10452TIP3    H131292   4.472   2.788   6.042
10452TIP3    H231293   4.506   2.655   6.105
10453TIP3   OH231294   5.599   3.368   5.298
10453TIP3    H131295   5.606   3.464   5.283
10453TIP3    H231296   5.692   3.339   5.285
10454TIP3   OH231297   4.324   3.128   7.003
10454TIP3    H131298   4.255   3.110   6.935
10454TIP3    H231299   4.359   3.039   7.022
10455TIP3   OH231300   4.175   3.317   6.643
10455TIP3    H131301   4.270   3.323   6.624
10455TIP3    H231302   4.158   3.405   6.680
10456TIP3   OH231303   6.040   3.775   6.692
10456TIP3    H131304   6.040   3.678   6.706
10456TIP3    H231305   5.956   3.798   6.738
10457TIP3   OH231306   5.147   3.555   6.829
10457TIP3    H131307   5.143   3.648   6.860
10457TIP3    H231308   5.074   3.515   6.881
10458TIP3   OH231309   4.913   3.687   5.778
10458TIP3    H131310   4.862   3.666   5.698
10458TIP3    H231311   4.875   3.772   5.805
10459TIP3   OH231312   4.348   3.540   6.164
10459TIP3    H131313   4.396   3.530   6.250
10459TIP3    H231314   4.285   3.466   6.171
10460TIP3   OH231315   5.111   3.589   5.417
10460TIP3    H131316   5.168   3.518   5.381
10460TIP3    H231317   5.144   3.598   5.509
10461TIP3   OH231318   5.163   3.636   5.686
10461TIP3    H131319   5.074   3.647   5.725
10461TIP3    H231320   5.210   3.593   5.759
10462TIP3   OH231321   5.930   2.902   6.966
10462TIP3    H131322   5.847   2.912   6.918
10462TIP3    H231323   5.946   2.806   6.957
10463TIP3   OH231324   4.528   3.311   6.991
10463TIP3    H131325   4.577   3.291   7.073
10463TIP3    H231326   4.453   3.248   6.996
10464TIP3   OH231327   4.926   2.133   6.779
10464TIP3    H131328   4.838   2.102   6.749
10464TIP3    H231329   4.899   2.214   6.827
10465TIP3   OH231330   5.461   2.248   6.972
10465TIP3    H131331   5.530   2.219   7.036
10465TIP3    H231332   5.377   2.227   7.019
10466TIP3   OH231333   5.700   2.679   6.892
10466TIP3    H131334   5.648   2.676   6.976
10466TIP3    H231335   5.673   2.765   6.854
10467TIP3   OH231336   5.362   2.803   5.446
10467TIP3    H131337   5.325   2.781   5.358
10467TIP3    H231338   5.444   2.849   5.420
10468TIP3   OH231339   5.076   2.178   5.749
10468TIP3    H131340   5.038   2.176   5.839
10468TIP3    H231341   5.032   2.098   5.712
10469TIP3   OH231342   4.861   2.648   6.797
10469TIP3    H131343   4.808   2.667   6.877
10469TIP3    H231344   4.844   2.730   6.744
10470TIP3   OH231345   4.741   2.536   6.309
10470TIP3    H131346   4.649   2.509   6.328
10470TIP3    H231347   4.754   2.496   6.220
10471TIP3   OH231348   5.234   2.623   6.041
10471TIP3    H131349   5.182   2.693   5.996
10471TIP3    H231350   5.287   2.588   5.967
10472TIP3   OH231351   5.407   2.897   7.123
10472TIP3    H131352   5.383   2.824   7.184
10472TIP3    H231353   5.502   2.908   7.145
10473TIP3   OH231354   5.390   2.648   6.274
10473TIP3    H131355   5.326   2.674   6.204
10473TIP3    H231356   5.425   2.567   6.230
10474TIP3   OH231357   4.680   2.677   7.003
10474TIP3    H131358   4.700   2.741   7.072
10474TIP3    H231359   4.665   2.595   7.054
10475TIP3   OH231360   4.735   2.161   5.713
10475TIP3    H131361   4.722   2.154   5.809
10475TIP3    H231362   4.648   2.196   5.685
10476TIP3   OH231363   4.268   2.199   6.589
10476TIP3    H131364   4.347   2.229   6.637
10476TIP3    H231365   4.302   2.167   6.504
10477TIP3   OH231366   4.238   2.180   6.106
10477TIP3    H131367   4.284   2.212   6.025
10477TIP3    H231368   4.178   2.255   6.120
10478TIP3   OH231369   5.404   2.893   6.697
10478TIP3    H131370   5.436   2.822   6.637
10478TIP3    H231371   5.372   2.839   6.772
10479TIP3   OH231372   5.076   2.356   6.370
10479TIP3    H131373   4.992   2.355   6.421
10479TIP3    H231374   5.142   2.351   6.441
10480TIP3   OH231375   4.504   2.414   6.377
10480TIP3    H131376   4.409   2.422   6.349
10480TIP3    H231377   4.525   2.322   6.354
10481TIP3   OH231378   4.770   2.412   6.068
10481TIP3    H131379   4.863   2.424   6.041
10481TIP3    H231380   4.720   2.432   5.985
10482TIP3   OH231381   5.562   2.432   6.573
10482TIP3    H131382   5.529   2.445   6.665
10482TIP3    H231383   5.493   2.372   6.539
10483TIP3   OH231384   4.616   2.446   5.846
10483TIP3    H131385   4.546   2.395   5.802
10483TIP3    H231386   4.667   2.478   5.768
10484TIP3   OH231387   5.735   4.122   6.793
10484TIP3    H131388   5.731   4.144   6.698
10484TIP3    H231389   5.815   4.170   6.821
10485TIP3   OH231390   4.689   3.231   7.211
10485TIP3    H131391   4.768   3.262   7.261
10485TIP3    H231392   4.624   3.228   7.284
10486TIP3   OH231393   5.152   2.689   6.470
10486TIP3    H131394   5.222   2.644   6.420
10486TIP3    H231395   5.155   2.643   6.556
10487TIP3   OH231396   4.675   2.170   6.351
10487TIP3    H131397   4.636   2.094   6.399
10487TIP3    H231398   4.707   2.128   6.270
10488TIP3   OH231399   5.129   2.587   6.752
10488TIP3    H131400   5.037   2.618   6.770
10488TIP3    H231401   5.184   2.648   6.805
10489TIP3   OH231402   4.866   2.971   5.853
10489TIP3    H131403   4.794   2.906   5.841
10489TIP3    H231404   4.846   3.006   5.943
10490TIP3   OH231405   5.763   3.209   6.479
10490TIP3    H131406   5.787   3.259   6.398
10490TIP3    H231407   5.678   3.166   6.453
10491TIP3   OH231408   5.323   2.283   5.718
10491TIP3    H131409   5.227   2.261   5.727
10491TIP3    H231410   5.327   2.378   5.744
10492TIP3   OH231411   5.270   3.295   6.848
10492TIP3    H131412   5.288   3.271   6.940
10492TIP3    H231413   5.225   3.381   6.856
10493TIP3   OH231414   5.390   2.533   5.823
10493TIP3    H131415   5.486   2.540   5.835
10493TIP3    H231416   5.369   2.613   5.770
10494TIP3   OH231417   4.562   3.000   6.527
10494TIP3    H131418   4.598   2.969   6.441
10494TIP3    H231419   4.598   2.934   6.588
10495TIP3   OH231420   5.011   3.123   5.678
10495TIP3    H131421   4.962   3.209   5.681
10495TIP3    H231422   4.956   3.067   5.736
10496TIP3   OH231423   4.442   2.911   7.139
10496TIP3    H131424   4.452   2.895   7.235
10496TIP3    H231425   4.369   2.850   7.118
10497TIP3   OH231426   5.165   3.033   7.161
10497TIP3    H131427   5.102   2.973   7.117
10497TIP3    H231428   5.251   2.995   7.131
10498TIP3   OH231429   5.425   3.558   6.744
10498TIP3    H131430   5.329   3.550   6.758
10498TIP3    H231431   5.450   3.607   6.825
10499TIP3   OH231432   5.834   2.625   5.652
10499TIP3    H131433   5.772   2.580   5.590
10499TIP3    H231434   5.829   2.715   5.613
10500TIP3   OH231435   6.054   3.487   6.732
10500TIP3    H131436   5.957   3.478   6.724
10500TIP3    H231437   6.081   3.454   6.643
10501TIP3   OH231438   5.541   3.443   5.566
10501TIP3    H131439   5.507   3.375   5.627
10501TIP3    H231440   5.548   3.394   5.481
10502TIP3   OH231441   5.531   3.072   6.396
10502TIP3    H131442   5.438   3.046   6.410
10502TIP3    H231443   5.564   2.991   6.352
10503TIP3   OH231444   4.660   3.301   6.154
10503TIP3    H131445   4.655   3.381   6.099
10503TIP3    H231446   4.566   3.284   6.171
10504TIP3   OH231447   4.223   2.603   5.859
10504TIP3    H131448   4.269   2.687   5.882
10504TIP3    H231449   4.146   2.607   5.920
10505TIP3   OH231450   4.794   3.065   6.096
10505TIP3    H131451   4.758   3.154   6.114
10505TIP3    H231452   4.756   3.014   6.170
10506TIP3   OH231453   4.931   3.642   6.622
10506TIP3    H131454   4.972   3.715   6.571
10506TIP3    H231455   5.008   3.606   6.668
10507TIP3   OH231456   4.577   3.537   6.005
10507TIP3    H131457   4.491   3.546   6.051
10507TIP3    H231458   4.608   3.630   6.007
10508TIP3   OH231459   5.315   3.278   6.580
10508TIP3    H131460   5.305   3.278   6.678
10508TIP3    H231461   5.391   3.219   6.568
10509TIP3   OH231462   5.293   3.174   5.463
10509TIP3    H131463   5.345   3.148   5.542
10509TIP3    H231464   5.205   3.142   5.488
10510TIP3   OH231465   5.565   3.809   6.633
10510TIP3    H131466   5.487   3.751   6.629
10510TIP3    H231467   5.546   3.871   6.559
10511TIP3   OH231468   5.629   3.644   5.281
10511TIP3    H131469   5.661   3.718   5.227
10511TIP3    H231470   5.549   3.686   5.319
10512TIP3   OH231471   4.647   2.422   7.146
10512TIP3    H131472   4.550   2.425   7.157
10512TIP3    H231473   4.672   2.363   7.219
10513TIP3   OH231474   5.454   3.103   5.676
10513TIP3    H131475   5.442   3.038   5.748
10513TIP3    H231476   5.551   3.100   5.666
10514TIP3   OH231477   4.376   3.503   6.789
10514TIP3    H131478   4.423   3.429   6.831
10514TIP3    H231479   4.404   3.578   6.843
10515TIP3   OH231480   4.658   3.150   5.464
10515TIP3    H131481   4.668   3.057   5.437
10515TIP3    H231482   4.636   3.140   5.559
10516TIP3   OH231483   4.600   3.156   5.734
10516TIP3    H131484   4.671   3.128   5.794
10516TIP3    H231485   4.603   3.254   5.744
10517TIP3   OH231486   4.335   2.848   5.941
10517TIP3    H131487   4.268   2.893   5.997
10517TIP3    H231488   4.347   2.916   5.872
10518TIP3   OH231489   5.490   2.486   6.833
10518TIP3    H131490   5.571   2.521   6.873
10518TIP3    H231491   5.475   2.404   6.886
10519TIP3   OH231492   5.372   2.232   6.000
10519TIP3    H131493   5.354   2.254   5.906
10519TIP3    H231494   5.410   2.315   6.034
10520TIP3   OH231495   4.870   3.354   5.685
10520TIP3    H131496   4.782   3.377   5.721
10520TIP3    H231497   4.881   3.426   5.621
10521TIP3   OH231498   5.058   2.417   6.100
10521TIP3    H131499   5.120   2.491   6.084
10521TIP3    H231500   5.061   2.410   6.198
10522TIP3   OH231501   5.326   2.732   6.904
10522TIP3    H131502   5.350   2.784   6.984
10522TIP3    H231503   5.379   2.651   6.914
10523TIP3   OH231504   5.199   2.139   6.202
10523TIP3    H131505   5.185   2.220   6.255
10523TIP3    H231506   5.261   2.172   6.133
10524TIP3   OH231507   4.615   3.429   5.754
10524TIP3    H131508   4.584   3.498   5.692
10524TIP3    H231509   4.597   3.470   5.841
10525TIP3   OH231510   4.715   2.143   5.988
10525TIP3    H131511   4.710   2.233   6.026
10525TIP3    H231512   4.811   2.127   5.995
10526TIP3   OH231513   5.965   2.634   6.885
10526TIP3    H131514   5.868   2.636   6.896
10526TIP3    H231515   5.971   2.583   6.802
10527TIP3   OH231516   5.616   2.828   6.275
10527TIP3    H131517   5.539   2.770   6.286
10527TIP3    H231518   5.686   2.779   6.324
10528TIP3   OH231519   4.330   3.053   5.744
10528TIP3    H131520   4.399   3.121   5.752
10528TIP3    H231521   4.373   2.995   5.677
10529TIP3   OH231522   4.272   2.332   5.881
10529TIP3    H131523   4.267   2.429   5.872
10529TIP3    H231524   4.197   2.302   5.827
10530TIP3   OH231525   5.585   3.789   6.224
10530TIP3    H131526   5.542   3.836   6.149
10530TIP3    H231527   5.680   3.806   6.202
10531TIP3   OH231528   4.663   2.052   6.749
10531TIP3    H131529   4.631   2.019   6.662
10531TIP3    H231530   4.650   1.974   6.806
10532TIP3   OH231531   4.193   3.263   6.129
10532TIP3    H131532   4.137   3.301   6.199
10532TIP3    H231533   4.161   3.311   6.049
10533TIP3   OH231534   4.356   3.810   7.204
10533TIP3    H131535   4.445   3.795   7.240
10533TIP3    H231536   4.323   3.719   7.198
10534TIP3   OH231537   4.838   3.774   7.247
10534TIP3    H131538   4.931   3.748   7.252
10534TIP3    H231539   4.807   3.714   7.175
10535TIP3   OH231540   4.820   3.352   5.374
10535TIP3    H131541   4.764   3.281   5.413
10535TIP3    H231542   4.894   3.299   5.340
10536TIP3   OH231543   5.475   3.687   6.983
10536TIP3    H131544   5.469   3.615   7.050
10536TIP3    H231545   5.554   3.737   7.013
10537TIP3   OH231546   5.256   3.392   5.290
10537TIP3    H131547   5.292   3.323   5.349
10537TIP3    H231548   5.314   3.386   5.211
10538TIP3   OH231549   4.488   3.223   7.403
10538TIP3    H131550   4.503   3.126   7.409
10538TIP3    H231551   4.400   3.225   7.359
10539TIP3   OH231552   4.467   2.868   5.598
10539TIP3    H131553   4.522   2.836   5.671
10539TIP3    H231554   4.534   2.873   5.527
10540TIP3   OH231555   5.095   3.309   7.177
10540TIP3    H131556   5.051   3.327   7.091
10540TIP3    H231557   5.124   3.215   7.166
10541TIP3   OH231558   4.986   3.071   5.407
10541TIP3    H131559   4.982   3.082   5.504
10541TIP3    H231560   4.984   2.973   5.401
10542TIP3   OH231561   5.589   3.318   6.787
10542TIP3    H131562   5.662   3.364   6.741
10542TIP3    H231563   5.516   3.379   6.771
10543TIP3   OH231564   4.608   2.962   7.388
10543TIP3    H131565   4.681   2.905   7.361
10543TIP3    H231566   4.637   2.991   7.477
10544TIP3   OH231567   4.673   2.776   5.818
10544TIP3    H131568   4.643   2.734   5.900
10544TIP3    H231569   4.709   2.699   5.768
10545TIP3   OH231570   4.946   2.843   7.052
10545TIP3    H131571   4.865   2.898   7.051
10545TIP3    H231572   4.993   2.876   6.972
10546TIP3   OH231573   4.775   2.572   5.658
10546TIP3    H131574   4.749   2.576   5.563
10546TIP3    H231575   4.873   2.574   5.649
10547TIP3   OH231576   5.462   3.242   7.181
10547TIP3    H131577   5.536   3.207   7.129
10547TIP3    H231578   5.454   3.176   7.252
10548TIP3   OH231579   5.596   2.898   5.325
10548TIP3    H131580   5.574   2.853   5.241
10548TIP3    H231581   5.562   2.989   5.303
10549TIP3   OH231582   5.067   2.629   7.171
10549TIP3    H131583   5.066   2.551   7.113
10549TIP3    H231584   5.023   2.697   7.115
10550TIP3   OH231585   5.069   2.416   6.980
10550TIP3    H131586   5.096   2.455   6.895
10550TIP3    H231587   4.976   2.392   6.962
10551TIP3   OH231588   5.093   2.952   6.855
10551TIP3    H131589   5.176   2.960   6.808
10551TIP3    H231590   5.035   3.016   6.808
10552TIP3   OH231591   5.675   2.915   7.232
10552TIP3    H131592   5.720   2.830   7.244
10552TIP3    H231593   5.745   2.970   7.195
10553TIP3   OH231594   5.717   3.171   6.973
10553TIP3    H131595   5.660   3.225   6.914
10553TIP3    H231596   5.805   3.190   6.933
10554TIP3   OH231597   4.947   2.734   7.407
10554TIP3    H131598   4.878   2.666   7.421
10554TIP3    H231599   4.978   2.710   7.317
10555TIP3   OH231600   5.200   2.178   7.051
10555TIP3    H131601   5.151   2.259   7.026
10555TIP3    H231602   5.131   2.109   7.038
10556TIP3   OH231603   5.326   2.679   7.264
10556TIP3    H131604   5.309   2.664   7.359
10556TIP3    H231605   5.237   2.656   7.229
10557TIP3   OH231606   5.565   2.633   7.121
10557TIP3    H131607   5.489   2.632   7.182
10557TIP3    H231608   5.638   2.600   7.177
10558TIP3   OH231609   5.799   2.574   7.267
10558TIP3    H131610   5.810   2.477   7.282
10558TIP3    H231611   5.791   2.609   7.358
10559TIP3   OH231612   4.784   2.515   7.460
10559TIP3    H131613   4.787   2.424   7.426
10559TIP3    H231614   4.821   2.502   7.550
10560TIP3   OH231615   5.293   2.187   7.309
10560TIP3    H131616   5.359   2.116   7.302
10560TIP3    H231617   5.253   2.183   7.220
10561TIP3   OH231618   5.361   2.401   7.465
10561TIP3    H131619   5.339   2.330   7.402
10561TIP3    H231620   5.282   2.459   7.459
10562TIP3   OH231621   4.584   3.633   5.567
10562TIP3    H131622   4.679   3.624   5.545
10562TIP3    H231623   4.553   3.682   5.489
10563TIP3   OH231624   4.061   3.013   5.778
10563TIP3    H131625   4.156   3.033   5.765
10563TIP3    H231626   4.055   2.924   5.737
10564TIP3   OH231627   3.975   3.626   6.196
10564TIP3    H131628   3.909   3.563   6.159
10564TIP3    H231629   4.023   3.568   6.259
10565TIP3   OH231630   4.112   3.463   6.370
10565TIP3    H131631   4.091   3.399   6.440
10565TIP3    H231632   4.166   3.526   6.423
10566TIP3   OH231633   5.842   3.874   6.183
10566TIP3    H131634   5.869   3.905   6.272
10566TIP3    H231635   5.908   3.916   6.126
10567TIP3   OH231636   5.870   3.895   6.466
10567TIP3    H131637   5.822   3.810   6.460
10567TIP3    H231638   5.943   3.867   6.524
10568TIP3   OH231639   5.915   3.573   7.038
10568TIP3    H131640   5.843   3.581   7.103
10568TIP3    H231641   5.957   3.661   7.043
10569TIP3   OH231642   5.733   3.084   5.656
10569TIP3    H131643   5.800   3.149   5.628
10569TIP3    H231644   5.777   3.045   5.736
10570TIP3   OH231645   5.860   2.952   5.861
10570TIP3    H131646   5.793   2.909   5.919
10570TIP3    H231647   5.923   2.988   5.926
10571TIP3   OH231648   5.917   3.348   6.294
10571TIP3    H131649   5.969   3.279   6.247
10571TIP3    H231650   5.909   3.418   6.226
10572TIP3   OH231651   5.743   3.647   6.486
10572TIP3    H131652   5.670   3.687   6.538
10572TIP3    H231653   5.694   3.600   6.415
10573TIP3   OH231654   5.797   2.861   5.506
10573TIP3    H131655   5.724   2.863   5.439
10573TIP3    H231656   5.769   2.936   5.562
10574TIP3   OH231657   5.670   2.531   5.457
10574TIP3    H131658   5.619   2.568   5.383
10574TIP3    H231659   5.647   2.436   5.449
10575TIP3   OH231660   5.672   2.810   6.005
10575TIP3    H131661   5.678   2.713   5.997
10575TIP3    H231662   5.657   2.823   6.101
10576TIP3   OH231663   4.297   2.879   6.756
10576TIP3    H131664   4.293   2.847   6.663
10576TIP3    H231665   4.395   2.882   6.770
10577TIP3   OH231666   5.962   3.235   6.865
10577TIP3    H131667   6.033   3.167   6.853
10577TIP3    H231668   5.986   3.301   6.798
10578TIP3   OH231669   6.146   3.036   6.872
10578TIP3    H131670   6.070   2.988   6.911
10578TIP3    H231671   6.218   2.972   6.890
10579TIP3   OH231672   5.612   2.265   5.440
10579TIP3    H131673   5.680   2.233   5.502
10579TIP3    H231674   5.533   2.211   5.463
10580TIP3   OH231675   5.670   2.527   5.898
10580TIP3    H131676   5.711   2.439   5.914
10580TIP3    H231677   5.727   2.560   5.827
10581TIP3   OH231678   5.829   2.695   6.396
10581TIP3    H131679   5.914   2.721   6.355
10581TIP3    H231680   5.843   2.734   6.485
10582TIP3   OH231681   5.901   2.844   6.626
10582TIP3    H131682   5.824   2.877   6.675
10582TIP3    H231683   5.933   2.926   6.582
10583TIP3   OH231684   4.517   2.569   7.431
10583TIP3    H131685   4.615   2.562   7.433
10583TIP3    H231686   4.492   2.482   7.468
10584TIP3   OH231687   6.353   2.439   7.182
10584TIP3    H131688   6.411   2.373   7.139
10584TIP3    H231689   6.321   2.491   7.104
10585TIP3   OH231690   5.778   2.277   5.937
10585TIP3    H131691   5.824   2.259   6.022
10585TIP3    H231692   5.716   2.201   5.935
10586TIP3   OH231693   4.479   2.261   6.760
10586TIP3    H131694   4.541   2.186   6.767
10586TIP3    H231695   4.541   2.336   6.750
10587TIP3   OH231696   4.279   2.534   6.832
10587TIP3    H131697   4.327   2.528   6.747
10587TIP3    H231698   4.305   2.622   6.862
10588TIP3   OH231699   6.219   2.572   6.985
10588TIP3    H131700   6.133   2.614   7.004
10588TIP3    H231701   6.189   2.498   6.929
10589TIP3   OH231702   5.856   2.208   5.575
10589TIP3    H131703   5.895   2.138   5.517
10589TIP3    H231704   5.922   2.279   5.569
10590TIP3   OH231705   4.265   2.050   6.340
10590TIP3    H131706   4.171   2.036   6.359
10590TIP3    H231707   4.262   2.100   6.256
10591TIP3   OH231708   5.426   3.744   5.840
10591TIP3    H131709   5.476   3.730   5.756
10591TIP3    H231710   5.480   3.811   5.884
10592TIP3   OH231711   4.485   2.118   7.147
10592TIP3    H131712   4.432   2.115   7.229
10592TIP3    H231713   4.420   2.157   7.085
10593TIP3   OH231714   4.523   3.554   7.228
10593TIP3    H131715   4.431   3.528   7.206
10593TIP3    H231716   4.532   3.520   7.318
10594TIP3   OH231717   4.707   3.582   6.775
10594TIP3    H131718   4.653   3.654   6.735
10594TIP3    H231719   4.790   3.599   6.727
10595TIP3   OH231720   5.144   3.822   6.909
10595TIP3    H131721   5.186   3.822   6.997
10595TIP3    H231722   5.209   3.874   6.857
10596TIP3   OH231723   5.322   3.978   6.770
10596TIP3    H131724   5.390   3.925   6.726
10596TIP3    H231725   5.377   4.033   6.829
10597TIP3   OH231726   6.120   2.334   6.867
10597TIP3    H131727   6.030   2.323   6.834
10597TIP3    H231728   6.155   2.242   6.857
10598TIP3   OH231729   4.392   3.825   6.796
10598TIP3    H131730   4.334   3.861   6.723
10598TIP3    H231731   4.344   3.860   6.871
10599TIP3   OH231732   4.624   3.818   6.653
10599TIP3    H131733   4.541   3.825   6.705
10599TIP3    H231734   4.592   3.847   6.565
10600TIP3   OH231735   5.040   3.841   6.451
10600TIP3    H131736   4.967   3.857   6.388
10600TIP3    H231737   5.049   3.930   6.492
10601TIP3   OH231738   5.308   3.784   6.506
10601TIP3    H131739   5.214   3.797   6.485
10601TIP3    H231740   5.350   3.856   6.456
10602TIP3   OH231741   5.520   3.976   6.416
10602TIP3    H131742   5.502   4.058   6.367
10602TIP3    H231743   5.543   3.914   6.344
10603TIP3   OH231744   4.284   3.592   6.542
10603TIP3    H131745   4.318   3.577   6.632
10603TIP3    H231746   4.364   3.574   6.489
10604TIP3   OH231747   4.494   3.501   6.392
10604TIP3    H131748   4.506   3.418   6.444
10604TIP3    H231749   4.585   3.537   6.391
10605TIP3   OH231750   4.759   3.596   6.400
10605TIP3    H131751   4.787   3.503   6.391
10605TIP3    H231752   4.802   3.617   6.485
10606TIP3   OH231753   5.328   2.252   6.494
10606TIP3    H131754   5.283   2.181   6.542
10606TIP3    H231755   5.397   2.204   6.445
10607TIP3   OH231756   5.846   2.135   6.391
10607TIP3    H131757   5.881   2.186   6.315
10607TIP3    H231758   5.750   2.151   6.384
10608TIP3   OH231759   5.943   2.231   6.154
10608TIP3    H131760   6.017   2.179   6.116
10608TIP3    H231761   5.976   2.322   6.140
10609TIP3   OH231762   4.572   1.960   6.503
10609TIP3    H131763   4.480   1.928   6.503
10609TIP3    H231764   4.620   1.874   6.497
10610TIP3   OH231765   4.367   1.824   6.162
10610TIP3    H131766   4.404   1.874   6.085
10610TIP3    H231767   4.338   1.897   6.220
10611TIP3   OH231768   5.023   1.989   6.383
10611TIP3    H131769   5.079   2.039   6.321
10611TIP3    H231770   5.044   2.031   6.468
10612TIP3   OH231771   5.564   2.140   6.366
10612TIP3    H131772   5.560   2.099   6.278
10612TIP3    H231773   5.553   2.061   6.424
10613TIP3   OH231774   5.595   2.065   5.931
10613TIP3    H131775   5.509   2.108   5.947
10613TIP3    H231776   5.580   1.978   5.975
10614TIP3   OH231777   4.079   3.404   5.929
10614TIP3    H131778   3.993   3.373   5.895
10614TIP3    H231779   4.071   3.499   5.909
10615TIP3   OH231780   4.478   1.962   5.953
10615TIP3    H131781   4.451   1.961   5.858
10615TIP3    H231782   4.555   2.021   5.952
10616TIP3   OH231783   4.991   2.168   6.011
10616TIP3    H131784   5.046   2.118   6.072
10616TIP3    H231785   5.013   2.260   6.038
10617TIP3   OH231786   4.851   3.586   5.512
10617TIP3    H131787   4.938   3.610   5.474
10617TIP3    H231788   4.828   3.511   5.452
10618TIP3   OH231789   5.573   3.710   5.606
10618TIP3    H131790   5.565   3.612   5.595
10618TIP3    H231791   5.523   3.741   5.528
10619TIP3   OH231792   4.780   2.242   7.396
10619TIP3    H131793   4.746   2.170   7.452
10619TIP3    H231794   4.875   2.241   7.422
10620TIP3   OH231795   5.031   2.239   7.513
10620TIP3    H131796   5.116   2.213   7.472
10620TIP3    H231797   5.018   2.168   7.579
10621TIP3   OH231798   4.154   3.425   5.567
10621TIP3    H131799   4.156   3.444   5.662
10621TIP3    H231800   4.241   3.382   5.553
10622TIP3   OH231801   5.857   2.303   7.296
10622TIP3    H131802   5.874   2.272   7.388
10622TIP3    H231803   5.946   2.297   7.257
10623TIP3   OH231804   5.792   3.851   6.793
10623TIP3    H131805   5.714   3.820   6.743
10623TIP3    H231806   5.771   3.946   6.799
10624TIP3   OH231807   7.063   3.227   5.555
10624TIP3    H131808   7.032   3.318   5.533
10624TIP3    H231809   6.987   3.175   5.524
10625TIP3   OH231810   7.060   3.227   5.946
10625TIP3    H131811   7.096   3.201   6.033
10625TIP3    H231812   7.020   3.143   5.916
10626TIP3   OH231813   6.358   3.117   6.305
10626TIP3    H131814   6.387   3.049   6.368
10626TIP3    H231815   6.438   3.170   6.298
10627TIP3   OH231816   7.307   3.530   5.624
10627TIP3    H131817   7.290   3.460   5.688
10627TIP3    H231818   7.336   3.604   5.680
10628TIP3   OH231819   6.334   3.532   6.028
10628TIP3    H131820   6.324   3.434   6.028
10628TIP3    H231821   6.430   3.539   6.022
10629TIP3   OH231822   6.039   2.733   5.810
10629TIP3    H131823   5.988   2.815   5.829
10629TIP3    H231824   5.969   2.679   5.769
10630TIP3   OH231825   6.096   3.020   5.992
10630TIP3    H131826   6.146   2.942   6.026
10630TIP3    H231827   6.154   3.051   5.921
10631TIP3   OH231828   6.958   3.990   5.640
10631TIP3    H131829   7.000   3.918   5.588
10631TIP3    H231830   6.947   3.948   5.726
10632TIP3   OH231831   6.858   3.452   5.988
10632TIP3    H131832   6.899   3.374   5.946
10632TIP3    H231833   6.941   3.499   6.013
10633TIP3   OH231834   7.880   2.771   5.979
10633TIP3    H131835   7.906   2.854   6.024
10633TIP3    H231836   7.907   2.790   5.887
10634TIP3   OH231837   7.272   2.953   6.017
10634TIP3    H131838   7.315   2.868   6.039
10634TIP3    H231839   7.239   2.934   5.927
10635TIP3   OH231840   6.613   2.612   5.984
10635TIP3    H131841   6.592   2.684   5.921
10635TIP3    H231842   6.564   2.538   5.941
10636TIP3   OH231843   7.306   2.703   5.605
10636TIP3    H131844   7.378   2.688   5.672
10636TIP3    H231845   7.360   2.738   5.531
10637TIP3   OH231846   6.244   2.813   6.093
10637TIP3    H131847   6.327   2.792   6.141
10637TIP3    H231848   6.256   2.757   6.013
10638TIP3   OH231849   6.683   3.011   5.889
10638TIP3    H131850   6.777   2.986   5.901
10638TIP3    H231851   6.644   2.927   5.856
10639TIP3   OH231852   7.949   2.981   6.150
10639TIP3    H131853   7.860   3.021   6.135
10639TIP3    H231854   7.960   3.002   6.245
10640TIP3   OH231855   6.607   2.595   6.420
10640TIP3    H131856   6.547   2.632   6.352
10640TIP3    H231857   6.553   2.613   6.501
10641TIP3   OH231858   6.952   3.447   5.425
10641TIP3    H131859   6.908   3.428   5.340
10641TIP3    H231860   6.905   3.529   5.452
10642TIP3   OH231861   6.713   3.372   6.211
10642TIP3    H131862   6.652   3.440   6.247
10642TIP3    H231863   6.756   3.420   6.137
10643TIP3   OH231864   7.510   2.709   5.785
10643TIP3    H131865   7.493   2.669   5.871
10643TIP3    H231866   7.564   2.787   5.810
10644TIP3   OH231867   6.479   2.710   6.203
10644TIP3    H131868   6.541   2.783   6.226
10644TIP3    H231869   6.529   2.669   6.128
10645TIP3   OH231870   6.543   3.568   6.312
10645TIP3    H131871   6.516   3.655   6.275
10645TIP3    H231872   6.464   3.550   6.367
10646TIP3   OH231873   5.934   3.257   5.547
10646TIP3    H131874   5.890   3.283   5.464
10646TIP3    H231875   5.964   3.343   5.582
10647TIP3   OH231876   7.373   3.773   5.787
10647TIP3    H131877   7.283   3.763   5.827
10647TIP3    H231878   7.364   3.860   5.743
10648TIP3   OH231879   7.690   2.700   6.175
10648TIP3    H131880   7.599   2.690   6.144
10648TIP3    H231881   7.739   2.713   6.091
10649TIP3   OH231882   6.954   2.314   6.129
10649TIP3    H131883   6.943   2.220   6.152
10649TIP3    H231884   6.879   2.353   6.178
10650TIP3   OH231885   7.072   3.817   5.458
10650TIP3    H131886   7.123   3.734   5.440
10650TIP3    H231887   7.134   3.882   5.418
10651TIP3   OH231888   7.218   3.602   5.372
10651TIP3    H131889   7.175   3.521   5.340
10651TIP3    H231890   7.257   3.570   5.456
10652TIP3   OH231891   7.598   3.683   6.131
10652TIP3    H131892   7.586   3.605   6.072
10652TIP3    H231893   7.581   3.757   6.069
10653TIP3   OH231894   6.892   3.077   5.391
10653TIP3    H131895   6.811   3.129   5.370
10653TIP3    H231896   6.938   3.074   5.305
10654TIP3   OH231897   6.850   2.866   5.101
10654TIP3    H131898   6.917   2.915   5.151
10654TIP3    H231899   6.907   2.802   5.054
10655TIP3   OH231900   7.794   3.324   5.978
10655TIP3    H131901   7.710   3.374   5.983
10655TIP3    H231902   7.824   3.346   5.887
10656TIP3   OH231903   7.240   3.161   5.358
10656TIP3    H131904   7.186   3.185   5.437
10656TIP3    H231905   7.324   3.134   5.403
10657TIP3   OH231906   7.473   3.197   6.277
10657TIP3    H131907   7.471   3.281   6.328
10657TIP3    H231908   7.387   3.201   6.231
10658TIP3   OH231909   6.472   3.156   5.778
10658TIP3    H131910   6.431   3.097   5.710
10658TIP3    H231911   6.548   3.102   5.809
10659TIP3   OH231912   6.603   3.571   5.924
10659TIP3    H131913   6.582   3.531   5.838
10659TIP3    H231914   6.692   3.534   5.942
10660TIP3   OH231915   6.606   3.128   6.133
10660TIP3    H131916   6.640   3.103   6.044
10660TIP3    H231917   6.651   3.214   6.150
10661TIP3   OH231918   7.133   3.767   5.910
10661TIP3    H131919   7.120   3.845   5.966
10661TIP3    H231920   7.118   3.692   5.972
10662TIP3   OH231921   6.746   3.685   6.457
10662TIP3    H131922   6.685   3.747   6.503
10662TIP3    H231923   6.682   3.632   6.406
10663TIP3   OH231924   7.077   3.019   5.188
10663TIP3    H131925   7.138   3.078   5.238
10663TIP3    H231926   7.104   3.041   5.095
10664TIP3   OH231927   6.501   3.239   6.561
10664TIP3    H131928   6.505   3.327   6.603
10664TIP3    H231929   6.406   3.218   6.573
10665TIP3   OH231930   6.825   3.694   5.461
10665TIP3    H131931   6.907   3.746   5.471
10665TIP3    H231932   6.764   3.758   5.423
10666TIP3   OH231933   6.539   3.852   6.544
10666TIP3    H131934   6.505   3.852   6.453
10666TIP3    H231935   6.458   3.830   6.596
10667TIP3   OH231936   7.595   2.256   5.238
10667TIP3    H131937   7.513   2.279   5.287
10667TIP3    H231938   7.609   2.338   5.186
10668TIP3   OH231939   6.340   3.000   5.580
10668TIP3    H131940   6.269   3.043   5.527
10668TIP3    H231941   6.302   2.913   5.595
10669TIP3   OH231942   7.394   3.624   4.785
10669TIP3    H131943   7.403   3.721   4.771
10669TIP3    H231944   7.487   3.595   4.771
10670TIP3   OH231945   6.119   3.385   6.490
10670TIP3    H131946   6.051   3.364   6.423
10670TIP3    H231947   6.156   3.297   6.511
10671TIP3   OH231948   5.973   3.578   6.118
10671TIP3    H131949   6.069   3.571   6.113
10671TIP3    H231950   5.962   3.655   6.176
10672TIP3   OH231951   7.836   4.030   6.179
10672TIP3    H131952   7.837   3.933   6.195
10672TIP3    H231953   7.753   4.054   6.226
10673TIP3   OH231954   6.942   3.814   6.314
10673TIP3    H131955   6.939   3.907   6.346
10673TIP3    H231956   6.871   3.773   6.367
10674TIP3   OH231957   6.707   3.942   5.265
10674TIP3    H131958   6.657   3.925   5.184
10674TIP3    H231959   6.673   4.029   5.293
10675TIP3   OH231960   6.144   3.790   5.650
10675TIP3    H131961   6.188   3.780   5.737
10675TIP3    H231962   6.092   3.707   5.647
10676TIP3   OH231963   6.905   3.844   4.903
10676TIP3    H131964   6.963   3.773   4.868
10676TIP3    H231965   6.940   3.854   4.995
10677TIP3   OH231966   6.958   3.893   5.172
10677TIP3    H131967   6.870   3.902   5.215
10677TIP3    H231968   7.009   3.854   5.245
10678TIP3   OH231969   7.726   3.156   6.454
10678TIP3    H131970   7.644   3.166   6.403
10678TIP3    H231971   7.745   3.061   6.441
10679TIP3   OH231972   6.324   3.568   6.476
10679TIP3    H131973   6.373   3.550   6.558
10679TIP3    H231974   6.249   3.504   6.483
10680TIP3   OH231975   6.722   2.390   6.266
10680TIP3    H131976   6.633   2.359   6.237
10680TIP3    H231977   6.695   2.470   6.315
10681TIP3   OH231978   7.259   2.500   6.452
10681TIP3    H131979   7.330   2.469   6.513
10681TIP3    H231980   7.177   2.479   6.501
10682TIP3   OH231981   7.495   2.936   6.379
10682TIP3    H131982   7.443   2.933   6.463
10682TIP3    H231983   7.470   3.022   6.341
10683TIP3   OH231984   7.155   3.063   4.932
10683TIP3    H131985   7.122   3.038   4.844
10683TIP3    H231986   7.240   3.104   4.908
10684TIP3   OH231987   6.867   2.437   5.235
10684TIP3    H131988   6.834   2.435   5.327
10684TIP3    H231989   6.828   2.355   5.201
10685TIP3   OH231990   6.656   2.906   6.282
10685TIP3    H131991   6.604   2.925   6.364
10685TIP3    H231992   6.639   2.987   6.230
10686TIP3   OH231993   6.537   2.793   5.796
10686TIP3    H131994   6.445   2.765   5.815
10686TIP3    H231995   6.550   2.751   5.707
10687TIP3   OH231996   7.029   2.877   5.526
10687TIP3    H131997   6.978   2.948   5.481
10687TIP3    H231998   7.084   2.844   5.453
10688TIP3   OH231999   7.203   3.154   6.609
10688TIP3    H132000   7.180   3.080   6.671
10688TIP3    H232001   7.298   3.165   6.631
10689TIP3   OH232002   7.185   2.903   5.761
10689TIP3    H132003   7.122   2.929   5.690
10689TIP3    H232004   7.221   2.822   5.718
10690TIP3   OH232005   6.474   2.933   6.490
10690TIP3    H132006   6.502   2.996   6.559
10690TIP3    H232007   6.461   2.851   6.541
10691TIP3   OH232008   6.525   2.413   5.200
10691TIP3    H132009   6.514   2.411   5.298
10691TIP3    H232010   6.447   2.465   5.174
10692TIP3   OH232011   6.067   2.455   6.071
10692TIP3    H132012   6.142   2.487   6.125
10692TIP3    H232013   6.108   2.423   5.990
10693TIP3   OH232014   6.033   2.436   5.589
10693TIP3    H132015   6.078   2.474   5.511
10693TIP3    H232016   5.971   2.509   5.610
10694TIP3   OH232017   7.195   3.150   6.183
10694TIP3    H132018   7.229   3.079   6.123
10694TIP3    H232019   7.166   3.096   6.259
10695TIP3   OH232020   6.869   2.614   5.856
10695TIP3    H132021   6.789   2.613   5.912
10695TIP3    H232022   6.940   2.605   5.921
10696TIP3   OH232023   6.300   2.671   5.863
10696TIP3    H132024   6.206   2.679   5.836
10696TIP3    H232025   6.322   2.579   5.841
10697TIP3   OH232026   6.565   2.664   5.556
10697TIP3    H132027   6.659   2.680   5.534
10697TIP3    H232028   6.518   2.687   5.472
10698TIP3   OH232029   7.354   2.690   6.058
10698TIP3    H132030   7.324   2.702   6.151
10698TIP3    H232031   7.287   2.629   6.025
10699TIP3   OH232032   6.415   2.702   5.331
10699TIP3    H132033   6.344   2.655   5.284
10699TIP3    H232034   6.466   2.737   5.256
10700TIP3   OH232035   7.531   4.379   6.280
10700TIP3    H132036   7.529   4.403   6.185
10700TIP3    H232037   7.611   4.426   6.310
10701TIP3   OH232038   6.484   3.490   6.698
10701TIP3    H132039   6.564   3.518   6.746
10701TIP3    H232040   6.420   3.486   6.771
10702TIP3   OH232041   6.948   2.945   5.955
10702TIP3    H132042   7.020   2.903   5.907
10702TIP3    H232043   6.952   2.900   6.042
10703TIP3   OH232044   6.467   2.428   5.838
10703TIP3    H132045   6.431   2.351   5.887
10703TIP3    H232046   6.513   2.385   5.765
10704TIP3   OH232047   6.924   2.843   6.240
10704TIP3    H132048   6.834   2.877   6.258
10704TIP3    H232049   6.981   2.903   6.293
10705TIP3   OH232050   6.661   3.229   5.337
10705TIP3    H132051   6.589   3.163   5.326
10705TIP3    H232052   6.642   3.263   5.428
10706TIP3   OH232053   7.559   3.467   5.965
10706TIP3    H132054   7.584   3.516   5.884
10706TIP3    H232055   7.475   3.423   5.939
10707TIP3   OH232056   7.119   2.539   5.205
10707TIP3    H132057   7.022   2.521   5.214
10707TIP3    H232058   7.126   2.634   5.230
10708TIP3   OH232059   7.061   3.549   6.335
10708TIP3    H132060   7.090   3.528   6.425
10708TIP3    H232061   7.022   3.637   6.345
10709TIP3   OH232062   7.186   2.790   5.308
10709TIP3    H132063   7.283   2.795   5.322
10709TIP3    H232064   7.169   2.869   5.255
10710TIP3   OH232065   6.357   3.256   6.012
10710TIP3    H132066   6.395   3.225   5.928
10710TIP3    H232067   6.396   3.194   6.075
10711TIP3   OH232068   6.806   3.379   5.160
10711TIP3    H132069   6.757   3.464   5.165
10711TIP3    H232070   6.752   3.323   5.221
10712TIP3   OH232071   6.236   3.170   6.627
10712TIP3    H132072   6.251   3.154   6.723
10712TIP3    H232073   6.166   3.106   6.608
10713TIP3   OH232074   6.962   3.289   6.648
10713TIP3    H132075   6.901   3.229   6.602
10713TIP3    H232076   7.049   3.252   6.620
10714TIP3   OH232077   7.219   3.812   6.232
10714TIP3    H132078   7.123   3.808   6.245
10714TIP3    H232079   7.247   3.862   6.311
10715TIP3   OH232080   7.628   2.882   5.140
10715TIP3    H132081   7.565   2.838   5.078
10715TIP3    H232082   7.625   2.971   5.100
10716TIP3   OH232083   7.848   3.741   6.219
10716TIP3    H132084   7.751   3.732   6.211
10716TIP3    H232085   7.875   3.710   6.130
10717TIP3   OH232086   7.333   3.700   5.051
10717TIP3    H132087   7.304   3.631   5.114
10717TIP3    H232088   7.343   3.651   4.968
10718TIP3   OH232089   7.326   3.330   5.880
10718TIP3    H132090   7.233   3.304   5.895
10718TIP3    H232091   7.361   3.248   5.838
10719TIP3   OH232092   6.456   3.557   5.640
10719TIP3    H132093   6.452   3.638   5.585
10719TIP3    H232094   6.362   3.538   5.653
10720TIP3   OH232095   6.021   2.859   5.348
10720TIP3    H132096   6.065   2.944   5.369
10720TIP3    H232097   5.943   2.864   5.407
10721TIP3   OH232098   6.588   3.321   5.581
10721TIP3    H132099   6.554   3.410   5.601
10721TIP3    H232100   6.554   3.269   5.656
10722TIP3   OH232101   6.727   3.898   6.108
10722TIP3    H132102   6.769   3.971   6.057
10722TIP3    H232103   6.803   3.862   6.155
10723TIP3   OH232104   6.373   3.796   5.491
10723TIP3    H132105   6.288   3.803   5.538
10723TIP3    H232106   6.405   3.889   5.495
10724TIP3   OH232107   7.111   3.536   6.067
10724TIP3    H132108   7.100   3.534   6.165
10724TIP3    H232109   7.189   3.479   6.056
10725TIP3   OH232110   7.090   3.431   4.951
10725TIP3    H132111   7.144   3.404   5.029
10725TIP3    H232112   7.003   3.399   4.980
10726TIP3   OH232113   7.361   4.065   6.119
10726TIP3    H132114   7.282   4.008   6.115
10726TIP3    H232115   7.343   4.128   6.046
10727TIP3   OH232116   7.426   3.900   4.769
10727TIP3    H132117   7.464   3.975   4.719
10727TIP3    H232118   7.346   3.944   4.804
10728TIP3   OH232119   6.443   2.679   6.633
10728TIP3    H132120   6.346   2.682   6.644
10728TIP3    H232121   6.470   2.620   6.706
10729TIP3   OH232122   7.250   3.359   5.163
10729TIP3    H132123   7.239   3.294   5.235
10729TIP3    H232124   7.348   3.357   5.153
10730TIP3   OH232125   6.164   3.760   6.266
10730TIP3    H132126   6.216   3.686   6.300
10730TIP3    H232127   6.191   3.831   6.326
10731TIP3   OH232128   6.449   3.407   4.950
10731TIP3    H132129   6.463   3.315   4.924
10731TIP3    H232130   6.431   3.397   5.046
10732TIP3   OH232131   6.396   3.413   5.222
10732TIP3    H132132   6.468   3.383   5.279
10732TIP3    H232133   6.401   3.510   5.233
10733TIP3   OH232134   6.131   3.104   5.427
10733TIP3    H132135   6.064   3.149   5.484
10733TIP3    H232136   6.143   3.173   5.359
10734TIP3   OH232137   7.285   2.744   6.321
10734TIP3    H132138   7.369   2.778   6.355
10734TIP3    H232139   7.274   2.660   6.371
10735TIP3   OH232140   7.167   2.489   5.487
10735TIP3    H132141   7.153   2.512   5.393
10735TIP3    H232142   7.207   2.571   5.523
10736TIP3   OH232143   6.664   3.609   5.170
10736TIP3    H132144   6.577   3.633   5.207
10736TIP3    H232145   6.681   3.688   5.115
10737TIP3   OH232146   6.849   2.675   5.586
10737TIP3    H132147   6.914   2.746   5.570
10737TIP3    H232148   6.856   2.664   5.684
10738TIP3   OH232149   7.123   2.987   6.390
10738TIP3    H132150   7.149   3.037   6.470
10738TIP3    H232151   7.177   2.907   6.397
10739TIP3   OH232152   6.995   2.392   5.686
10739TIP3    H132153   6.992   2.468   5.747
10739TIP3    H232154   7.058   2.427   5.617
10740TIP3   OH232155   6.410   3.686   5.241
10740TIP3    H132156   6.379   3.756   5.180
10740TIP3    H232157   6.393   3.727   5.328
10741TIP3   OH232158   6.509   2.398   5.476
10741TIP3    H132159   6.505   2.488   5.515
10741TIP3    H232160   6.605   2.382   5.484
10742TIP3   OH232161   7.761   2.890   6.372
10742TIP3    H132162   7.664   2.895   6.383
10742TIP3    H232163   7.762   2.827   6.297
10743TIP3   OH232164   7.412   3.086   5.761
10743TIP3    H132165   7.336   3.026   5.774
10743TIP3    H232166   7.483   3.039   5.810
10744TIP3   OH232167   6.128   3.310   5.231
10744TIP3    H132168   6.201   3.374   5.241
10744TIP3    H232169   6.170   3.251   5.164
10745TIP3   OH232170   6.069   2.588   5.363
10745TIP3    H132171   6.068   2.686   5.363
10745TIP3    H232172   5.984   2.568   5.321
10746TIP3   OH232173   7.381   4.044   5.709
10746TIP3    H132174   7.339   4.091   5.634
10746TIP3    H232175   7.476   4.062   5.689
10747TIP3   OH232176   6.458   2.309   6.235
10747TIP3    H132177   6.427   2.275   6.149
10747TIP3    H232178   6.447   2.231   6.294
10748TIP3   OH232179   5.994   3.532   5.615
10748TIP3    H132180   5.930   3.559   5.682
10748TIP3    H232181   5.957   3.574   5.534
10749TIP3   OH232182   6.155   4.075   6.690
10749TIP3    H132183   6.242   4.073   6.736
10749TIP3    H232184   6.133   3.981   6.688
10750TIP3   OH232185   6.633   4.031   6.734
10750TIP3    H132186   6.727   4.010   6.741
10750TIP3    H232187   6.606   3.970   6.662
10751TIP3   OH232188   6.613   3.607   4.857
10751TIP3    H132189   6.557   3.538   4.899
10751TIP3    H232190   6.691   3.554   4.833
10752TIP3   OH232191   7.271   3.943   6.469
10752TIP3    H132192   7.265   3.872   6.537
10752TIP3    H232193   7.350   3.992   6.499
10753TIP3   OH232194   7.051   3.647   4.776
10753TIP3    H132195   7.088   3.581   4.838
10753TIP3    H232196   7.112   3.643   4.700
10754TIP3   OH232197   6.284   3.479   6.890
10754TIP3    H132198   6.300   3.383   6.896
10754TIP3    H232199   6.196   3.481   6.845
10755TIP3   OH232200   6.264   3.125   5.086
10755TIP3    H132201   6.319   3.092   5.159
10755TIP3    H232202   6.331   3.129   5.014
10756TIP3   OH232203   6.890   3.564   6.664
10756TIP3    H132204   6.849   3.583   6.577
10756TIP3    H232205   6.922   3.472   6.654
10757TIP3   OH232206   6.776   3.327   4.891
10757TIP3    H132207   6.777   3.339   4.988
10757TIP3    H232208   6.777   3.229   4.885
10758TIP3   OH232209   7.384   3.576   6.272
10758TIP3    H132210   7.459   3.618   6.227
10758TIP3    H232211   7.314   3.642   6.255
10759TIP3   OH232212   6.404   3.218   6.874
10759TIP3    H132213   6.478   3.161   6.847
10759TIP3    H232214   6.433   3.247   6.963
10760TIP3   OH232215   6.467   3.033   5.303
10760TIP3    H132216   6.440   2.994   5.388
10760TIP3    H232217   6.504   2.956   5.256
10761TIP3   OH232218   6.739   3.096   6.536
10761TIP3    H132219   6.660   3.155   6.536
10761TIP3    H232220   6.789   3.131   6.458
10762TIP3   OH232221   6.572   2.828   5.145
10762TIP3    H132222   6.546   2.833   5.050
10762TIP3    H232223   6.670   2.831   5.137
10763TIP3   OH232224   7.257   3.498   6.666
10763TIP3    H132225   7.335   3.467   6.618
10763TIP3    H232226   7.251   3.433   6.738
10764TIP3   OH232227   7.389   3.155   4.812
10764TIP3    H132228   7.370   3.109   4.728
10764TIP3    H232229   7.355   3.245   4.789
10765TIP3   OH232230   6.862   2.885   6.659
10765TIP3    H132231   6.863   2.807   6.601
10765TIP3    H232232   6.818   2.952   6.602
10766TIP3   OH232233   6.865   2.673   6.467
10766TIP3    H132234   6.893   2.712   6.382
10766TIP3    H232235   6.772   2.649   6.449
10767TIP3   OH232236   6.888   3.206   6.342
10767TIP3    H132237   6.973   3.215   6.298
10767TIP3    H232238   6.833   3.272   6.294
10768TIP3   OH232239   7.473   3.171   6.720
10768TIP3    H132240   7.516   3.084   6.727
10768TIP3    H232241   7.543   3.226   6.683
10769TIP3   OH232242   7.512   3.428   6.458
10769TIP3    H132243   7.456   3.483   6.399
10769TIP3    H232244   7.601   3.447   6.419
10770TIP3   OH232245   6.742   2.991   6.893
10770TIP3    H132246   6.673   2.923   6.908
10770TIP3    H232247   6.774   2.967   6.804
10771TIP3   OH232248   6.996   2.434   6.539
10771TIP3    H132249   6.948   2.516   6.514
10771TIP3    H232250   6.926   2.366   6.526
10772TIP3   OH232251   7.121   2.937   6.752
10772TIP3    H132252   7.106   2.922   6.847
10772TIP3    H232253   7.032   2.913   6.718
10773TIP3   OH232254   7.361   2.892   6.608
10773TIP3    H132255   7.285   2.889   6.671
10773TIP3    H232256   7.435   2.861   6.664
10774TIP3   OH232257   7.592   2.837   6.755
10774TIP3    H132258   7.603   2.740   6.763
10774TIP3    H232259   7.588   2.866   6.848
10775TIP3   OH232260   6.580   2.772   6.947
10775TIP3    H132261   6.583   2.680   6.913
10775TIP3    H232262   6.617   2.759   7.037
10776TIP3   OH232263   7.089   2.442   6.797
10776TIP3    H132264   7.158   2.373   6.787
10776TIP3    H232265   7.050   2.440   6.707
10777TIP3   OH232266   7.156   2.659   6.951
10777TIP3    H132267   7.135   2.587   6.887
10777TIP3    H232268   7.077   2.717   6.943
10778TIP3   OH232269   6.381   3.891   5.053
10778TIP3    H132270   6.475   3.879   5.033
10778TIP3    H232271   6.353   3.939   4.973
10779TIP3   OH232272   5.858   3.271   5.264
10779TIP3    H132273   5.953   3.290   5.252
10779TIP3    H232274   5.851   3.181   5.224
10780TIP3   OH232275   5.775   3.881   5.683
10780TIP3    H132276   5.708   3.820   5.645
10780TIP3    H232277   5.819   3.821   5.748
10781TIP3   OH232278   5.909   3.727   5.870
10781TIP3    H132279   5.895   3.657   5.936
10781TIP3    H232280   5.960   3.790   5.923
10782TIP3   OH232281   7.637   4.131   5.670
10782TIP3    H132282   7.663   4.162   5.759
10782TIP3    H232283   7.703   4.174   5.614
10783TIP3   OH232284   7.666   4.151   5.953
10783TIP3    H132285   7.619   4.065   5.948
10783TIP3    H232286   7.738   4.126   6.012
10784TIP3   OH232287   7.710   3.830   6.524
10784TIP3    H132288   7.639   3.839   6.590
10784TIP3    H232289   7.754   3.917   6.530
10785TIP3   OH232290   7.529   3.341   5.143
10785TIP3    H132291   7.597   3.406   5.115
10785TIP3    H232292   7.572   3.303   5.223
10786TIP3   OH232293   7.655   3.210   5.349
10786TIP3    H132294   7.589   3.167   5.407
10786TIP3    H232295   7.720   3.245   5.414
10787TIP3   OH232296   7.711   3.604   5.778
10787TIP3    H132297   7.766   3.536   5.734
10787TIP3    H232298   7.706   3.674   5.711
10788TIP3   OH232299   7.539   3.903   5.971
10788TIP3    H132300   7.467   3.943   6.025
10788TIP3    H232301   7.489   3.855   5.902
10789TIP3   OH232302   7.593   3.119   4.992
10789TIP3    H132303   7.519   3.119   4.926
10789TIP3    H232304   7.565   3.194   5.048
10790TIP3   OH232305   7.460   2.793   4.947
10790TIP3    H132306   7.420   2.822   4.864
10790TIP3    H232307   7.439   2.697   4.944
10791TIP3   OH232308   7.467   3.067   5.491
10791TIP3    H132309   7.475   2.970   5.485
10791TIP3    H232310   7.453   3.080   5.588
10792TIP3   OH232311   6.093   3.139   6.242
10792TIP3    H132312   6.090   3.105   6.150
10792TIP3    H232313   6.190   3.140   6.257
10793TIP3   OH232314   7.758   3.492   6.351
10793TIP3    H132315   7.828   3.424   6.341
10793TIP3    H232316   7.786   3.559   6.287
10794TIP3   OH232317   7.940   3.294   6.362
10794TIP3    H132318   7.866   3.242   6.400
10794TIP3    H232319   8.014   3.231   6.376
10795TIP3   OH232320   7.403   2.530   4.940
10795TIP3    H132321   7.479   2.492   4.988
10795TIP3    H232322   7.332   2.464   4.954
10796TIP3   OH232323   7.465   2.784   5.384
10796TIP3    H132324   7.506   2.695   5.400
10796TIP3    H232325   7.523   2.816   5.313
10797TIP3   OH232326   7.624   2.954   5.881
10797TIP3    H132327   7.710   2.980   5.840
10797TIP3    H232328   7.639   2.988   5.971
10798TIP3   OH232329   7.697   3.101   6.111
10798TIP3    H132330   7.620   3.134   6.162
10798TIP3    H232331   7.730   3.183   6.068
10799TIP3   OH232332   6.314   2.827   6.919
10799TIP3    H132333   6.411   2.819   6.921
10799TIP3    H232334   6.289   2.739   6.955
10800TIP3   OH232335   8.188   2.700   6.656
10800TIP3    H132336   8.197   2.613   6.611
10800TIP3    H232337   8.132   2.747   6.590
10801TIP3   OH232338   7.573   2.534   5.424
10801TIP3    H132339   7.622   2.518   5.508
10801TIP3    H232340   7.513   2.457   5.423
10802TIP3   OH232341   6.275   2.518   6.244
10802TIP3    H132342   6.336   2.443   6.253
10802TIP3    H232343   6.337   2.593   6.237
10803TIP3   OH232344   6.074   2.790   6.317
10803TIP3    H132345   6.124   2.786   6.233
10803TIP3    H232346   6.104   2.876   6.352
10804TIP3   OH232347   8.012   2.820   6.484
10804TIP3    H132348   7.927   2.868   6.495
10804TIP3    H232349   7.982   2.751   6.421
10805TIP3   OH232350   7.651   2.463   5.059
10805TIP3    H132351   7.689   2.394   5.001
10805TIP3    H232352   7.718   2.534   5.054
10806TIP3   OH232353   6.060   2.295   5.819
10806TIP3    H132354   5.967   2.289   5.847
10806TIP3    H232355   6.054   2.353   5.741
10807TIP3   OH232356   7.218   4.001   5.324
10807TIP3    H132357   7.272   3.989   5.243
10807TIP3    H232358   7.271   4.065   5.374
10808TIP3   OH232359   6.281   2.375   6.633
10808TIP3    H132360   6.229   2.369   6.715
10808TIP3    H232361   6.215   2.414   6.572
10809TIP3   OH232362   6.318   3.808   6.709
10809TIP3    H132363   6.226   3.781   6.692
10809TIP3    H232364   6.330   3.782   6.801
10810TIP3   OH232365   6.500   3.839   6.259
10810TIP3    H132366   6.452   3.915   6.219
10810TIP3    H232367   6.586   3.852   6.213
10811TIP3   OH232368   6.939   4.081   6.395
10811TIP3    H132369   6.982   4.079   6.484
10811TIP3    H232370   7.006   4.132   6.344
10812TIP3   OH232371   7.119   4.234   6.256
10812TIP3    H132372   7.189   4.182   6.214
10812TIP3    H232373   7.173   4.291   6.316
10813TIP3   OH232374   7.906   2.598   6.351
10813TIP3    H132375   7.818   2.598   6.308
10813TIP3    H232376   7.934   2.504   6.341
10814TIP3   OH232377   6.174   4.095   6.280
10814TIP3    H132378   6.084   4.127   6.258
10814TIP3    H232379   6.184   4.132   6.369
10815TIP3   OH232380   6.411   4.073   6.141
10815TIP3    H132381   6.323   4.085   6.185
10815TIP3    H232382   6.391   4.104   6.050
10816TIP3   OH232383   6.836   4.098   5.938
10816TIP3    H132384   6.765   4.116   5.873
10816TIP3    H232385   6.847   4.186   5.980
10817TIP3   OH232386   7.105   4.039   5.991
10817TIP3    H132387   7.011   4.055   5.971
10817TIP3    H232388   7.149   4.112   5.945
10818TIP3   OH232389   7.311   4.229   5.903
10818TIP3    H132390   7.297   4.313   5.855
10818TIP3    H232391   7.337   4.169   5.830
10819TIP3   OH232392   6.086   3.886   6.026
10819TIP3    H132393   6.112   3.857   6.116
10819TIP3    H232394   6.158   3.844   5.974
10820TIP3   OH232395   6.281   3.759   5.885
10820TIP3    H132396   6.295   3.675   5.935
10820TIP3    H232397   6.373   3.794   5.882
10821TIP3   OH232398   6.549   3.851   5.890
10821TIP3    H132399   6.578   3.758   5.879
10821TIP3    H232400   6.597   3.873   5.972
10822TIP3   OH232401   7.116   2.507   5.969
10822TIP3    H132402   7.077   2.435   6.022
10822TIP3    H232403   7.193   2.464   5.928
10823TIP3   OH232404   7.640   2.383   5.873
10823TIP3    H132405   7.678   2.438   5.801
10823TIP3    H232406   7.547   2.413   5.874
10824TIP3   OH232407   7.739   2.491   5.640
10824TIP3    H132408   7.813   2.438   5.604
10824TIP3    H232409   7.773   2.582   5.625
10825TIP3   OH232410   6.369   2.215   5.988
10825TIP3    H132411   6.277   2.182   5.991
10825TIP3    H232412   6.418   2.130   5.984
10826TIP3   OH232413   6.161   2.088   5.640
10826TIP3    H132414   6.187   2.146   5.566
10826TIP3    H232415   6.131   2.154   5.707
10827TIP3   OH232416   6.817   2.247   5.871
10827TIP3    H132417   6.872   2.296   5.808
10827TIP3    H232418   6.845   2.284   5.956
10828TIP3   OH232419   7.352   2.401   5.851
10828TIP3    H132420   7.362   2.361   5.764
10828TIP3    H232421   7.341   2.321   5.908
10829TIP3   OH232422   7.391   2.322   5.417
10829TIP3    H132423   7.305   2.366   5.434
10829TIP3    H232424   7.376   2.235   5.461
10830TIP3   OH232425   5.874   3.661   5.410
10830TIP3    H132426   5.787   3.628   5.380
10830TIP3    H232427   5.864   3.756   5.388
10831TIP3   OH232428   6.276   2.246   5.399
10831TIP3    H132429   6.324   2.183   5.343
10831TIP3    H232430   6.350   2.300   5.436
10832TIP3   OH232431   6.786   2.424   5.499
10832TIP3    H132432   6.846   2.378   5.561
10832TIP3    H232433   6.805   2.517   5.524
10833TIP3   OH232434   6.645   3.841   4.998
10833TIP3    H132435   6.734   3.864   4.962
10833TIP3    H232436   6.624   3.765   4.939
10834TIP3   OH232437   7.367   3.967   5.093
10834TIP3    H132438   7.359   3.869   5.082
10834TIP3    H232439   7.320   3.998   5.013
10835TIP3   OH232440   6.577   2.498   6.882
10835TIP3    H132441   6.542   2.426   6.939
10835TIP3    H232442   6.671   2.498   6.909
10836TIP3   OH232443   6.827   2.495   7.000
10836TIP3    H132444   6.912   2.469   6.960
10836TIP3    H232445   6.815   2.425   7.067
10837TIP3   OH232446   5.948   3.685   5.058
10837TIP3    H132447   5.943   3.703   5.154
10837TIP3    H232448   6.036   3.643   5.050
10838TIP3   OH232449   7.644   2.564   6.768
10838TIP3    H132450   7.658   2.534   6.860
10838TIP3    H232451   7.735   2.557   6.732
10839TIP3   OH232452   7.589   4.109   6.279
10839TIP3    H132453   7.510   4.078   6.230
10839TIP3    H232454   7.569   4.204   6.286
10840TIP3   OH232455   8.154   3.372   5.791
10840TIP3    H132456   8.177   3.302   5.855
10840TIP3    H232457   8.226   3.435   5.807
10841TIP3   OH232458   8.125   3.789   5.514
10841TIP3    H132459   8.117   3.691   5.515
10841TIP3    H232460   8.221   3.798   5.517
10842TIP3   OH232461   7.834   2.991   5.295
10842TIP3    H132462   7.783   3.072   5.315
10842TIP3    H232463   7.764   2.935   5.258
10843TIP3   OH232464   7.892   3.276   5.478
10843TIP3    H132465   7.941   3.198   5.514
10843TIP3    H232466   7.949   3.302   5.404
10844TIP3   OH232467   8.759   4.206   5.105
10844TIP3    H132468   8.855   4.183   5.107
10844TIP3    H232469   8.742   4.218   5.200
10845TIP3   OH232470   8.659   3.701   5.475
10845TIP3    H132471   8.676   3.668   5.386
10845TIP3    H232472   8.739   3.756   5.494
10846TIP3   OH232473   8.382   2.870   5.484
10846TIP3    H132474   8.393   2.936   5.413
10846TIP3    H232475   8.347   2.794   5.434
10847TIP3   OH232476   8.041   3.071   5.578
10847TIP3    H132477   8.121   3.049   5.630
10847TIP3    H232478   8.056   3.015   5.499
10848TIP3   OH232479   8.467   3.270   5.367
10848TIP3    H132480   8.558   3.236   5.380
10848TIP3    H232481   8.422   3.187   5.339
10849TIP3   OH232482   8.406   2.859   5.916
10849TIP3    H132483   8.348   2.891   5.844
10849TIP3    H232484   8.348   2.877   5.993
10850TIP3   OH232485   8.512   3.626   5.708
10850TIP3    H132486   8.447   3.690   5.745
10850TIP3    H232487   8.554   3.679   5.637
10851TIP3   OH232488   8.267   2.970   5.703
10851TIP3    H132489   8.332   3.041   5.722
10851TIP3    H232490   8.313   2.928   5.625
10852TIP3   OH232491   8.339   3.822   5.797
10852TIP3    H132492   8.312   3.910   5.764
10852TIP3    H232493   8.260   3.803   5.853
10853TIP3   OH232494   7.732   3.512   5.034
10853TIP3    H132495   7.687   3.539   4.952
10853TIP3    H232496   7.761   3.598   5.070
10854TIP3   OH232497   8.267   3.424   5.261
10854TIP3    H132498   8.218   3.364   5.200
10854TIP3    H232499   8.339   3.365   5.292
10855TIP3   OH232500   8.394   3.833   5.409
10855TIP3    H132501   8.368   3.790   5.325
10855TIP3    H232502   8.477   3.788   5.431
10856TIP3   OH232503   8.407   3.384   5.616
10856TIP3    H132504   8.434   3.362   5.525
10856TIP3    H232505   8.446   3.473   5.632
10857TIP3   OH232506   8.539   3.938   5.950
10857TIP3    H132507   8.478   4.002   5.994
10857TIP3    H232508   8.473   3.885   5.899
10858TIP3   OH232509   8.293   3.506   6.039
10858TIP3    H132510   8.298   3.590   6.090
10858TIP3    H232511   8.202   3.478   6.062
10859TIP3   OH232512   8.632   3.992   4.974
10859TIP3    H132513   8.661   4.077   5.012
10859TIP3    H232514   8.567   4.020   4.908
10860TIP3   OH232515   8.334   4.108   6.031
10860TIP3    H132516   8.298   4.108   5.940
10860TIP3    H232517   8.255   4.088   6.085
10861TIP3   OH232518   8.126   3.266   5.083
10861TIP3    H132519   8.062   3.301   5.018
10861TIP3    H232520   8.101   3.173   5.089
10862TIP3   OH232521   7.916   3.641   5.976
10862TIP3    H132522   7.848   3.617   5.910
10862TIP3    H232523   7.953   3.554   6.002
10863TIP3   OH232524   7.769   3.835   5.604
10863TIP3    H132525   7.866   3.829   5.601
10863TIP3    H232526   7.757   3.911   5.663
10864TIP3   OH232527   8.724   4.057   5.788
10864TIP3    H132528   8.732   4.148   5.825
10864TIP3    H232529   8.656   4.019   5.848
10865TIP3   OH232530   8.504   4.193   4.754
10865TIP3    H132531   8.460   4.179   4.668
10865TIP3    H232532   8.471   4.282   4.779
10866TIP3   OH232533   7.939   4.046   5.136
10866TIP3    H132534   7.985   4.038   5.223
10866TIP3    H232535   7.886   3.965   5.136
10867TIP3   OH232536   8.768   4.159   4.682
10867TIP3    H132537   8.676   4.174   4.712
10867TIP3    H232538   8.782   4.067   4.710
10868TIP3   OH232539   8.122   3.823   5.962
10868TIP3    H132540   8.170   3.807   6.046
10868TIP3    H232541   8.047   3.760   5.970
10869TIP3   OH232542   8.504   2.635   5.777
10869TIP3    H132543   8.418   2.612   5.737
10869TIP3    H232544   8.485   2.723   5.813
10870TIP3   OH232545   8.446   3.167   5.771
10870TIP3    H132546   8.394   3.185   5.852
10870TIP3    H232547   8.427   3.247   5.718
10871TIP3   OH232548   8.335   3.048   5.276
10871TIP3    H132549   8.245   3.017   5.302
10871TIP3    H232550   8.345   3.005   5.188
10872TIP3   OH232551   8.259   3.189   5.979
10872TIP3    H132552   8.309   3.241   6.045
10872TIP3    H232553   8.247   3.104   6.027
10873TIP3   OH232554   8.319   2.640   4.677
10873TIP3    H132555   8.282   2.641   4.766
10873TIP3    H232556   8.250   2.690   4.628
10874TIP3   OH232557   7.864   2.714   5.553
10874TIP3    H132558   7.936   2.746   5.611
10874TIP3    H232559   7.910   2.676   5.477
10875TIP3   OH232560   7.828   2.694   5.076
10875TIP3    H132561   7.874   2.734   5.000
10875TIP3    H232562   7.766   2.766   5.098
10876TIP3   OH232563   8.097   2.931   5.345
10876TIP3    H132564   8.001   2.936   5.321
10876TIP3    H232565   8.118   2.836   5.332
10877TIP3   OH232566   8.367   2.926   5.027
10877TIP3    H132567   8.454   2.924   4.985
10877TIP3    H232568   8.309   2.947   4.950
10878TIP3   OH232569   8.211   2.952   4.807
10878TIP3    H132570   8.120   2.924   4.824
10878TIP3    H232571   8.218   2.926   4.714
10879TIP3   OH232572   8.283   3.749   6.186
10879TIP3    H132573   8.362   3.775   6.236
10879TIP3    H232574   8.218   3.742   6.258
10880TIP3   OH232575   8.257   2.683   5.320
10880TIP3    H132576   8.221   2.612   5.379
10880TIP3    H232577   8.306   2.630   5.257
10881TIP3   OH232578   8.714   3.091   5.772
10881TIP3    H132579   8.620   3.117   5.758
10881TIP3    H232580   8.759   3.177   5.777
10882TIP3   OH232581   8.457   3.446   4.832
10882TIP3    H132582   8.364   3.423   4.845
10882TIP3    H232583   8.474   3.490   4.918
10883TIP3   OH232584   8.823   3.775   5.849
10883TIP3    H132585   8.848   3.756   5.941
10883TIP3    H232586   8.798   3.868   5.854
10884TIP3   OH232587   8.155   3.516   5.503
10884TIP3    H132588   8.191   3.482   5.418
10884TIP3    H232589   8.186   3.450   5.567
10885TIP3   OH232590   8.551   3.618   4.617
10885TIP3    H132591   8.528   3.711   4.643
10885TIP3    H232592   8.546   3.573   4.703
10886TIP3   OH232593   8.034   3.432   6.116
10886TIP3    H132594   8.062   3.416   6.209
10886TIP3    H232595   7.968   3.361   6.103
10887TIP3   OH232596   8.765   3.552   6.131
10887TIP3    H132597   8.718   3.495   6.068
10887TIP3    H232598   8.853   3.511   6.134
10888TIP3   OH232599   8.253   3.811   5.123
10888TIP3    H132600   8.249   3.894   5.071
10888TIP3    H232601   8.160   3.796   5.142
10889TIP3   OH232602   7.817   3.117   4.834
10889TIP3    H132603   7.859   3.203   4.856
10889TIP3    H232604   7.737   3.120   4.892
10890TIP3   OH232605   8.395   3.577   5.066
10890TIP3    H132606   8.356   3.666   5.081
10890TIP3    H232607   8.351   3.526   5.138
10891TIP3   OH232608   8.520   4.152   5.595
10891TIP3    H132609   8.557   4.229   5.548
10891TIP3    H232610   8.598   4.121   5.645
10892TIP3   OH232611   8.171   4.050   4.978
10892TIP3    H132612   8.085   4.060   5.024
10892TIP3    H232613   8.204   4.143   4.982
10893TIP3   OH232614   8.233   2.938   6.118
10893TIP3    H132615   8.136   2.943   6.128
10893TIP3    H232616   8.257   2.880   6.191
10894TIP3   OH232617   7.960   4.016   5.753
10894TIP3    H132618   8.012   3.944   5.791
10894TIP3    H232619   7.983   4.089   5.812
10895TIP3   OH232620   8.248   3.663   4.440
10895TIP3    H132621   8.241   3.570   4.412
10895TIP3    H232622   8.233   3.655   4.537
10896TIP3   OH232623   8.200   3.671   4.713
10896TIP3    H132624   8.271   3.659   4.778
10896TIP3    H232625   8.193   3.770   4.713
10897TIP3   OH232626   7.929   3.363   4.909
10897TIP3    H132627   7.864   3.403   4.970
10897TIP3    H232628   7.936   3.435   4.844
10898TIP3   OH232629   8.462   3.871   4.663
10898TIP3    H132630   8.372   3.896   4.694
10898TIP3    H232631   8.486   3.953   4.616
10899TIP3   OH232632   8.201   3.941   4.725
10899TIP3    H132633   8.169   4.011   4.663
10899TIP3    H232634   8.186   3.985   4.812
10900TIP3   OH232635   8.309   2.658   4.958
10900TIP3    H132636   8.296   2.740   5.010
10900TIP3    H232637   8.391   2.681   4.910
10901TIP3   OH232638   7.922   3.568   4.718
10901TIP3    H132639   7.984   3.643   4.728
10901TIP3    H232640   7.966   3.518   4.647
10902TIP3   OH232641   7.882   2.851   4.855
10902TIP3    H132642   7.858   2.946   4.851
10902TIP3    H232643   7.814   2.810   4.799
10903TIP3   OH232644   8.239   2.568   5.723
10903TIP3    H132645   8.222   2.530   5.634
10903TIP3    H232646   8.236   2.489   5.780
10904TIP3   OH232647   7.789   3.783   5.102
10904TIP3    H132648   7.727   3.813   5.171
10904TIP3    H232649   7.753   3.828   5.022
10905TIP3   OH232650   7.952   4.332   6.176
10905TIP3    H132651   8.039   4.331   6.223
10905TIP3    H232652   7.931   4.237   6.175
10906TIP3   OH232653   8.431   4.292   6.215
10906TIP3    H132654   8.521   4.262   6.230
10906TIP3    H232655   8.403   4.230   6.145
10907TIP3   OH232656   8.406   3.866   4.346
10907TIP3    H132657   8.345   3.797   4.383
10907TIP3    H232658   8.492   3.827   4.369
10908TIP3   OH232659   8.081   3.738   6.375
10908TIP3    H132660   8.096   3.645   6.397
10908TIP3    H232661   7.993   3.735   6.331
10909TIP3   OH232662   8.051   3.389   4.555
10909TIP3    H132663   8.082   3.326   4.621
10909TIP3    H232664   8.127   3.391   4.492
10910TIP3   OH232665   8.707   3.826   6.146
10910TIP3    H132666   8.647   3.838   6.069
10910TIP3    H232667   8.722   3.729   6.146
10911TIP3   OH232668   8.558   3.575   4.353
10911TIP3    H132669   8.568   3.602   4.448
10911TIP3    H232670   8.474   3.527   4.361
10912TIP3   OH232671   8.215   3.457   6.349
10912TIP3    H132672   8.299   3.408   6.335
10912TIP3    H232673   8.231   3.493   6.439
10913TIP3   OH232674   8.504   3.329   6.040
10913TIP3    H132675   8.436   3.400   6.047
10913TIP3    H232676   8.562   3.369   5.971
10914TIP3   OH232677   8.663   3.137   6.152
10914TIP3    H132678   8.664   3.054   6.101
10914TIP3    H232679   8.604   3.194   6.098
10915TIP3   OH232680   8.669   2.918   5.976
10915TIP3    H132681   8.679   2.967   5.892
10915TIP3    H232682   8.580   2.878   5.963
10916TIP3   OH232683   8.660   3.457   5.865
10916TIP3    H132684   8.731   3.447   5.799
10916TIP3    H232685   8.602   3.522   5.821
10917TIP3   OH232686   8.459   3.280   6.333
10917TIP3    H132687   8.423   3.193   6.361
10917TIP3    H232688   8.519   3.257   6.261
10918TIP3   OH232689   8.370   3.035   6.416
10918TIP3    H132690   8.374   2.940   6.396
10918TIP3    H232691   8.412   3.034   6.506
10919TIP3   OH232692   8.166   4.142   4.538
10919TIP3    H132693   8.263   4.140   4.526
10919TIP3    H232694   8.141   4.196   4.461
10920TIP3   OH232695   7.652   3.527   4.750
10920TIP3    H132696   7.747   3.546   4.738
10920TIP3    H232697   7.645   3.437   4.710
10921TIP3   OH232698   7.571   4.136   5.171
10921TIP3    H132699   7.504   4.076   5.133
10921TIP3    H232700   7.615   4.076   5.235
10922TIP3   OH232701   7.706   3.982   5.356
10922TIP3    H132702   7.693   3.913   5.424
10922TIP3    H232703   7.756   4.047   5.408
10923TIP3   OH232704   7.889   3.400   5.727
10923TIP3    H132705   7.886   3.363   5.636
10923TIP3    H232706   7.986   3.397   5.743
10924TIP3   OH232707   8.101   3.077   6.402
10924TIP3    H132708   8.199   3.079   6.401
10924TIP3    H232709   8.085   2.992   6.447
10925TIP3   OH232710   8.064   2.779   5.731
10925TIP3    H132711   8.123   2.701   5.738
10925TIP3    H232712   8.130   2.851   5.729
10926TIP3   OH232713   7.868   3.048   5.801
10926TIP3    H132714   7.920   3.043   5.718
10926TIP3    H232715   7.906   3.127   5.843
10927TIP3   OH232716   7.856   2.547   5.302
10927TIP3    H132717   7.764   2.544   5.334
10927TIP3    H232718   7.850   2.607   5.226
10928TIP3   OH232719   8.075   2.637   6.123
10928TIP3    H132720   8.020   2.625   6.202
10928TIP3    H232721   8.010   2.674   6.061
10929TIP3   OH232722   8.115   4.064   6.195
10929TIP3    H132723   8.022   4.037   6.182
10929TIP3    H232724   8.131   4.037   6.286
10930TIP3   OH232725   8.296   4.092   5.745
10930TIP3    H132726   8.246   4.167   5.706
10930TIP3    H232727   8.381   4.106   5.699
10931TIP3   OH232728   8.730   4.321   5.884
10931TIP3    H132729   8.778   4.329   5.970
10931TIP3    H232730   8.776   4.387   5.828
10932TIP3   OH232731   8.861   4.500   5.707
10932TIP3    H132732   8.915   4.488   5.625
10932TIP3    H232733   8.933   4.516   5.772
10933TIP3   OH232734   7.970   4.350   5.769
10933TIP3    H132735   7.880   4.382   5.746
10933TIP3    H232736   7.982   4.392   5.855
10934TIP3   OH232737   8.204   4.325   5.627
10934TIP3    H132738   8.117   4.338   5.671
10934TIP3    H232739   8.185   4.359   5.537
10935TIP3   OH232740   8.605   4.362   5.428
10935TIP3    H132741   8.530   4.374   5.366
10935TIP3    H232742   8.617   4.453   5.461
10936TIP3   OH232743   8.857   4.262   5.408
10936TIP3    H132744   8.765   4.297   5.418
10936TIP3    H232745   8.909   4.342   5.431
10937TIP3   OH232746   7.881   4.143   5.512
10937TIP3    H132747   7.908   4.113   5.602
10937TIP3    H232748   7.953   4.100   5.461
10938TIP3   OH232749   8.076   4.016   5.371
10938TIP3    H132750   8.089   3.932   5.421
10938TIP3    H232751   8.168   4.052   5.370
10939TIP3   OH232752   8.343   4.108   5.377
10939TIP3    H132753   8.370   4.015   5.368
10939TIP3    H232754   8.391   4.131   5.459
10940TIP3   OH232755   8.164   2.475   5.469
10940TIP3    H132756   8.074   2.438   5.476
10940TIP3    H232757   8.215   2.390   5.464
10941TIP3   OH232758   7.958   2.345   5.118
10941TIP3    H132759   7.983   2.406   5.046
10941TIP3    H232760   7.928   2.407   5.187
10942TIP3   OH232761   7.670   3.918   4.900
10942TIP3    H132762   7.584   3.886   4.868
10942TIP3    H232763   7.661   4.013   4.877
10943TIP3   OH232764   8.067   2.501   4.897
10943TIP3    H132765   8.108   2.441   4.832
10943TIP3    H232766   8.144   2.553   4.928
10944TIP3   OH232767   8.435   4.100   4.496
10944TIP3    H132768   8.526   4.111   4.460
10944TIP3    H232769   8.406   4.029   4.435
10945TIP3   OH232770   8.378   2.764   6.372
10945TIP3    H132771   8.346   2.700   6.437
10945TIP3    H232772   8.470   2.737   6.360
10946TIP3   OH232773   7.745   3.938   4.540
10946TIP3    H132774   7.747   3.961   4.634
10946TIP3    H232775   7.832   3.895   4.526
10947TIP3   OH232776   1.321   4.271   6.728
10947TIP3    H132777   1.283   4.354   6.758
10947TIP3    H232778   1.243   4.222   6.695
10948TIP3   OH232779   1.302   4.268   7.122
10948TIP3    H132780   1.344   4.250   7.208
10948TIP3    H232781   1.263   4.181   7.101
10949TIP3   OH232782   0.639   4.148   7.438
10949TIP3    H132783   0.607   4.099   7.515
10949TIP3    H232784   0.687   4.221   7.480
10950TIP3   OH232785   1.543   4.584   6.796
10950TIP3    H132786   1.545   4.511   6.859
10950TIP3    H232787   1.583   4.656   6.849
10951TIP3   OH232788   0.595   4.555   7.135
10951TIP3    H132789   0.571   4.461   7.153
10951TIP3    H232790   0.655   4.570   7.210
10952TIP3   OH232791   0.358   4.059   7.117
10952TIP3    H132792   0.393   4.012   7.195
10952TIP3    H232793   0.416   4.136   7.114
10953TIP3   OH232794   1.207   5.027   6.810
10953TIP3    H132795   1.226   4.949   6.756
10953TIP3    H232796   1.214   4.992   6.900
10954TIP3   OH232797   1.111   4.495   7.161
10954TIP3    H132798   1.153   4.411   7.132
10954TIP3    H232799   1.193   4.542   7.188
10955TIP3   OH232800   2.121   3.816   7.162
10955TIP3    H132801   2.152   3.898   7.206
10955TIP3    H232802   2.147   3.833   7.070
10956TIP3   OH232803   1.522   3.998   7.192
10956TIP3    H132804   1.564   3.913   7.216
10956TIP3    H232805   1.488   3.977   7.103
10957TIP3   OH232806   0.864   3.657   7.160
10957TIP3    H132807   0.842   3.729   7.097
10957TIP3    H232808   0.816   3.582   7.118
10958TIP3   OH232809   1.555   3.748   6.781
10958TIP3    H132810   1.626   3.734   6.848
10958TIP3    H232811   1.609   3.782   6.706
10959TIP3   OH232812   0.497   3.861   7.271
10959TIP3    H132813   0.579   3.848   7.323
10959TIP3    H232814   0.520   3.815   7.188
10960TIP3   OH232815   0.938   4.055   7.046
10960TIP3    H132816   1.029   4.029   7.070
10960TIP3    H232817   0.897   3.969   7.024
10961TIP3   OH232818   2.196   4.024   7.331
10961TIP3    H132819   2.110   4.069   7.315
10961TIP3    H232820   2.213   4.049   7.423
10962TIP3   OH232821   0.853   3.628   7.592
10962TIP3    H132822   0.799   3.676   7.527
10962TIP3    H232823   0.808   3.648   7.675
10963TIP3   OH232824   1.166   4.541   6.584
10963TIP3    H132825   1.139   4.470   6.521
10963TIP3    H232826   1.101   4.526   6.657
10964TIP3   OH232827   0.960   4.422   7.391
10964TIP3    H132828   0.899   4.486   7.434
10964TIP3    H232829   1.002   4.476   7.321
10965TIP3   OH232830   1.758   3.755   6.960
10965TIP3    H132831   1.747   3.707   7.043
10965TIP3    H232832   1.812   3.831   6.987
10966TIP3   OH232833   0.733   3.754   7.380
10966TIP3    H132834   0.791   3.830   7.404
10966TIP3    H232835   0.785   3.717   7.304
10967TIP3   OH232836   0.775   4.600   7.510
10967TIP3    H132837   0.715   4.658   7.459
10967TIP3    H232838   0.710   4.559   7.571
10968TIP3   OH232839   1.615   4.816   6.957
10968TIP3    H132840   1.527   4.811   7.000
10968TIP3    H232841   1.614   4.907   6.921
10969TIP3   OH232842   1.916   3.714   7.328
10969TIP3    H132843   1.829   3.743   7.297
10969TIP3    H232844   1.976   3.747   7.258
10970TIP3   OH232845   1.209   3.352   7.308
10970TIP3    H132846   1.196   3.257   7.330
10970TIP3    H232847   1.132   3.391   7.355
10971TIP3   OH232848   1.328   4.849   6.607
10971TIP3    H132849   1.408   4.823   6.659
10971TIP3    H232850   1.368   4.925   6.556
10972TIP3   OH232851   1.454   4.606   6.537
10972TIP3    H132852   1.492   4.542   6.471
10972TIP3    H232853   1.505   4.582   6.618
10973TIP3   OH232854   1.847   4.727   7.310
10973TIP3    H132855   1.836   4.650   7.250
10973TIP3    H232856   1.832   4.802   7.248
10974TIP3   OH232857   1.144   4.131   6.567
10974TIP3    H132858   1.059   4.169   6.539
10974TIP3    H232859   1.189   4.116   6.482
10975TIP3   OH232860   1.100   3.908   6.281
10975TIP3    H132861   1.171   3.959   6.324
10975TIP3    H232862   1.154   3.842   6.233
10976TIP3   OH232863   2.042   4.367   7.156
10976TIP3    H132864   1.959   4.418   7.160
10976TIP3    H232865   2.073   4.390   7.065
10977TIP3   OH232866   1.494   4.197   6.532
10977TIP3    H132867   1.439   4.221   6.611
10977TIP3    H232868   1.577   4.170   6.576
10978TIP3   OH232869   1.722   4.242   7.454
10978TIP3    H132870   1.719   4.325   7.505
10978TIP3    H232871   1.635   4.247   7.408
10979TIP3   OH232872   0.730   4.200   6.945
10979TIP3    H132873   0.684   4.139   6.884
10979TIP3    H232874   0.805   4.145   6.976
10980TIP3   OH232875   0.880   4.637   7.084
10980TIP3    H132876   0.828   4.568   7.042
10980TIP3    H232877   0.962   4.589   7.108
10981TIP3   OH232878   0.909   4.163   7.305
10981TIP3    H132879   0.914   4.155   7.208
10981TIP3    H232880   0.919   4.259   7.321
10982TIP3   OH232881   1.374   4.811   7.082
10982TIP3    H132882   1.369   4.890   7.139
10982TIP3    H232883   1.365   4.738   7.147
10983TIP3   OH232884   0.992   4.729   7.630
10983TIP3    H132885   0.937   4.788   7.685
10983TIP3    H232886   0.923   4.674   7.590
10984TIP3   OH232887   1.322   4.065   6.364
10984TIP3    H132888   1.387   4.120   6.413
10984TIP3    H232889   1.350   4.085   6.271
10985TIP3   OH232890   0.728   4.262   7.709
10985TIP3    H132891   0.747   4.346   7.756
10985TIP3    H232892   0.632   4.269   7.700
10986TIP3   OH232893   0.777   4.889   7.714
10986TIP3    H132894   0.750   4.897   7.621
10986TIP3    H232895   0.698   4.852   7.757
10987TIP3   OH232896   1.844   3.301   6.414
10987TIP3    H132897   1.762   3.323   6.463
10987TIP3    H232898   1.857   3.384   6.362
10988TIP3   OH232899   0.599   4.036   6.755
10988TIP3    H132900   0.529   4.075   6.699
10988TIP3    H232901   0.559   3.952   6.781
10989TIP3   OH232902   1.644   4.677   5.971
10989TIP3    H132903   1.656   4.773   5.951
10989TIP3    H232904   1.736   4.644   5.954
10990TIP3   OH232905   2.085   5.075   7.358
10990TIP3    H132906   2.085   4.978   7.371
10990TIP3    H232907   2.001   5.099   7.403
10991TIP3   OH232908   1.187   4.859   7.485
10991TIP3    H132909   1.187   4.951   7.519
10991TIP3    H232910   1.119   4.818   7.542
10992TIP3   OH232911   0.934   4.986   6.438
10992TIP3    H132912   0.916   4.981   6.342
10992TIP3    H232913   0.921   5.080   6.459
10993TIP3   OH232914   1.155   4.880   6.087
10993TIP3    H132915   1.198   4.804   6.040
10993TIP3    H232916   1.233   4.918   6.131
10994TIP3   OH232917   1.973   4.203   7.632
10994TIP3    H132918   1.892   4.211   7.580
10994TIP3    H232919   1.992   4.107   7.623
10995TIP3   OH232920   0.972   3.434   7.432
10995TIP3    H132921   0.884   3.402   7.405
10995TIP3    H232922   0.946   3.514   7.480
10996TIP3   OH232923   1.509   3.556   7.618
10996TIP3    H132924   1.582   3.522   7.676
10996TIP3    H232925   1.427   3.533   7.667
10997TIP3   OH232926   1.741   3.978   7.549
10997TIP3    H132927   1.697   3.974   7.637
10997TIP3    H232928   1.717   4.067   7.516
10998TIP3   OH232929   1.406   4.109   6.112
10998TIP3    H132930   1.368   4.085   6.025
10998TIP3    H232931   1.491   4.149   6.084
10999TIP3   OH232932   1.117   3.482   6.412
10999TIP3    H132933   1.082   3.478   6.504
10999TIP3    H232934   1.077   3.400   6.377
11000TIP3   OH232935   0.906   3.945   7.462
11000TIP3    H132936   0.854   3.970   7.542
11000TIP3    H232937   0.899   4.029   7.409
11001TIP3   OH232938   0.783   3.835   6.972
11001TIP3    H132939   0.690   3.810   6.988
11001TIP3    H232940   0.797   3.795   6.883
11002TIP3   OH232941   1.277   3.923   6.702
11002TIP3    H132942   1.228   3.995   6.656
11002TIP3    H232943   1.333   3.888   6.630
11003TIP3   OH232944   1.463   4.209   7.778
11003TIP3    H132945   1.437   4.129   7.828
11003TIP3    H232946   1.558   4.215   7.802
11004TIP3   OH232947   1.434   3.946   6.937
11004TIP3    H132948   1.370   3.970   6.866
11004TIP3    H232949   1.472   3.866   6.894
11005TIP3   OH232950   0.732   3.972   7.681
11005TIP3    H132951   0.757   4.059   7.716
11005TIP3    H232952   0.652   3.952   7.731
11006TIP3   OH232953   0.774   3.456   6.376
11006TIP3    H132954   0.762   3.456   6.473
11006TIP3    H232955   0.694   3.504   6.347
11007TIP3   OH232956   0.336   3.537   7.236
11007TIP3    H132957   0.414   3.531   7.294
11007TIP3    H232958   0.346   3.461   7.176
11008TIP3   OH232959   0.308   3.530   6.798
11008TIP3    H132960   0.334   3.544   6.704
11008TIP3    H232961   0.294   3.623   6.824
11009TIP3   OH232962   1.444   4.198   7.355
11009TIP3    H132963   1.478   4.126   7.297
11009TIP3    H232964   1.415   4.144   7.432
11010TIP3   OH232965   1.119   3.663   7.033
11010TIP3    H132966   1.040   3.658   7.091
11010TIP3    H232967   1.192   3.648   7.097
11011TIP3   OH232968   0.547   3.702   7.040
11011TIP3    H132969   0.456   3.670   7.049
11011TIP3    H232970   0.596   3.618   7.023
11012TIP3   OH232971   0.813   3.709   6.731
11012TIP3    H132972   0.907   3.723   6.711
11012TIP3    H232973   0.768   3.733   6.646
11013TIP3   OH232974   1.607   3.736   7.237
11013TIP3    H132975   1.574   3.749   7.328
11013TIP3    H232976   1.541   3.674   7.202
11014TIP3   OH232977   0.662   3.751   6.505
11014TIP3    H132978   0.598   3.701   6.451
11014TIP3    H232979   0.718   3.788   6.433
11015TIP3   OH232980   1.780   5.423   7.456
11015TIP3    H132981   1.779   5.446   7.362
11015TIP3    H232982   1.861   5.470   7.486
11016TIP3   OH232983   0.742   4.494   7.846
11016TIP3    H132984   0.812   4.553   7.882
11016TIP3    H232985   0.671   4.505   7.910
11017TIP3   OH232986   1.198   3.992   7.131
11017TIP3    H132987   1.268   3.945   7.085
11017TIP3    H232988   1.198   3.949   7.219
11018TIP3   OH232989   0.713   3.476   7.015
11018TIP3    H132990   0.677   3.398   7.062
11018TIP3    H232991   0.762   3.434   6.942
11019TIP3   OH232992   1.173   3.892   7.411
11019TIP3    H132993   1.083   3.926   7.431
11019TIP3    H232994   1.231   3.950   7.465
11020TIP3   OH232995   0.904   4.278   6.514
11020TIP3    H132996   0.836   4.207   6.503
11020TIP3    H232997   0.888   4.305   6.608
11021TIP3   OH232998   1.806   4.510   7.145
11021TIP3    H132999   1.836   4.558   7.064
11021TIP3    H233000   1.722   4.468   7.115
11022TIP3   OH233001   1.368   3.584   6.385
11022TIP3    H133002   1.271   3.564   6.392
11022TIP3    H233003   1.373   3.679   6.407
11023TIP3   OH233004   1.307   4.594   7.512
11023TIP3    H133005   1.337   4.571   7.601
11023TIP3    H233006   1.272   4.683   7.523
11024TIP3   OH233007   1.435   3.836   6.485
11024TIP3    H133008   1.532   3.838   6.499
11024TIP3    H233009   1.420   3.913   6.428
11025TIP3   OH233010   0.608   4.287   7.193
11025TIP3    H133011   0.658   4.240   7.123
11025TIP3    H233012   0.616   4.227   7.271
11026TIP3   OH233013   1.055   4.420   6.340
11026TIP3    H133014   1.007   4.506   6.341
11026TIP3    H233015   0.994   4.363   6.392
11027TIP3   OH233016   1.214   4.334   7.807
11027TIP3    H133017   1.151   4.271   7.767
11027TIP3    H233018   1.300   4.297   7.779
11028TIP3   OH233019   1.466   4.853   7.404
11028TIP3    H133020   1.370   4.852   7.421
11028TIP3    H233021   1.497   4.906   7.480
11029TIP3   OH233022   1.876   3.927   6.318
11029TIP3    H133023   1.814   3.883   6.255
11029TIP3    H233024   1.874   4.016   6.276
11030TIP3   OH233025   2.098   4.785   7.397
11030TIP3    H133026   2.000   4.778   7.389
11030TIP3    H233027   2.125   4.755   7.308
11031TIP3   OH233028   1.508   4.708   6.220
11031TIP3    H133029   1.581   4.705   6.283
11031TIP3    H233030   1.556   4.703   6.135
11032TIP3   OH233031   1.574   4.375   7.052
11032TIP3    H133032   1.482   4.347   7.072
11032TIP3    H233033   1.610   4.292   7.014
11033TIP3   OH233034   0.699   4.595   6.799
11033TIP3    H133035   0.686   4.682   6.756
11033TIP3    H233036   0.629   4.595   6.866
11034TIP3   OH233037   0.275   3.908   6.530
11034TIP3    H133038   0.329   3.988   6.549
11034TIP3    H233039   0.185   3.943   6.542
11035TIP3   OH233040   0.854   4.372   6.762
11035TIP3    H133041   0.802   4.454   6.777
11035TIP3    H233042   0.817   4.315   6.832
11036TIP3   OH233043   0.983   4.947   7.285
11036TIP3    H133044   1.029   5.016   7.233
11036TIP3    H233045   1.057   4.908   7.334
11037TIP3   OH233046   0.618   4.847   6.671
11037TIP3    H133047   0.548   4.863   6.736
11037TIP3    H233048   0.660   4.936   6.670
11038TIP3   OH233049   1.360   4.580   7.244
11038TIP3    H133050   1.347   4.580   7.342
11038TIP3    H233051   1.442   4.528   7.236
11039TIP3   OH233052   1.334   4.465   6.128
11039TIP3    H133053   1.390   4.457   6.208
11039TIP3    H233054   1.252   4.423   6.157
11040TIP3   OH233055   1.609   5.110   7.295
11040TIP3    H133056   1.530   5.053   7.290
11040TIP3    H233057   1.592   5.174   7.221
11041TIP3   OH233058   1.678   4.951   5.950
11041TIP3    H133059   1.718   5.033   5.913
11041TIP3    H233060   1.596   4.991   5.988
11042TIP3   OH233061   1.501   4.407   6.356
11042TIP3    H133062   1.496   4.330   6.417
11042TIP3    H233063   1.596   4.402   6.330
11043TIP3   OH233064   0.693   4.451   6.125
11043TIP3    H133065   0.710   4.360   6.094
11043TIP3    H233066   0.680   4.436   6.221
11044TIP3   OH233067   0.652   4.460   6.400
11044TIP3    H133068   0.722   4.425   6.457
11044TIP3    H233069   0.662   4.557   6.411
11045TIP3   OH233070   0.397   4.143   6.606
11045TIP3    H133071   0.345   4.190   6.673
11045TIP3    H233072   0.413   4.214   6.541
11046TIP3   OH233073   1.532   3.796   7.494
11046TIP3    H133074   1.616   3.830   7.528
11046TIP3    H233075   1.522   3.712   7.544
11047TIP3   OH233076   1.413   3.535   6.664
11047TIP3    H133077   1.401   3.556   6.569
11047TIP3    H233078   1.455   3.616   6.699
11048TIP3   OH233079   0.925   4.656   6.355
11048TIP3    H133080   0.849   4.695   6.401
11048TIP3    H233081   0.934   4.719   6.281
11049TIP3   OH233082   1.095   3.721   6.764
11049TIP3    H133083   1.162   3.791   6.747
11049TIP3    H233084   1.104   3.710   6.861
11050TIP3   OH233085   1.370   4.032   7.559
11050TIP3    H133086   1.390   4.077   7.644
11050TIP3    H233087   1.423   3.950   7.566
11051TIP3   OH233088   1.243   3.437   6.862
11051TIP3    H133089   1.245   3.511   6.926
11051TIP3    H233090   1.305   3.472   6.793
11052TIP3   OH233091   0.657   4.736   6.423
11052TIP3    H133092   0.653   4.818   6.372
11052TIP3    H233093   0.644   4.771   6.514
11053TIP3   OH233094   0.757   3.443   6.653
11053TIP3    H133095   0.755   3.533   6.691
11053TIP3    H233096   0.853   3.425   6.660
11054TIP3   OH233097   2.007   3.937   7.548
11054TIP3    H133098   1.909   3.937   7.554
11054TIP3    H233099   2.019   3.885   7.468
11055TIP3   OH233100   1.660   4.130   6.939
11055TIP3    H133101   1.585   4.069   6.952
11055TIP3    H233102   1.732   4.084   6.987
11056TIP3   OH233103   0.393   4.368   6.452
11056TIP3    H133104   0.483   4.403   6.433
11056TIP3    H233105   0.373   4.324   6.368
11057TIP3   OH233106   0.300   3.632   6.547
11057TIP3    H133107   0.300   3.730   6.540
11057TIP3    H233108   0.272   3.606   6.458
11058TIP3   OH233109   1.631   5.087   6.885
11058TIP3    H133110   1.590   5.134   6.810
11058TIP3    H233111   1.726   5.106   6.866
11059TIP3   OH233112   0.709   3.350   7.410
11059TIP3    H133113   0.679   3.318   7.322
11059TIP3    H233114   0.696   3.270   7.465
11060TIP3   OH233115   0.860   5.096   7.885
11060TIP3    H133116   0.944   5.091   7.933
11060TIP3    H233117   0.862   5.016   7.829
11061TIP3   OH233118   0.865   4.652   6.042
11061TIP3    H133119   0.813   4.575   6.074
11061TIP3    H233120   0.942   4.606   6.001
11062TIP3   OH233121   1.526   4.991   7.632
11062TIP3    H133122   1.512   4.916   7.695
11062TIP3    H233123   1.601   5.039   7.672
11063TIP3   OH233124   1.298   4.693   5.949
11063TIP3    H133125   1.350   4.642   6.015
11063TIP3    H233126   1.356   4.692   5.871
11064TIP3   OH233127   0.510   4.177   6.267
11064TIP3    H133128   0.566   4.141   6.337
11064TIP3    H233129   0.573   4.176   6.191
11065TIP3   OH233130   1.156   4.609   7.827
11065TIP3    H133131   1.112   4.628   7.741
11065TIP3    H233132   1.183   4.515   7.816
11066TIP3   OH233133   1.020   4.368   6.069
11066TIP3    H133134   1.027   4.379   6.166
11066TIP3    H233135   1.027   4.271   6.061
11067TIP3   OH233136   1.631   4.621   7.447
11067TIP3    H133137   1.708   4.662   7.403
11067TIP3    H233138   1.562   4.689   7.431
11068TIP3   OH233139   0.721   4.077   6.483
11068TIP3    H133140   0.695   4.031   6.565
11068TIP3    H233141   0.756   4.003   6.429
11069TIP3   OH233142   0.990   4.145   7.713
11069TIP3    H133143   0.909   4.198   7.708
11069TIP3    H233144   1.039   4.174   7.632
11070TIP3   OH233145   0.822   3.876   6.322
11070TIP3    H133146   0.795   3.878   6.227
11070TIP3    H233147   0.920   3.875   6.313
11071TIP3   OH233148   1.507   4.536   7.842
11071TIP3    H133149   1.583   4.509   7.790
11071TIP3    H233150   1.504   4.467   7.911
11072TIP3   OH233151   1.637   4.201   5.990
11072TIP3    H133152   1.618   4.156   5.905
11072TIP3    H233153   1.605   4.291   5.968
11073TIP3   OH233154   1.106   3.923   7.833
11073TIP3    H133155   1.097   3.847   7.772
11073TIP3    H233156   1.050   3.992   7.792
11074TIP3   OH233157   1.106   3.724   7.633
11074TIP3    H133158   1.134   3.770   7.552
11074TIP3    H233159   1.014   3.700   7.614
11075TIP3   OH233160   1.138   4.252   7.516
11075TIP3    H133161   1.222   4.260   7.468
11075TIP3    H233162   1.080   4.314   7.468
11076TIP3   OH233163   1.731   4.207   7.890
11076TIP3    H133164   1.767   4.118   7.905
11076TIP3    H233165   1.807   4.252   7.850
11077TIP3   OH233166   1.759   4.471   7.630
11077TIP3    H133167   1.703   4.527   7.572
11077TIP3    H233168   1.848   4.491   7.592
11078TIP3   OH233169   1.246   3.486   7.673
11078TIP3    H133170   1.199   3.571   7.663
11078TIP3    H233171   1.173   3.421   7.662
11079TIP3   OH233172   1.363   3.979   7.885
11079TIP3    H133173   1.344   4.021   7.973
11079TIP3    H233174   1.271   3.949   7.862
11080TIP3   OH233175   1.620   3.936   7.785
11080TIP3    H133176   1.534   3.930   7.830
11080TIP3    H233177   1.683   3.911   7.855
11081TIP3   OH233178   1.827   3.901   7.971
11081TIP3    H133179   1.858   3.808   7.963
11081TIP3    H233180   1.821   3.909   8.069
11082TIP3   OH233181   1.266   3.331   7.904
11082TIP3    H133182   1.319   3.376   7.972
11082TIP3    H233183   1.268   3.397   7.831
11083TIP3   OH233184   0.606   4.926   6.216
11083TIP3    H133185   0.704   4.920   6.219
11083TIP3    H233186   0.602   4.994   6.143
11084TIP3   OH233187   1.887   5.173   6.842
11084TIP3    H133188   1.926   5.214   6.921
11084TIP3    H233189   1.954   5.193   6.774
11085TIP3   OH233190   1.912   5.199   7.136
11085TIP3    H133191   1.870   5.112   7.123
11085TIP3    H233192   1.991   5.172   7.186
11086TIP3   OH233193   1.956   4.877   7.701
11086TIP3    H133194   1.884   4.885   7.767
11086TIP3    H233195   1.999   4.965   7.707
11087TIP3   OH233196   1.775   4.389   6.320
11087TIP3    H133197   1.843   4.453   6.290
11087TIP3    H233198   1.821   4.349   6.398
11088TIP3   OH233199   1.902   4.255   6.524
11088TIP3    H133200   1.838   4.211   6.584
11088TIP3    H233201   1.969   4.289   6.587
11089TIP3   OH233202   1.954   4.638   6.957
11089TIP3    H133203   2.012   4.575   6.910
11089TIP3    H233204   1.966   4.720   6.903
11090TIP3   OH233205   1.787   4.945   7.149
11090TIP3    H133206   1.716   4.988   7.200
11090TIP3    H233207   1.739   4.899   7.078
11091TIP3   OH233208   1.841   4.164   6.169
11091TIP3    H133209   1.769   4.165   6.102
11091TIP3    H233210   1.812   4.240   6.224
11092TIP3   OH233211   1.708   3.837   6.125
11092TIP3    H133212   1.669   3.868   6.042
11092TIP3    H233213   1.687   3.741   6.119
11093TIP3   OH233214   1.717   4.110   6.669
11093TIP3    H133215   1.726   4.014   6.662
11093TIP3    H233216   1.702   4.123   6.765
11094TIP3   OH233217   2.006   4.536   7.527
11094TIP3    H133218   2.077   4.468   7.518
11094TIP3    H233219   2.033   4.603   7.463
11095TIP3   OH233220   2.189   4.338   7.537
11095TIP3    H133221   2.115   4.287   7.576
11095TIP3    H233222   2.263   4.276   7.554
11096TIP3   OH233223   1.654   3.571   6.110
11096TIP3    H133224   1.729   3.537   6.163
11096TIP3    H233225   1.582   3.509   6.130
11097TIP3   OH233226   1.714   3.828   6.560
11097TIP3    H133227   1.755   3.740   6.576
11097TIP3    H233228   1.772   3.860   6.488
11098TIP3   OH233229   1.873   4.000   7.058
11098TIP3    H133230   1.959   4.024   7.017
11098TIP3    H233231   1.888   4.036   7.148
11099TIP3   OH233232   1.945   4.145   7.289
11099TIP3    H133233   1.868   4.179   7.339
11099TIP3    H233234   1.978   4.227   7.245
11100TIP3   OH233235   2.390   3.738   7.843
11100TIP3    H133236   2.458   3.680   7.801
11100TIP3    H233237   2.368   3.799   7.769
11101TIP3   OH233238   1.821   3.579   6.602
11101TIP3    H133239   1.870   3.561   6.685
11101TIP3    H233240   1.761   3.501   6.600
11102TIP3   OH233241   0.536   3.562   7.428
11102TIP3    H133242   0.599   3.487   7.430
11102TIP3    H233243   0.597   3.636   7.408
11103TIP3   OH233244   2.265   3.877   7.641
11103TIP3    H133245   2.178   3.915   7.663
11103TIP3    H233246   2.237   3.802   7.586
11104TIP3   OH233247   1.900   3.509   6.236
11104TIP3    H133248   1.939   3.438   6.181
11104TIP3    H233249   1.968   3.579   6.232
11105TIP3   OH233250   0.333   3.362   7.012
11105TIP3    H133251   0.240   3.341   7.026
11105TIP3    H233252   0.330   3.420   6.933
11106TIP3   OH233253   1.482   5.036   6.483
11106TIP3    H133254   1.558   5.022   6.422
11106TIP3    H233255   1.523   5.103   6.541
11107TIP3   OH233256   0.744   4.914   7.432
11107TIP3    H133257   0.728   4.993   7.376
11107TIP3    H233258   0.835   4.894   7.403
11108TIP3   OH233259   1.188   5.123   7.565
11108TIP3    H133260   1.227   5.120   7.655
11108TIP3    H233261   1.255   5.176   7.518
11109TIP3   OH233262   1.370   5.280   7.430
11109TIP3    H133263   1.442   5.226   7.394
11109TIP3    H233264   1.421   5.336   7.493
11110TIP3   OH233265   2.168   3.634   7.523
11110TIP3    H133266   2.076   3.620   7.493
11110TIP3    H233267   2.203   3.542   7.513
11111TIP3   OH233268   0.660   5.143   7.291
11111TIP3    H133269   0.632   5.232   7.323
11111TIP3    H233270   0.604   5.132   7.213
11112TIP3   OH233271   1.089   5.144   7.117
11112TIP3    H133272   1.036   5.168   7.039
11112TIP3    H233273   1.102   5.231   7.161
11113TIP3   OH233274   1.357   5.080   7.164
11113TIP3    H133275   1.263   5.101   7.148
11113TIP3    H233276   1.402   5.156   7.123
11114TIP3   OH233277   1.554   5.272   7.077
11114TIP3    H133278   1.544   5.358   7.031
11114TIP3    H233279   1.586   5.214   7.005
11115TIP3   OH233280   0.538   4.804   7.039
11115TIP3    H133281   0.542   4.715   7.080
11115TIP3    H233282   0.629   4.836   7.054
11116TIP3   OH233283   0.810   4.901   7.069
11116TIP3    H133284   0.835   4.807   7.056
11116TIP3    H233285   0.862   4.918   7.150
11117TIP3   OH233286   1.362   3.548   7.143
11117TIP3    H133287   1.327   3.477   7.200
11117TIP3    H233288   1.442   3.506   7.104
11118TIP3   OH233289   1.889   3.435   7.053
11118TIP3    H133290   1.926   3.486   6.978
11118TIP3    H233291   1.794   3.455   7.047
11119TIP3   OH233292   1.986   3.534   6.818
11119TIP3    H133293   2.060   3.480   6.781
11119TIP3    H233294   2.022   3.625   6.803
11120TIP3   OH233295   0.616   3.262   7.166
11120TIP3    H133296   0.522   3.235   7.161
11120TIP3    H233297   0.661   3.175   7.162
11121TIP3   OH233298   0.434   3.125   6.824
11121TIP3    H133299   0.449   3.181   6.745
11121TIP3    H233300   0.380   3.183   6.880
11122TIP3   OH233301   1.064   3.296   7.050
11122TIP3    H133302   1.120   3.341   6.985
11122TIP3    H233303   1.100   3.327   7.134
11123TIP3   OH233304   1.603   3.441   7.031
11123TIP3    H133305   1.611   3.399   6.944
11123TIP3    H233306   1.594   3.362   7.090
11124TIP3   OH233307   1.639   3.365   6.594
11124TIP3    H133308   1.553   3.407   6.610
11124TIP3    H233309   1.627   3.279   6.639
11125TIP3   OH233310   0.526   3.288   6.584
11125TIP3    H133311   0.571   3.224   6.525
11125TIP3    H233312   0.601   3.340   6.617
11126TIP3   OH233313   1.033   3.469   6.676
11126TIP3    H133314   1.093   3.422   6.736
11126TIP3    H233315   1.055   3.561   6.702
11127TIP3   OH233316   0.885   4.889   6.174
11127TIP3    H133317   0.976   4.910   6.145
11127TIP3    H233318   0.867   4.814   6.113
11128TIP3   OH233319   1.938   3.650   7.957
11128TIP3    H133320   1.967   3.585   8.025
11128TIP3    H233321   2.009   3.636   7.890
11129TIP3   OH233322   1.837   5.152   7.459
11129TIP3    H133323   1.759   5.122   7.407
11129TIP3    H233324   1.818   5.248   7.463
11130TIP3   OH233325   3.099   4.522   6.212
11130TIP3    H133326   3.074   4.616   6.202
11130TIP3    H233327   3.017   4.481   6.181
11131TIP3   OH233328   3.097   4.526   6.612
11131TIP3    H133329   3.140   4.506   6.698
11131TIP3    H233330   3.064   4.439   6.586
11132TIP3   OH233331   2.404   4.418   6.969
11132TIP3    H133332   2.431   4.349   7.032
11132TIP3    H233333   2.480   4.478   6.975
11133TIP3   OH233334   3.349   4.827   6.288
11133TIP3    H133335   3.341   4.761   6.358
11133TIP3    H233336   3.378   4.905   6.338
11134TIP3   OH233337   2.378   4.831   6.690
11134TIP3    H133338   2.367   4.734   6.696
11134TIP3    H233339   2.475   4.839   6.683
11135TIP3   OH233340   2.083   4.035   6.472
11135TIP3    H133341   2.033   4.116   6.491
11135TIP3    H233342   2.014   3.980   6.432
11136TIP3   OH233343   2.136   4.318   6.656
11136TIP3    H133344   2.187   4.242   6.691
11136TIP3    H233345   2.199   4.358   6.594
11137TIP3   OH233346   2.999   5.294   6.304
11137TIP3    H133347   3.041   5.224   6.250
11137TIP3    H233348   2.990   5.251   6.390
11138TIP3   OH233349   2.905   4.748   6.651
11138TIP3    H133350   2.952   4.670   6.616
11138TIP3    H233351   2.985   4.801   6.674
11139TIP3   OH233352   3.891   4.078   6.651
11139TIP3    H133353   3.945   4.148   6.693
11139TIP3    H233354   3.962   4.034   6.600
11140TIP3   OH233355   3.314   4.253   6.681
11140TIP3    H133356   3.360   4.170   6.703
11140TIP3    H233357   3.284   4.234   6.590
11141TIP3   OH233358   2.655   3.915   6.646
11141TIP3    H133359   2.636   3.986   6.582
11141TIP3    H233360   2.608   3.840   6.604
11142TIP3   OH233361   3.351   4.006   6.268
11142TIP3    H133362   3.422   3.992   6.335
11142TIP3    H233363   3.406   4.039   6.194
11143TIP3   OH233364   2.289   4.115   6.755
11143TIP3    H133365   2.371   4.094   6.804
11143TIP3    H233366   2.302   4.058   6.676
11144TIP3   OH233367   2.730   4.314   6.549
11144TIP3    H133368   2.822   4.289   6.564
11144TIP3    H233369   2.690   4.228   6.523
11145TIP3   OH233370   3.994   4.282   6.817
11145TIP3    H133371   3.910   4.324   6.793
11145TIP3    H233372   3.992   4.293   6.913
11146TIP3   OH233373   2.652   3.896   7.083
11146TIP3    H133374   2.591   3.932   7.016
11146TIP3    H233375   2.599   3.912   7.164
11147TIP3   OH233376   2.964   4.736   6.097
11147TIP3    H133377   2.964   4.741   6.001
11147TIP3    H233378   2.932   4.827   6.119
11148TIP3   OH233379   2.755   4.672   6.873
11148TIP3    H133380   2.696   4.742   6.911
11148TIP3    H233381   2.801   4.721   6.802
11149TIP3   OH233382   3.554   4.013   6.447
11149TIP3    H133383   3.552   3.964   6.530
11149TIP3    H233384   3.613   4.087   6.470
11150TIP3   OH233385   2.522   4.012   6.866
11150TIP3    H133386   2.585   4.084   6.890
11150TIP3    H233387   2.573   3.970   6.792
11151TIP3   OH233388   2.586   4.869   6.974
11151TIP3    H133389   2.562   4.957   6.938
11151TIP3    H233390   2.507   4.853   7.031
11152TIP3   OH233391   1.976   4.561   6.213
11152TIP3    H133392   1.936   4.588   6.128
11152TIP3    H233393   1.998   4.648   6.253
11153TIP3   OH233394   3.418   5.074   6.450
11153TIP3    H133395   3.328   5.065   6.489
11153TIP3    H233396   3.410   5.160   6.405
11154TIP3   OH233397   3.710   3.970   6.823
11154TIP3    H133398   3.623   3.998   6.789
11154TIP3    H233399   3.770   4.006   6.753
11155TIP3   OH233400   3.001   3.610   6.796
11155TIP3    H133401   2.990   3.516   6.819
11155TIP3    H233402   2.925   3.649   6.845
11156TIP3   OH233403   3.116   5.116   6.124
11156TIP3    H133404   3.164   5.033   6.101
11156TIP3    H233405   3.178   5.181   6.085
11157TIP3   OH233406   3.252   4.892   6.036
11157TIP3    H133407   3.260   4.813   5.980
11157TIP3    H233408   3.291   4.862   6.120
11158TIP3   OH233409   3.645   4.983   6.796
11158TIP3    H133410   3.633   4.906   6.736
11158TIP3    H233411   3.627   5.058   6.735
11159TIP3   OH233412   2.915   4.375   6.039
11159TIP3    H133413   2.850   4.338   5.978
11159TIP3    H233414   2.990   4.389   5.976
11160TIP3   OH233415   2.898   4.168   5.779
11160TIP3    H133416   2.974   4.219   5.813
11160TIP3    H233417   2.946   4.100   5.728
11161TIP3   OH233418   3.841   4.628   6.646
11161TIP3    H133419   3.756   4.676   6.648
11161TIP3    H233420   3.868   4.644   6.553
11162TIP3   OH233421   3.287   4.461   6.023
11162TIP3    H133422   3.234   4.484   6.103
11162TIP3    H233423   3.371   4.433   6.066
11163TIP3   OH233424   3.517   4.498   6.942
11163TIP3    H133425   3.514   4.581   6.992
11163TIP3    H233426   3.432   4.503   6.894
11164TIP3   OH233427   2.569   4.447   6.368
11164TIP3    H133428   2.488   4.390   6.379
11164TIP3    H233429   2.627   4.409   6.448
11165TIP3   OH233430   2.646   4.860   6.587
11165TIP3    H133431   2.633   4.829   6.496
11165TIP3    H233432   2.738   4.830   6.606
11166TIP3   OH233433   2.648   4.434   6.790
11166TIP3    H133434   2.694   4.406   6.708
11166TIP3    H233435   2.695   4.516   6.815
11167TIP3   OH233436   3.179   5.068   6.574
11167TIP3    H133437   3.165   5.148   6.627
11167TIP3    H233438   3.163   4.995   6.638
11168TIP3   OH233439   2.791   4.986   7.120
11168TIP3    H133440   2.730   5.048   7.166
11168TIP3    H233441   2.726   4.933   7.069
11169TIP3   OH233442   3.118   4.329   5.854
11169TIP3    H133443   3.185   4.382   5.903
11169TIP3    H233444   3.145   4.348   5.761
11170TIP3   OH233445   2.545   4.542   7.221
11170TIP3    H133446   2.551   4.630   7.265
11170TIP3    H233447   2.451   4.521   7.238
11171TIP3   OH233448   2.868   4.997   6.124
11171TIP3    H133449   2.952   5.047   6.135
11171TIP3    H233450   2.811   5.063   6.083
11172TIP3   OH233451   2.585   5.153   7.207
11172TIP3    H133452   2.552   5.154   7.115
11172TIP3    H233453   2.503   5.132   7.259
11173TIP3   OH233454   3.640   3.558   5.900
11173TIP3    H133455   3.559   3.580   5.950
11173TIP3    H233456   3.654   3.640   5.848
11174TIP3   OH233457   2.379   4.300   6.233
11174TIP3    H133458   2.300   4.337   6.189
11174TIP3    H233459   2.348   4.209   6.254
11175TIP3   OH233460   3.441   4.925   5.450
11175TIP3    H133461   3.449   5.021   5.433
11175TIP3    H233462   3.533   4.895   5.436
11176TIP3   OH233463   2.163   4.685   7.154
11176TIP3    H133464   2.099   4.662   7.084
11176TIP3    H233465   2.202   4.598   7.178
11177TIP3   OH233466   2.023   4.861   6.817
11177TIP3    H133467   2.105   4.873   6.766
11177TIP3    H233468   1.996   4.952   6.831
11178TIP3   OH233469   3.882   5.333   6.843
11178TIP3    H133470   3.882   5.236   6.857
11178TIP3    H233471   3.798   5.356   6.889
11179TIP3   OH233472   2.989   5.114   6.978
11179TIP3    H133473   2.984   5.207   7.010
11179TIP3    H233474   2.916   5.073   7.031
11180TIP3   OH233475   2.747   5.242   5.933
11180TIP3    H133476   2.699   5.229   5.850
11180TIP3    H233477   2.697   5.315   5.974
11181TIP3   OH233478   2.187   5.088   6.311
11181TIP3    H133479   2.230   5.080   6.399
11181TIP3    H233480   2.120   5.018   6.316
11182TIP3   OH233481   2.951   5.146   5.566
11182TIP3    H133482   3.010   5.075   5.532
11182TIP3    H233483   2.985   5.157   5.657
11183TIP3   OH233484   2.999   5.197   5.836
11183TIP3    H133485   2.912   5.209   5.878
11183TIP3    H233486   3.052   5.166   5.911
11184TIP3   OH233487   3.771   4.461   7.117
11184TIP3    H133488   3.689   4.470   7.066
11184TIP3    H233489   3.790   4.366   7.106
11185TIP3   OH233490   2.370   4.867   7.141
11185TIP3    H133491   2.419   4.850   7.224
11185TIP3    H233492   2.294   4.805   7.149
11186TIP3   OH233493   2.766   3.691   6.928
11186TIP3    H133494   2.677   3.660   6.900
11186TIP3    H233495   2.739   3.771   6.979
11187TIP3   OH233496   3.303   3.806   7.122
11187TIP3    H133497   3.373   3.777   7.185
11187TIP3    H233498   3.221   3.785   7.171
11188TIP3   OH233499   3.540   4.235   7.041
11188TIP3    H133500   3.491   4.232   7.126
11188TIP3    H233501   3.516   4.322   7.004
11189TIP3   OH233502   3.199   4.363   5.599
11189TIP3    H133503   3.164   4.339   5.511
11189TIP3    H233504   3.285   4.402   5.574
11190TIP3   OH233505   2.912   3.740   5.900
11190TIP3    H133506   2.877   3.735   5.991
11190TIP3    H233507   2.874   3.657   5.863
11191TIP3   OH233508   2.697   4.210   6.943
11191TIP3    H133509   2.650   4.228   7.026
11191TIP3    H233510   2.679   4.292   6.892
11192TIP3   OH233511   2.577   4.099   6.457
11192TIP3    H133512   2.488   4.063   6.479
11192TIP3    H233513   2.592   4.053   6.371
11193TIP3   OH233514   3.071   4.180   6.185
11193TIP3    H133515   3.022   4.250   6.137
11193TIP3    H233516   3.130   4.146   6.115
11194TIP3   OH233517   3.248   4.455   7.272
11194TIP3    H133518   3.225   4.382   7.334
11194TIP3    H233519   3.342   4.467   7.295
11195TIP3   OH233520   3.227   4.203   6.424
11195TIP3    H133521   3.167   4.229   6.352
11195TIP3    H233522   3.267   4.123   6.382
11196TIP3   OH233523   2.518   4.234   7.154
11196TIP3    H133524   2.553   4.295   7.222
11196TIP3    H233525   2.506   4.152   7.205
11197TIP3   OH233526   2.572   3.717   5.863
11197TIP3    H133527   2.559   3.712   5.960
11197TIP3    H233528   2.491   3.764   5.835
11198TIP3   OH233529   2.111   3.758   6.734
11198TIP3    H133530   2.187   3.788   6.789
11198TIP3    H233531   2.154   3.722   6.655
11199TIP3   OH233532   2.076   3.736   6.254
11199TIP3    H133533   2.122   3.774   6.176
11199TIP3    H233534   2.015   3.810   6.274
11200TIP3   OH233535   3.236   4.452   6.845
11200TIP3    H133536   3.271   4.381   6.786
11200TIP3    H233537   3.209   4.398   6.922
11201TIP3   OH233538   2.913   3.923   6.520
11201TIP3    H133539   2.836   3.915   6.580
11201TIP3    H233540   2.987   3.904   6.581
11202TIP3   OH233541   2.345   3.971   6.525
11202TIP3    H133542   2.250   3.977   6.499
11202TIP3    H233543   2.368   3.878   6.506
11203TIP3   OH233544   2.608   3.971   6.218
11203TIP3    H133545   2.704   3.977   6.199
11203TIP3    H233546   2.565   3.989   6.132
11204TIP3   OH233547   3.403   3.994   6.727
11204TIP3    H133548   3.367   4.005   6.818
11204TIP3    H233549   3.339   3.931   6.689
11205TIP3   OH233550   2.457   4.015   5.993
11205TIP3    H133551   2.392   3.959   5.946
11205TIP3    H233552   2.508   4.050   5.917
11206TIP3   OH233553   3.576   5.680   6.943
11206TIP3    H133554   3.572   5.703   6.848
11206TIP3    H233555   3.656   5.728   6.972
11207TIP3   OH233556   2.530   4.790   7.363
11207TIP3    H133557   2.611   4.818   7.411
11207TIP3    H233558   2.466   4.788   7.437
11208TIP3   OH233559   2.991   4.247   6.617
11208TIP3    H133560   3.064   4.205   6.569
11208TIP3    H233561   2.996   4.202   6.704
11209TIP3   OH233562   2.511   3.729   6.501
11209TIP3    H133563   2.475   3.653   6.551
11209TIP3    H233564   2.564   3.684   6.433
11210TIP3   OH233565   2.969   4.147   6.902
11210TIP3    H133566   2.879   4.180   6.922
11210TIP3    H233567   3.027   4.204   6.955
11211TIP3   OH233568   3.604   4.768   6.629
11211TIP3    H133569   3.630   4.817   6.548
11211TIP3    H233570   3.520   4.725   6.601
11212TIP3   OH233571   3.164   3.839   5.875
11212TIP3    H133572   3.068   3.820   5.880
11212TIP3    H233573   3.170   3.935   5.893
11213TIP3   OH233574   3.102   4.847   7.001
11213TIP3    H133575   3.136   4.831   7.090
11213TIP3    H233576   3.067   4.938   7.007
11214TIP3   OH233577   3.233   4.094   5.972
11214TIP3    H133578   3.329   4.093   5.988
11214TIP3    H233579   3.222   4.171   5.913
11215TIP3   OH233580   2.396   4.544   6.677
11215TIP3    H133581   2.458   4.534   6.604
11215TIP3    H233582   2.440   4.495   6.749
11216TIP3   OH233583   2.852   4.686   5.816
11216TIP3    H133584   2.813   4.777   5.822
11216TIP3    H233585   2.787   4.637   5.867
11217TIP3   OH233586   2.282   4.473   7.292
11217TIP3    H133587   2.302   4.459   7.386
11217TIP3    H233588   2.213   4.405   7.276
11218TIP3   OH233589   3.008   4.591   7.311
11218TIP3    H133590   2.948   4.529   7.266
11218TIP3    H233591   3.095   4.555   7.284
11219TIP3   OH233592   3.265   5.108   6.899
11219TIP3    H133593   3.168   5.108   6.910
11219TIP3    H233594   3.292   5.162   6.976
11220TIP3   OH233595   3.672   4.184   5.805
11220TIP3    H133596   3.609   4.140   5.743
11220TIP3    H233597   3.671   4.273   5.763
11221TIP3   OH233598   3.895   5.045   6.882
11221TIP3    H133599   3.798   5.035   6.875
11221TIP3    H233600   3.921   5.012   6.793
11222TIP3   OH233601   3.380   5.001   5.713
11222TIP3    H133602   3.350   4.929   5.770
11222TIP3    H233603   3.392   4.957   5.627
11223TIP3   OH233604   3.370   4.632   6.543
11223TIP3    H133605   3.278   4.606   6.558
11223TIP3    H233606   3.405   4.551   6.501
11224TIP3   OH233607   2.492   4.832   6.279
11224TIP3    H133608   2.502   4.918   6.235
11224TIP3    H233609   2.404   4.842   6.317
11225TIP3   OH233610   2.067   4.162   6.012
11225TIP3    H133611   2.106   4.249   6.031
11225TIP3    H233612   1.987   4.164   6.069
11226TIP3   OH233613   2.771   5.199   6.770
11226TIP3    H133614   2.811   5.273   6.719
11226TIP3    H233615   2.850   5.166   6.817
11227TIP3   OH233616   2.421   5.093   6.155
11227TIP3    H133617   2.335   5.102   6.201
11227TIP3    H233618   2.441   5.186   6.133
11228TIP3   OH233619   3.155   4.836   6.732
11228TIP3    H133620   3.143   4.834   6.830
11228TIP3    H233621   3.236   4.785   6.721
11229TIP3   OH233622   3.139   4.730   5.618
11229TIP3    H133623   3.191   4.706   5.698
11229TIP3    H233624   3.050   4.702   5.644
11230TIP3   OH233625   3.405   5.367   6.781
11230TIP3    H133626   3.325   5.312   6.774
11230TIP3    H233627   3.390   5.431   6.708
11231TIP3   OH233628   3.470   5.201   5.432
11231TIP3    H133629   3.507   5.275   5.381
11231TIP3    H233630   3.390   5.246   5.468
11232TIP3   OH233631   2.490   3.979   7.296
11232TIP3    H133632   2.394   3.979   7.309
11232TIP3    H233633   2.520   3.923   7.370
11233TIP3   OH233634   3.296   4.671   5.842
11233TIP3    H133635   3.287   4.597   5.906
11233TIP3    H233636   3.392   4.663   5.822
11234TIP3   OH233637   2.212   5.072   6.933
11234TIP3    H133638   2.250   4.987   6.962
11234TIP3    H233639   2.255   5.134   6.994
11235TIP3   OH233640   2.502   4.704   5.613
11235TIP3    H133641   2.512   4.612   5.584
11235TIP3    H233642   2.485   4.694   5.709
11236TIP3   OH233643   2.454   4.715   5.891
11236TIP3    H133644   2.475   4.719   5.985
11236TIP3    H233645   2.449   4.812   5.873
11237TIP3   OH233646   2.174   4.411   6.091
11237TIP3    H133647   2.107   4.455   6.148
11237TIP3    H233648   2.181   4.480   6.021
11238TIP3   OH233649   3.327   4.045   6.987
11238TIP3    H133650   3.412   4.080   7.019
11238TIP3    H233651   3.317   3.963   7.039
11239TIP3   OH233652   3.207   3.793   6.152
11239TIP3    H133653   3.197   3.813   6.057
11239TIP3    H233654   3.251   3.874   6.186
11240TIP3   OH233655   2.710   4.914   5.834
11240TIP3    H133656   2.623   4.937   5.870
11240TIP3    H233657   2.726   4.993   5.779
11241TIP3   OH233658   2.890   3.979   6.251
11241TIP3    H133659   2.959   4.047   6.233
11241TIP3    H233660   2.900   3.966   6.348
11242TIP3   OH233661   3.168   4.289   7.054
11242TIP3    H133662   3.194   4.339   7.134
11242TIP3    H233663   3.222   4.208   7.061
11243TIP3   OH233664   3.039   3.694   6.349
11243TIP3    H133665   3.048   3.764   6.416
11243TIP3    H233666   3.101   3.728   6.279
11244TIP3   OH233667   2.450   4.983   5.900
11244TIP3    H133668   2.421   5.052   5.835
11244TIP3    H233669   2.435   5.030   5.985
11245TIP3   OH233670   2.552   3.700   6.139
11245TIP3    H133671   2.549   3.788   6.182
11245TIP3    H233672   2.648   3.681   6.146
11246TIP3   OH233673   3.809   4.195   7.034
11246TIP3    H133674   3.711   4.194   7.043
11246TIP3    H233675   3.818   4.142   6.954
11247TIP3   OH233676   3.452   4.391   6.424
11247TIP3    H133677   3.380   4.326   6.438
11247TIP3    H233678   3.527   4.347   6.470
11248TIP3   OH233679   2.168   4.612   5.897
11248TIP3    H133680   2.214   4.697   5.893
11248TIP3    H233681   2.218   4.562   5.828
11249TIP3   OH233682   2.114   3.891   6.032
11249TIP3    H133683   2.112   3.988   6.028
11249TIP3    H233684   2.039   3.866   5.976
11250TIP3   OH233685   3.427   5.345   6.375
11250TIP3    H133686   3.385   5.391   6.299
11250TIP3    H233687   3.522   5.361   6.353
11251TIP3   OH233688   2.501   3.610   6.900
11251TIP3    H133689   2.471   3.574   6.814
11251TIP3    H233690   2.492   3.532   6.959
11252TIP3   OH233691   2.010   4.830   6.289
11252TIP3    H133692   1.944   4.882   6.338
11252TIP3    H233693   1.995   4.866   6.199
11253TIP3   OH233694   2.201   5.377   7.354
11253TIP3    H133695   2.288   5.377   7.400
11253TIP3    H233696   2.182   5.282   7.351
11254TIP3   OH233697   2.677   5.332   7.398
11254TIP3    H133698   2.771   5.312   7.405
11254TIP3    H233699   2.651   5.272   7.325
11255TIP3   OH233700   2.659   4.912   5.520
11255TIP3    H133701   2.609   4.837   5.559
11255TIP3    H233702   2.736   4.864   5.482
11256TIP3   OH233703   3.316   5.245   7.133
11256TIP3    H133704   3.310   5.173   7.200
11256TIP3    H233705   3.395   5.294   7.163
11257TIP3   OH233706   3.096   4.948   5.438
11257TIP3    H133707   3.141   4.885   5.497
11257TIP3    H233708   3.151   4.946   5.358
11258TIP3   OH233709   2.328   4.779   7.554
11258TIP3    H133710   2.346   4.683   7.560
11258TIP3    H233711   2.241   4.780   7.508
11259TIP3   OH233712   2.300   4.432   5.739
11259TIP3    H133713   2.348   4.379   5.803
11259TIP3    H233714   2.367   4.438   5.667
11260TIP3   OH233715   2.935   4.866   7.328
11260TIP3    H133716   2.895   4.885   7.241
11260TIP3    H233717   2.967   4.774   7.318
11261TIP3   OH233718   2.824   4.626   5.552
11261TIP3    H133719   2.829   4.643   5.648
11261TIP3    H233720   2.827   4.528   5.550
11262TIP3   OH233721   3.428   4.877   6.935
11262TIP3    H133722   3.504   4.919   6.890
11262TIP3    H233723   3.359   4.945   6.919
11263TIP3   OH233724   2.449   4.515   7.535
11263TIP3    H133725   2.525   4.461   7.510
11263TIP3    H233726   2.477   4.547   7.623
11264TIP3   OH233727   2.573   4.333   6.034
11264TIP3    H133728   2.497   4.278   6.063
11264TIP3    H233729   2.596   4.286   5.952
11265TIP3   OH233730   2.781   4.395   7.196
11265TIP3    H133731   2.705   4.457   7.198
11265TIP3    H233732   2.833   4.430   7.119
11266TIP3   OH233733   2.616   4.155   5.814
11266TIP3    H133734   2.588   4.147   5.720
11266TIP3    H233735   2.713   4.140   5.804
11267TIP3   OH233736   3.301   4.799   7.329
11267TIP3    H133737   3.379   4.767   7.282
11267TIP3    H233738   3.295   4.735   7.403
11268TIP3   OH233739   3.431   4.454   5.478
11268TIP3    H133740   3.415   4.409   5.392
11268TIP3    H233741   3.399   4.544   5.454
11269TIP3   OH233742   2.906   4.187   7.323
11269TIP3    H133743   2.908   4.107   7.266
11269TIP3    H233744   2.862   4.253   7.265
11270TIP3   OH233745   2.910   3.975   7.131
11270TIP3    H133746   2.938   4.012   7.045
11270TIP3    H233747   2.817   3.950   7.112
11271TIP3   OH233748   2.931   4.505   7.003
11271TIP3    H133749   3.019   4.516   6.963
11271TIP3    H233750   2.878   4.574   6.957
11272TIP3   OH233751   3.516   4.473   7.383
11272TIP3    H133752   3.560   4.387   7.393
11272TIP3    H233753   3.586   4.527   7.344
11273TIP3   OH233754   3.557   4.729   7.121
11273TIP3    H133755   3.500   4.784   7.062
11273TIP3    H233756   3.645   4.749   7.082
11274TIP3   OH233757   2.783   4.294   7.554
11274TIP3    H133758   2.716   4.224   7.571
11274TIP3    H233759   2.819   4.266   7.467
11275TIP3   OH233760   3.041   3.735   7.200
11275TIP3    H133761   2.991   3.817   7.178
11275TIP3    H233762   2.972   3.666   7.189
11276TIP3   OH233763   3.166   4.238   7.414
11276TIP3    H133764   3.153   4.223   7.510
11276TIP3    H233765   3.077   4.214   7.382
11277TIP3   OH233766   3.408   4.192   7.272
11277TIP3    H133767   3.332   4.189   7.333
11277TIP3    H233768   3.481   4.158   7.328
11278TIP3   OH233769   3.640   4.132   7.420
11278TIP3    H133770   3.651   4.036   7.434
11278TIP3    H233771   3.633   4.167   7.512
11279TIP3   OH233772   2.625   4.073   7.611
11279TIP3    H133773   2.629   3.980   7.579
11279TIP3    H233774   2.664   4.062   7.700
11280TIP3   OH233775   3.136   3.747   7.457
11280TIP3    H133776   3.202   3.674   7.453
11280TIP3    H233777   3.096   3.740   7.368
11281TIP3   OH233778   3.203   3.963   7.610
11281TIP3    H133779   3.181   3.889   7.549
11281TIP3    H233780   3.122   4.018   7.605
11282TIP3   OH233781   2.417   5.159   5.693
11282TIP3    H133782   2.514   5.170   5.693
11282TIP3    H233783   2.393   5.229   5.629
11283TIP3   OH233784   1.900   4.568   5.930
11283TIP3    H133785   1.995   4.589   5.916
11283TIP3    H233786   1.893   4.480   5.887
11284TIP3   OH233787   3.684   5.429   6.335
11284TIP3    H133788   3.709   5.463   6.422
11284TIP3    H233789   3.745   5.475   6.275
11285TIP3   OH233790   3.710   5.453   6.617
11285TIP3    H133791   3.663   5.367   6.611
11285TIP3    H233792   3.784   5.426   6.675
11286TIP3   OH233793   3.756   5.130   7.189
11286TIP3    H133794   3.684   5.139   7.254
11286TIP3    H233795   3.798   5.219   7.194
11287TIP3   OH233796   3.571   4.643   5.807
11287TIP3    H133797   3.638   4.707   5.776
11287TIP3    H233798   3.617   4.605   5.885
11288TIP3   OH233799   3.700   4.512   6.012
11288TIP3    H133800   3.635   4.469   6.071
11288TIP3    H233801   3.767   4.546   6.075
11289TIP3   OH233802   3.756   4.905   6.443
11289TIP3    H133803   3.811   4.837   6.398
11289TIP3    H233804   3.753   4.976   6.375
11290TIP3   OH233805   3.584   5.203   6.636
11290TIP3    H133806   3.511   5.245   6.687
11290TIP3    H233807   3.535   5.157   6.565
11291TIP3   OH233808   3.637   4.419   5.656
11291TIP3    H133809   3.565   4.420   5.589
11291TIP3    H233810   3.610   4.496   5.711
11292TIP3   OH233811   3.502   4.094   5.614
11292TIP3    H133812   3.469   4.126   5.529
11292TIP3    H233813   3.481   3.998   5.607
11293TIP3   OH233814   3.512   4.367   6.154
11293TIP3    H133815   3.524   4.271   6.150
11293TIP3    H233816   3.498   4.382   6.251
11294TIP3   OH233817   2.139   4.440   6.906
11294TIP3    H133818   2.135   4.406   6.814
11294TIP3    H233819   2.237   4.441   6.921
11295TIP3   OH233820   3.803   4.793   7.015
11295TIP3    H133821   3.874   4.725   7.004
11295TIP3    H233822   3.826   4.858   6.948
11296TIP3   OH233823   3.987   4.595   7.025
11296TIP3    H133824   3.911   4.546   7.062
11296TIP3    H233825   4.059   4.531   7.047
11297TIP3   OH233826   3.451   3.828   5.597
11297TIP3    H133827   3.526   3.793   5.649
11297TIP3    H233828   3.379   3.765   5.616
11298TIP3   OH233829   3.509   4.083   6.046
11298TIP3    H133830   3.551   3.995   6.061
11298TIP3    H233831   3.567   4.117   5.975
11299TIP3   OH233832   3.665   4.266   6.541
11299TIP3    H133833   3.752   4.286   6.500
11299TIP3    H233834   3.687   4.288   6.633
11300TIP3   OH233835   3.745   4.403   6.780
11300TIP3    H133836   3.666   4.436   6.825
11300TIP3    H233837   3.777   4.483   6.733
11301TIP3   OH233838   2.360   4.131   7.579
11301TIP3    H133839   2.457   4.124   7.584
11301TIP3    H233840   2.335   4.043   7.615
11302TIP3   OH233841   4.207   3.999   7.336
11302TIP3    H133842   4.263   3.933   7.287
11302TIP3    H233843   4.168   4.049   7.261
11303TIP3   OH233844   3.617   3.835   6.089
11303TIP3    H133845   3.667   3.818   6.172
11303TIP3    H233846   3.558   3.757   6.088
11304TIP3   OH233847   2.318   3.820   6.908
11304TIP3    H133848   2.379   3.744   6.918
11304TIP3    H233849   2.382   3.893   6.901
11305TIP3   OH233850   2.117   4.093   6.978
11305TIP3    H133851   2.169   4.089   6.895
11305TIP3    H233852   2.150   4.175   7.017
11306TIP3   OH233853   4.061   4.129   7.143
11306TIP3    H133854   3.973   4.170   7.153
11306TIP3    H233855   4.037   4.053   7.087
11307TIP3   OH233856   3.696   3.765   5.723
11307TIP3    H133857   3.736   3.695   5.668
11307TIP3    H233858   3.763   3.836   5.718
11308TIP3   OH233859   2.106   3.597   6.484
11308TIP3    H133860   2.012   3.590   6.511
11308TIP3    H233861   2.100   3.654   6.405
11309TIP3   OH233862   3.273   5.290   5.991
11309TIP3    H133863   3.323   5.285   5.907
11309TIP3    H233864   3.310   5.369   6.033
11310TIP3   OH233865   2.327   3.682   7.296
11310TIP3    H133866   2.275   3.671   7.377
11310TIP3    H233867   2.258   3.715   7.235
11311TIP3   OH233868   2.363   5.108   7.372
11311TIP3    H133869   2.271   5.082   7.357
11311TIP3    H233870   2.376   5.085   7.465
11312TIP3   OH233871   2.547   5.140   6.923
11312TIP3    H133872   2.497   5.215   6.883
11312TIP3    H233873   2.632   5.154   6.875
11313TIP3   OH233874   2.984   5.381   7.059
11313TIP3    H133875   3.027   5.380   7.147
11313TIP3    H233876   3.050   5.432   7.007
11314TIP3   OH233877   3.164   5.535   6.921
11314TIP3    H133878   3.232   5.484   6.875
11314TIP3    H233879   3.218   5.591   6.980
11315TIP3   OH233880   3.959   3.895   7.033
11315TIP3    H133881   3.882   3.896   6.973
11315TIP3    H233882   4.003   3.811   7.004
11316TIP3   OH233883   2.222   5.400   6.946
11316TIP3    H133884   2.132   5.429   6.920
11316TIP3    H233885   2.227   5.439   7.035
11317TIP3   OH233886   2.457   5.373   6.805
11317TIP3    H133887   2.370   5.386   6.848
11317TIP3    H233888   2.438   5.403   6.713
11318TIP3   OH233889   2.883   5.398   6.607
11318TIP3    H133890   2.812   5.412   6.541
11318TIP3    H233891   2.894   5.488   6.642
11319TIP3   OH233892   3.151   5.339   6.656
11319TIP3    H133893   3.056   5.354   6.637
11319TIP3    H233894   3.192   5.410   6.605
11320TIP3   OH233895   3.360   5.532   6.566
11320TIP3    H133896   3.341   5.615   6.518
11320TIP3    H233897   3.383   5.471   6.492
11321TIP3   OH233898   2.132   5.197   6.699
11321TIP3    H133899   2.165   5.166   6.786
11321TIP3    H233900   2.191   5.147   6.640
11322TIP3   OH233901   2.318   5.058   6.549
11322TIP3    H133902   2.336   4.976   6.601
11322TIP3    H233903   2.409   5.097   6.546
11323TIP3   OH233904   2.584   5.143   6.557
11323TIP3    H133905   2.621   5.053   6.551
11323TIP3    H233906   2.635   5.177   6.633
11324TIP3   OH233907   3.154   3.803   6.625
11324TIP3    H133908   3.121   3.733   6.684
11324TIP3    H233909   3.236   3.763   6.589
11325TIP3   OH233910   3.684   3.688   6.539
11325TIP3    H133911   3.724   3.740   6.466
11325TIP3    H233912   3.591   3.712   6.534
11326TIP3   OH233913   3.782   3.791   6.306
11326TIP3    H133914   3.856   3.738   6.269
11326TIP3    H233915   3.821   3.881   6.296
11327TIP3   OH233916   2.414   3.517   6.652
11327TIP3    H133917   2.322   3.482   6.655
11327TIP3    H233918   2.463   3.432   6.649
11328TIP3   OH233919   2.201   3.389   6.303
11328TIP3    H133920   2.232   3.445   6.229
11328TIP3    H233921   2.176   3.456   6.370
11329TIP3   OH233922   2.858   3.553   6.535
11329TIP3    H133923   2.916   3.598   6.472
11329TIP3    H233924   2.894   3.584   6.620
11330TIP3   OH233925   3.396   3.698   6.519
11330TIP3    H133926   3.408   3.657   6.432
11330TIP3    H233927   3.388   3.619   6.577
11331TIP3   OH233928   3.436   3.622   6.081
11331TIP3    H133929   3.348   3.662   6.095
11331TIP3    H233930   3.424   3.535   6.126
11332TIP3   OH233931   1.928   4.951   6.063
11332TIP3    H133932   1.841   4.932   6.023
11332TIP3    H233933   1.900   5.020   6.127
11333TIP3   OH233934   2.321   3.547   6.063
11333TIP3    H133935   2.368   3.482   6.006
11333TIP3    H233936   2.396   3.599   6.098
11334TIP3   OH233937   2.828   3.727   6.164
11334TIP3    H133938   2.888   3.677   6.223
11334TIP3    H233939   2.853   3.818   6.190
11335TIP3   OH233940   2.692   5.142   5.666
11335TIP3    H133941   2.779   5.167   5.629
11335TIP3    H233942   2.670   5.069   5.604
11336TIP3   OH233943   3.414   5.269   5.754
11336TIP3    H133944   3.405   5.171   5.744
11336TIP3    H233945   3.365   5.300   5.676
11337TIP3   OH233946   2.622   3.799   7.547
11337TIP3    H133947   2.589   3.726   7.602
11337TIP3    H233948   2.717   3.798   7.574
11338TIP3   OH233949   2.871   3.793   7.666
11338TIP3    H133950   2.956   3.766   7.628
11338TIP3    H233951   2.860   3.726   7.737
11339TIP3   OH233952   1.991   4.982   5.721
11339TIP3    H133953   1.991   5.000   5.816
11339TIP3    H233954   2.079   4.940   5.707
11340TIP3   OH233955   3.696   3.862   7.450
11340TIP3    H133956   3.714   3.829   7.541
11340TIP3    H233957   3.784   3.853   7.408
11341TIP3   OH233958   3.633   5.409   6.943
11341TIP3    H133959   3.555   5.378   6.893
11341TIP3    H233960   3.613   5.505   6.949
11342TIP3   OH233961   4.906   4.791   5.706
11342TIP3    H133962   4.862   4.874   5.678
11342TIP3    H233963   4.836   4.728   5.679
11343TIP3   OH233964   4.914   4.787   6.091
11343TIP3    H133965   4.941   4.753   6.177
11343TIP3    H233966   4.868   4.711   6.053
11344TIP3   OH233967   4.198   4.677   6.458
11344TIP3    H133968   4.228   4.604   6.516
11344TIP3    H233969   4.281   4.724   6.443
11345TIP3   OH233970   5.131   5.072   5.791
11345TIP3    H133971   5.080   4.990   5.795
11345TIP3    H233972   5.083   5.120   5.719
11346TIP3   OH233973   4.175   5.091   6.179
11346TIP3    H133974   4.165   4.993   6.179
11346TIP3    H233975   4.272   5.098   6.171
11347TIP3   OH233976   3.879   4.290   5.959
11347TIP3    H133977   3.829   4.372   5.978
11347TIP3    H233978   3.809   4.237   5.918
11348TIP3   OH233979   3.937   4.576   6.142
11348TIP3    H133980   3.985   4.497   6.178
11348TIP3    H233981   3.996   4.603   6.071
11349TIP3   OH233982   4.798   5.551   5.791
11349TIP3    H133983   4.840   5.480   5.737
11349TIP3    H233984   4.784   5.505   5.875
11350TIP3   OH233985   4.698   5.011   6.138
11350TIP3    H133986   4.733   4.935   6.090
11350TIP3    H233987   4.782   5.054   6.163
11351TIP3   OH233988   5.718   4.328   6.136
11351TIP3    H133989   5.747   4.413   6.175
11351TIP3    H233990   5.739   4.342   6.042
11352TIP3   OH233991   5.118   4.510   6.167
11352TIP3    H133992   5.156   4.422   6.186
11352TIP3    H233993   5.080   4.494   6.078
11353TIP3   OH233994   4.462   4.166   6.128
11353TIP3    H133995   4.434   4.240   6.071
11353TIP3    H233996   4.409   4.094   6.088
11354TIP3   OH233997   5.147   4.263   5.755
11354TIP3    H133998   5.219   4.247   5.820
11354TIP3    H233999   5.199   4.296   5.679
11355TIP3   OH234000   4.083   4.368   6.242
11355TIP3    H134001   4.165   4.345   6.291
11355TIP3    H234002   4.099   4.314   6.161
11356TIP3   OH234003   4.522   4.570   6.040
11356TIP3    H134004   4.616   4.544   6.053
11356TIP3    H234005   4.483   4.486   6.008
11357TIP3   OH234006   5.792   4.539   6.304
11357TIP3    H134007   5.706   4.582   6.283
11357TIP3    H234008   5.794   4.552   6.400
11358TIP3   OH234009   4.450   4.165   6.562
11358TIP3    H134010   4.375   4.174   6.500
11358TIP3    H234011   4.397   4.140   6.640
11359TIP3   OH234012   4.776   4.998   5.585
11359TIP3    H134013   4.744   4.986   5.495
11359TIP3    H234014   4.734   5.084   5.608
11360TIP3   OH234015   4.555   4.930   6.362
11360TIP3    H134016   4.492   4.996   6.398
11360TIP3    H234017   4.595   4.978   6.287
11361TIP3   OH234018   5.353   4.266   5.932
11361TIP3    H134019   5.337   4.217   6.014
11361TIP3    H234020   5.404   4.343   5.963
11362TIP3   OH234021   4.323   4.283   6.338
11362TIP3    H134022   4.394   4.338   6.375
11362TIP3    H234023   4.372   4.230   6.272
11363TIP3   OH234024   4.385   5.125   6.463
11363TIP3    H134025   4.357   5.211   6.425
11363TIP3    H234026   4.305   5.106   6.517
11364TIP3   OH234027   3.772   4.814   5.698
11364TIP3    H134028   3.733   4.839   5.611
11364TIP3    H234029   3.804   4.900   5.731
11365TIP3   OH234030   5.235   5.320   5.943
11365TIP3    H134031   5.145   5.327   5.984
11365TIP3    H234032   5.230   5.398   5.882
11366TIP3   OH234033   5.508   4.233   6.304
11366TIP3    H134034   5.419   4.254   6.270
11366TIP3    H234035   5.566   4.262   6.231
11367TIP3   OH234036   4.798   3.871   6.293
11367TIP3    H134037   4.783   3.775   6.307
11367TIP3    H234038   4.718   3.908   6.336
11368TIP3   OH234039   4.914   5.376   5.611
11368TIP3    H134040   4.962   5.291   5.593
11368TIP3    H234041   4.980   5.440   5.574
11369TIP3   OH234042   5.053   5.150   5.537
11369TIP3    H134043   5.037   5.081   5.470
11369TIP3    H234044   5.148   5.175   5.521
11370TIP3   OH234045   5.440   5.251   6.288
11370TIP3    H134046   5.443   5.188   6.215
11370TIP3    H234047   5.419   5.334   6.239
11371TIP3   OH234048   4.736   4.637   5.544
11371TIP3    H134049   4.654   4.688   5.525
11371TIP3    H234050   4.776   4.631   5.455
11372TIP3   OH234051   4.691   4.421   5.256
11372TIP3    H134052   4.760   4.473   5.301
11372TIP3    H234053   4.747   4.357   5.206
11373TIP3   OH234054   5.631   4.876   6.135
11373TIP3    H134055   5.560   4.941   6.134
11373TIP3    H234056   5.670   4.892   6.046
11374TIP3   OH234057   5.082   4.720   5.508
11374TIP3    H134058   5.025   4.743   5.586
11374TIP3    H234059   5.164   4.690   5.553
11375TIP3   OH234060   5.316   4.758   6.425
11375TIP3    H134061   5.308   4.840   6.476
11375TIP3    H234062   5.229   4.756   6.380
11376TIP3   OH234063   4.312   4.715   5.928
11376TIP3    H134064   4.269   4.656   5.862
11376TIP3    H234065   4.387   4.659   5.958
11377TIP3   OH234066   4.441   5.129   6.073
11377TIP3    H134067   4.419   5.092   5.986
11377TIP3    H234068   4.530   5.091   6.090
11378TIP3   OH234069   4.445   4.686   6.286
11378TIP3    H134070   4.476   4.659   6.196
11378TIP3    H234071   4.490   4.772   6.300
11379TIP3   OH234072   4.995   5.324   6.062
11379TIP3    H134073   4.968   5.405   6.108
11379TIP3    H234074   4.968   5.253   6.123
11380TIP3   OH234075   4.587   5.241   6.608
11380TIP3    H134076   4.526   5.304   6.653
11380TIP3    H234077   4.523   5.189   6.556
11381TIP3   OH234078   4.919   4.574   5.338
11381TIP3    H134079   4.979   4.635   5.387
11381TIP3    H234080   4.945   4.595   5.245
11382TIP3   OH234081   4.344   4.797   6.714
11382TIP3    H134082   4.345   4.886   6.755
11382TIP3    H234083   4.248   4.776   6.721
11383TIP3   OH234084   4.668   5.254   5.616
11383TIP3    H134085   4.748   5.309   5.621
11383TIP3    H234086   4.606   5.311   5.569
11384TIP3   OH234087   4.381   5.409   6.695
11384TIP3    H134088   4.347   5.409   6.603
11384TIP3    H234089   4.300   5.387   6.747
11385TIP3   OH234090   5.436   3.813   5.389
11385TIP3    H134091   5.354   3.834   5.437
11385TIP3    H234092   5.450   3.896   5.338
11386TIP3   OH234093   4.178   4.559   5.734
11386TIP3    H134094   4.109   4.601   5.679
11386TIP3    H234095   4.144   4.469   5.744
11387TIP3   OH234096   5.238   5.183   4.936
11387TIP3    H134097   5.246   5.279   4.919
11387TIP3    H234098   5.330   5.153   4.921
11388TIP3   OH234099   3.960   4.942   6.640
11388TIP3    H134100   3.893   4.921   6.572
11388TIP3    H234101   3.997   4.854   6.661
11389TIP3   OH234102   3.814   5.134   6.271
11389TIP3    H134103   3.910   5.130   6.264
11389TIP3    H234104   3.802   5.213   6.326
11390TIP3   OH234105   5.681   5.591   6.336
11390TIP3    H134106   5.677   5.494   6.346
11390TIP3    H234107   5.594   5.616   6.376
11391TIP3   OH234108   4.784   5.370   6.465
11391TIP3    H134109   4.781   5.463   6.496
11391TIP3    H234110   4.711   5.330   6.518
11392TIP3   OH234111   4.549   5.497   5.417
11392TIP3    H134112   4.500   5.477   5.335
11392TIP3    H234113   4.513   5.585   5.441
11393TIP3   OH234114   3.984   5.348   5.801
11393TIP3    H134115   4.029   5.338   5.887
11393TIP3    H234116   3.933   5.265   5.797
11394TIP3   OH234117   4.746   5.403   5.053
11394TIP3    H134118   4.804   5.332   5.017
11394TIP3    H234119   4.781   5.413   5.144
11395TIP3   OH234120   4.799   5.451   5.321
11395TIP3    H134121   4.711   5.460   5.364
11395TIP3    H234122   4.852   5.416   5.395
11396TIP3   OH234123   5.565   4.716   6.604
11396TIP3    H134124   5.482   4.725   6.555
11396TIP3    H234125   5.582   4.620   6.593
11397TIP3   OH234126   4.165   5.125   6.626
11397TIP3    H134127   4.213   5.107   6.709
11397TIP3    H234128   4.090   5.061   6.632
11398TIP3   OH234129   4.548   3.945   6.418
11398TIP3    H134130   4.460   3.914   6.394
11398TIP3    H234131   4.524   4.029   6.463
11399TIP3   OH234132   5.097   4.064   6.609
11399TIP3    H134133   5.164   4.033   6.673
11399TIP3    H234134   5.013   4.042   6.655
11400TIP3   OH234135   5.341   4.497   6.533
11400TIP3    H134136   5.287   4.491   6.615
11400TIP3    H234137   5.308   4.578   6.491
11401TIP3   OH234138   5.002   4.620   5.086
11401TIP3    H134139   4.960   4.597   5.000
11401TIP3    H234140   5.083   4.664   5.056
11402TIP3   OH234141   4.712   3.992   5.386
11402TIP3    H134142   4.674   3.990   5.476
11402TIP3    H234143   4.669   3.912   5.349
11403TIP3   OH234144   4.508   4.468   6.438
11403TIP3    H134145   4.447   4.476   6.514
11403TIP3    H234146   4.482   4.546   6.384
11404TIP3   OH234147   4.379   4.352   5.947
11404TIP3    H134148   4.287   4.324   5.967
11404TIP3    H234149   4.391   4.310   5.858
11405TIP3   OH234150   4.872   4.438   5.679
11405TIP3    H134151   4.818   4.506   5.632
11405TIP3    H234152   4.925   4.402   5.605
11406TIP3   OH234153   5.045   4.712   6.761
11406TIP3    H134154   5.020   4.639   6.822
11406TIP3    H234155   5.140   4.721   6.783
11407TIP3   OH234156   5.030   4.464   5.909
11407TIP3    H134157   4.964   4.487   5.840
11407TIP3    H234158   5.065   4.383   5.867
11408TIP3   OH234159   4.317   4.490   6.637
11408TIP3    H134160   4.334   4.549   6.712
11408TIP3    H234161   4.304   4.404   6.683
11409TIP3   OH234162   4.369   3.972   5.350
11409TIP3    H134163   4.355   3.969   5.447
11409TIP3    H234164   4.290   4.022   5.322
11410TIP3   OH234165   3.920   4.008   6.221
11410TIP3    H134166   4.007   4.032   6.256
11410TIP3    H234167   3.940   3.968   6.135
11411TIP3   OH234168   3.871   3.991   5.740
11411TIP3    H134169   3.917   4.030   5.662
11411TIP3    H234170   3.811   4.066   5.761
11412TIP3   OH234171   5.049   4.709   6.335
11412TIP3    H134172   5.078   4.636   6.274
11412TIP3    H234173   5.013   4.655   6.409
11413TIP3   OH234174   4.715   4.171   6.006
11413TIP3    H134175   4.629   4.169   6.055
11413TIP3    H234176   4.779   4.165   6.080
11414TIP3   OH234177   4.142   4.230   6.011
11414TIP3    H134178   4.047   4.234   5.985
11414TIP3    H234179   4.166   4.137   5.991
11415TIP3   OH234180   4.407   4.225   5.705
11415TIP3    H134181   4.500   4.238   5.679
11415TIP3    H234182   4.357   4.245   5.622
11416TIP3   OH234183   5.198   4.247   6.212
11416TIP3    H134184   5.164   4.260   6.303
11416TIP3    H234185   5.131   4.186   6.177
11417TIP3   OH234186   4.256   4.261   5.482
11417TIP3    H134187   4.187   4.211   5.434
11417TIP3    H234188   4.307   4.296   5.407
11418TIP3   OH234189   5.373   5.935   6.429
11418TIP3    H134190   5.367   5.959   6.335
11418TIP3    H234191   5.451   5.986   6.457
11419TIP3   OH234192   4.325   5.048   6.848
11419TIP3    H134193   4.404   5.078   6.898
11419TIP3    H234194   4.260   5.044   6.921
11420TIP3   OH234195   4.788   4.504   6.110
11420TIP3    H134196   4.856   4.454   6.062
11420TIP3    H234197   4.788   4.460   6.197
11421TIP3   OH234198   4.308   3.990   5.984
11421TIP3    H134199   4.267   3.914   6.033
11421TIP3    H234200   4.351   3.942   5.912
11422TIP3   OH234201   4.768   4.405   6.382
11422TIP3    H134202   4.676   4.431   6.404
11422TIP3    H234203   4.821   4.463   6.440
11423TIP3   OH234204   4.503   4.786   5.490
11423TIP3    H134205   4.431   4.720   5.478
11423TIP3    H234206   4.483   4.820   5.581
11424TIP3   OH234207   4.961   4.095   5.360
11424TIP3    H134208   4.864   4.074   5.366
11424TIP3    H234209   4.964   4.191   5.380
11425TIP3   OH234210   4.912   5.113   6.485
11425TIP3    H134211   4.919   5.082   6.576
11425TIP3    H234212   4.865   5.198   6.494
11426TIP3   OH234213   5.027   4.349   5.461
11426TIP3    H134214   5.124   4.355   5.471
11426TIP3    H234215   5.005   4.426   5.406
11427TIP3   OH234216   4.198   4.815   6.163
11427TIP3    H134217   4.235   4.784   6.078
11427TIP3    H234218   4.233   4.750   6.225
11428TIP3   OH234219   4.651   4.938   5.318
11428TIP3    H134220   4.601   5.023   5.321
11428TIP3    H234221   4.595   4.881   5.376
11429TIP3   OH234222   4.077   4.728   6.778
11429TIP3    H134223   4.088   4.709   6.873
11429TIP3    H234224   4.007   4.664   6.753
11430TIP3   OH234225   4.801   4.846   6.801
11430TIP3    H134226   4.736   4.788   6.757
11430TIP3    H234227   4.885   4.808   6.768
11431TIP3   OH234228   5.064   5.367   6.383
11431TIP3    H134229   4.968   5.362   6.395
11431TIP3    H234230   5.090   5.419   6.461
11432TIP3   OH234231   5.471   4.440   5.289
11432TIP3    H134232   5.409   4.395   5.227
11432TIP3    H234233   5.466   4.530   5.250
11433TIP3   OH234234   5.694   5.295   6.372
11433TIP3    H134235   5.596   5.294   6.369
11433TIP3    H234236   5.714   5.265   6.281
11434TIP3   OH234237   5.156   5.263   5.192
11434TIP3    H134238   5.162   5.193   5.258
11434TIP3    H234239   5.176   5.216   5.109
11435TIP3   OH234240   5.181   4.892   6.031
11435TIP3    H134241   5.088   4.868   6.048
11435TIP3    H234242   5.213   4.809   5.991
11436TIP3   OH234243   4.298   5.116   5.794
11436TIP3    H134244   4.295   5.196   5.738
11436TIP3    H234245   4.205   5.094   5.801
11437TIP3   OH234246   3.863   4.417   5.496
11437TIP3    H134247   3.907   4.501   5.517
11437TIP3    H234248   3.785   4.421   5.556
11438TIP3   OH234249   4.431   4.879   5.734
11438TIP3    H134250   4.397   4.968   5.754
11438TIP3    H234251   4.393   4.827   5.808
11439TIP3   OH234252   4.567   5.457   6.258
11439TIP3    H134253   4.608   5.530   6.207
11439TIP3    H234254   4.644   5.421   6.305
11440TIP3   OH234255   4.215   5.353   5.642
11440TIP3    H134256   4.129   5.361   5.689
11440TIP3    H234257   4.246   5.446   5.645
11441TIP3   OH234258   4.952   5.091   6.218
11441TIP3    H134259   4.941   5.095   6.316
11441TIP3    H234260   5.022   5.025   6.210
11442TIP3   OH234261   4.932   4.986   5.102
11442TIP3    H134262   4.980   4.965   5.185
11442TIP3    H234263   4.843   4.954   5.124
11443TIP3   OH234264   5.200   5.627   6.268
11443TIP3    H134265   5.121   5.570   6.260
11443TIP3    H234266   5.184   5.690   6.194
11444TIP3   OH234267   5.269   5.459   4.917
11444TIP3    H134268   5.309   5.538   4.875
11444TIP3    H234269   5.186   5.500   4.950
11445TIP3   OH234270   4.281   4.254   6.803
11445TIP3    H134271   4.185   4.243   6.785
11445TIP3    H234272   4.301   4.167   6.841
11446TIP3   OH234273   5.093   4.933   5.330
11446TIP3    H134274   5.080   4.858   5.391
11446TIP3    H234275   5.188   4.920   5.308
11447TIP3   OH234276   4.005   5.319   6.415
11447TIP3    H134277   4.057   5.244   6.450
11447TIP3    H234278   4.031   5.390   6.475
11448TIP3   OH234279   4.294   4.965   5.102
11448TIP3    H134280   4.301   4.873   5.071
11448TIP3    H234281   4.271   4.952   5.196
11449TIP3   OH234282   4.235   4.971   5.374
11449TIP3    H134283   4.310   4.942   5.428
11449TIP3    H234284   4.241   5.069   5.382
11450TIP3   OH234285   3.972   4.662   5.578
11450TIP3    H134286   3.905   4.707   5.634
11450TIP3    H234287   3.985   4.730   5.509
11451TIP3   OH234288   5.126   4.302   6.473
11451TIP3    H134289   5.209   4.332   6.514
11451TIP3    H234290   5.108   4.218   6.523
11452TIP3   OH234291   5.008   4.046   5.637
11452TIP3    H134292   4.990   4.067   5.543
11452TIP3    H234293   5.046   4.130   5.670
11453TIP3   OH234294   4.507   5.167   5.324
11453TIP3    H134295   4.419   5.192   5.358
11453TIP3    H234296   4.520   5.236   5.257
11454TIP3   OH234297   4.695   4.231   5.737
11454TIP3    H134298   4.757   4.305   5.721
11454TIP3    H234299   4.698   4.224   5.835
11455TIP3   OH234300   4.964   4.548   6.539
11455TIP3    H134301   4.986   4.597   6.620
11455TIP3    H234302   5.014   4.465   6.549
11456TIP3   OH234303   4.836   3.955   5.840
11456TIP3    H134304   4.820   4.036   5.891
11456TIP3    H234305   4.898   3.988   5.771
11457TIP3   OH234306   4.253   5.244   5.391
11457TIP3    H134307   4.221   5.313   5.329
11457TIP3    H234308   4.235   5.286   5.478
11458TIP3   OH234309   4.348   3.956   5.626
11458TIP3    H134310   4.344   4.045   5.667
11458TIP3    H234311   4.444   3.940   5.634
11459TIP3   OH234312   5.604   4.447   6.520
11459TIP3    H134313   5.507   4.452   6.533
11459TIP3    H234314   5.606   4.391   6.441
11460TIP3   OH234315   5.255   4.644   5.913
11460TIP3    H134316   5.177   4.587   5.923
11460TIP3    H234317   5.323   4.593   5.962
11461TIP3   OH234318   3.968   4.867   5.382
11461TIP3    H134319   4.041   4.932   5.389
11461TIP3    H234320   4.008   4.808   5.314
11462TIP3   OH234321   3.911   4.147   5.519
11462TIP3    H134322   3.910   4.244   5.514
11462TIP3    H234323   3.839   4.124   5.459
11463TIP3   OH234324   5.228   5.596   5.868
11463TIP3    H134325   5.181   5.635   5.791
11463TIP3    H234326   5.321   5.614   5.839
11464TIP3   OH234327   3.836   5.089   5.765
11464TIP3    H134328   3.771   5.117   5.831
11464TIP3    H234329   3.800   5.131   5.683
11465TIP3   OH234330   3.996   5.633   6.840
11465TIP3    H134331   4.083   5.632   6.887
11465TIP3    H234332   3.974   5.539   6.838
11466TIP3   OH234333   4.474   5.588   6.886
11466TIP3    H134334   4.569   5.569   6.889
11466TIP3    H234335   4.446   5.528   6.814
11467TIP3   OH234336   4.457   5.167   5.012
11467TIP3    H134337   4.401   5.095   5.050
11467TIP3    H234338   4.532   5.115   4.978
11468TIP3   OH234339   5.114   5.501   6.618
11468TIP3    H134340   5.109   5.430   6.686
11468TIP3    H234341   5.190   5.554   6.650
11469TIP3   OH234342   4.893   5.207   4.926
11469TIP3    H134343   4.935   5.144   4.988
11469TIP3    H234344   4.951   5.203   4.848
11470TIP3   OH234345   4.124   5.036   7.040
11470TIP3    H134346   4.141   4.940   7.044
11470TIP3    H234347   4.037   5.038   6.995
11471TIP3   OH234348   4.103   4.683   5.236
11471TIP3    H134349   4.161   4.650   5.307
11471TIP3    H234350   4.167   4.687   5.162
11472TIP3   OH234351   4.733   5.122   6.814
11472TIP3    H134352   4.687   5.141   6.729
11472TIP3    H234353   4.760   5.029   6.803
11473TIP3   OH234354   4.624   4.887   5.046
11473TIP3    H134355   4.620   4.896   5.143
11473TIP3    H234356   4.621   4.789   5.037
11474TIP3   OH234357   5.227   5.127   6.421
11474TIP3    H134358   5.295   5.184   6.381
11474TIP3    H234359   5.148   5.184   6.410
11475TIP3   OH234360   4.243   4.779   7.027
11475TIP3    H134361   4.313   4.719   6.996
11475TIP3    H234362   4.276   4.805   7.115
11476TIP3   OH234363   4.310   4.590   5.456
11476TIP3    H134364   4.282   4.547   5.537
11476TIP3    H234365   4.347   4.515   5.404
11477TIP3   OH234366   4.586   4.662   6.696
11477TIP3    H134367   4.501   4.712   6.692
11477TIP3    H234368   4.630   4.692   6.612
11478TIP3   OH234369   4.413   4.387   5.295
11478TIP3    H134370   4.386   4.391   5.201
11478TIP3    H234371   4.511   4.389   5.286
11479TIP3   OH234372   5.100   5.057   6.819
11479TIP3    H134373   5.171   5.019   6.766
11479TIP3    H234374   5.088   4.990   6.889
11480TIP3   OH234375   5.233   4.713   4.962
11480TIP3    H134376   5.211   4.667   4.879
11480TIP3    H234377   5.200   4.803   4.940
11481TIP3   OH234378   4.708   4.445   6.807
11481TIP3    H134379   4.703   4.365   6.751
11481TIP3    H234380   4.661   4.511   6.752
11482TIP3   OH234381   4.708   4.234   6.616
11482TIP3    H134382   4.735   4.270   6.529
11482TIP3    H234383   4.613   4.214   6.598
11483TIP3   OH234384   4.731   4.769   6.495
11483TIP3    H134385   4.811   4.771   6.441
11483TIP3    H234386   4.672   4.832   6.448
11484TIP3   OH234387   5.313   4.729   6.871
11484TIP3    H134388   5.355   4.643   6.881
11484TIP3    H234389   5.383   4.782   6.831
11485TIP3   OH234390   5.355   4.987   6.610
11485TIP3    H134391   5.297   5.039   6.550
11485TIP3    H234392   5.443   5.006   6.569
11486TIP3   OH234393   4.588   4.549   7.044
11486TIP3    H134394   4.518   4.481   7.053
11486TIP3    H234395   4.617   4.532   6.952
11487TIP3   OH234396   4.838   3.994   6.687
11487TIP3    H134397   4.787   4.074   6.664
11487TIP3    H234398   4.770   3.924   6.675
11488TIP3   OH234399   4.963   4.494   6.902
11488TIP3    H134400   4.944   4.479   6.996
11488TIP3    H234401   4.875   4.470   6.864
11489TIP3   OH234402   5.204   4.448   6.760
11489TIP3    H134403   5.126   4.446   6.819
11489TIP3    H234404   5.275   4.413   6.816
11490TIP3   OH234405   5.439   4.389   6.906
11490TIP3    H134406   5.449   4.293   6.921
11490TIP3    H234407   5.431   4.424   6.998
11491TIP3   OH234408   4.424   4.334   7.079
11491TIP3    H134409   4.419   4.249   7.030
11491TIP3    H234410   4.446   4.300   7.167
11492TIP3   OH234411   4.933   4.002   6.945
11492TIP3    H134412   4.997   3.928   6.937
11492TIP3    H234413   4.890   3.998   6.857
11493TIP3   OH234414   4.998   4.216   7.102
11493TIP3    H134415   4.977   4.143   7.039
11493TIP3    H234416   4.919   4.273   7.094
11494TIP3   OH234417   4.222   5.450   5.205
11494TIP3    H134418   4.317   5.439   5.184
11494TIP3    H234419   4.193   5.498   5.125
11495TIP3   OH234420   3.699   4.826   5.418
11495TIP3    H134421   3.794   4.847   5.403
11495TIP3    H234422   3.693   4.737   5.376
11496TIP3   OH234423   3.617   5.439   5.833
11496TIP3    H134424   3.549   5.379   5.795
11496TIP3    H234425   3.660   5.379   5.898
11497TIP3   OH234426   3.749   5.285   6.020
11497TIP3    H134427   3.735   5.215   6.086
11497TIP3    H234428   3.801   5.349   6.073
11498TIP3   OH234429   5.480   5.689   5.819
11498TIP3    H134430   5.512   5.728   5.902
11498TIP3    H234431   5.549   5.718   5.756
11499TIP3   OH234432   5.505   5.717   6.106
11499TIP3    H134433   5.463   5.629   6.096
11499TIP3    H234434   5.587   5.690   6.150
11500TIP3   OH234435   5.556   5.384   6.676
11500TIP3    H134436   5.480   5.394   6.738
11500TIP3    H234437   5.595   5.474   6.679
11501TIP3   OH234438   5.369   4.900   5.293
11501TIP3    H134439   5.436   4.965   5.263
11501TIP3    H234440   5.414   4.861   5.371
11502TIP3   OH234441   5.497   4.765   5.497
11502TIP3    H134442   5.430   4.722   5.556
11502TIP3    H234443   5.561   4.802   5.562
11503TIP3   OH234444   5.381   5.468   6.135
11503TIP3    H134445   5.311   5.518   6.183
11503TIP3    H234446   5.332   5.434   6.058
11504TIP3   OH234447   5.434   4.675   5.143
11504TIP3    H134448   5.362   4.677   5.076
11504TIP3    H234449   5.406   4.752   5.198
11505TIP3   OH234450   5.308   4.346   5.094
11505TIP3    H134451   5.257   4.383   5.021
11505TIP3    H234452   5.284   4.251   5.086
11506TIP3   OH234453   5.308   4.624   5.642
11506TIP3    H134454   5.315   4.527   5.632
11506TIP3    H234455   5.294   4.634   5.739
11507TIP3   OH234456   3.933   4.701   6.391
11507TIP3    H134457   3.930   4.662   6.301
11507TIP3    H234458   4.031   4.700   6.408
11508TIP3   OH234459   5.601   5.051   6.501
11508TIP3    H134460   5.671   4.982   6.492
11508TIP3    H234461   5.635   5.121   6.443
11509TIP3   OH234462   5.782   4.851   6.516
11509TIP3    H134463   5.706   4.800   6.551
11509TIP3    H234464   5.854   4.788   6.533
11510TIP3   OH234465   5.248   4.080   5.079
11510TIP3    H134466   5.316   4.046   5.141
11510TIP3    H234467   5.169   4.026   5.099
11511TIP3   OH234468   5.309   4.343   5.536
11511TIP3    H134469   5.349   4.254   5.551
11511TIP3    H234470   5.365   4.374   5.463
11512TIP3   OH234471   5.467   4.510   6.033
11512TIP3    H134472   5.553   4.536   5.992
11512TIP3    H234473   5.481   4.545   6.123
11513TIP3   OH234474   5.538   4.654   6.265
11513TIP3    H134475   5.461   4.687   6.314
11513TIP3    H234476   5.569   4.735   6.219
11514TIP3   OH234477   4.155   4.391   7.089
11514TIP3    H134478   4.248   4.377   7.061
11514TIP3    H234479   4.129   4.299   7.112
11515TIP3   OH234480   5.991   4.255   6.819
11515TIP3    H134481   6.049   4.188   6.777
11515TIP3    H234482   5.959   4.305   6.740
11516TIP3   OH234483   5.415   4.092   5.575
11516TIP3    H134484   5.461   4.073   5.660
11516TIP3    H234485   5.353   4.016   5.572
11517TIP3   OH234486   3.906   4.365   6.458
11517TIP3    H134487   3.962   4.349   6.379
11517TIP3    H234488   3.957   4.432   6.504
11518TIP3   OH234489   5.857   4.386   6.621
11518TIP3    H134490   5.768   4.427   6.634
11518TIP3    H234491   5.830   4.311   6.565
11519TIP3   OH234492   5.494   4.021   5.213
11519TIP3    H134493   5.531   3.952   5.154
11519TIP3    H234494   5.559   4.094   5.204
11520TIP3   OH234495   3.897   3.862   5.976
11520TIP3    H134496   3.803   3.849   5.996
11520TIP3    H234497   3.894   3.914   5.893
11521TIP3   OH234498   5.056   5.564   5.474
11521TIP3    H134499   5.113   5.534   5.400
11521TIP3    H234500   5.124   5.601   5.533
11522TIP3   OH234501   4.161   5.363   6.860
11522TIP3    H134502   4.068   5.338   6.842
11522TIP3    H234503   4.169   5.341   6.953
11523TIP3   OH234504   4.342   5.397   6.410
11523TIP3    H134505   4.292   5.472   6.371
11523TIP3    H234506   4.427   5.411   6.362
11524TIP3   OH234507   4.780   5.636   6.545
11524TIP3    H134508   4.822   5.636   6.633
11524TIP3    H234509   4.846   5.688   6.493
11525TIP3   OH234510   4.959   5.791   6.407
11525TIP3    H134511   5.029   5.743   6.362
11525TIP3    H234512   5.012   5.849   6.467
11526TIP3   OH234513   5.758   4.147   6.505
11526TIP3    H134514   5.667   4.134   6.472
11526TIP3    H234515   5.793   4.056   6.495
11527TIP3   OH234516   4.016   5.653   6.432
11527TIP3    H134517   3.925   5.683   6.408
11527TIP3    H234518   4.026   5.694   6.519
11528TIP3   OH234519   4.252   5.631   6.292
11528TIP3    H134520   4.165   5.642   6.335
11528TIP3    H234521   4.232   5.661   6.201
11529TIP3   OH234522   4.677   5.655   6.090
11529TIP3    H134523   4.607   5.672   6.024
11529TIP3    H234524   4.688   5.744   6.130
11530TIP3   OH234525   4.946   5.592   6.138
11530TIP3    H134526   4.852   5.612   6.120
11530TIP3    H234527   4.990   5.665   6.091
11531TIP3   OH234528   5.150   5.787   6.051
11531TIP3    H134529   5.137   5.871   6.004
11531TIP3    H234530   5.180   5.728   5.978
11532TIP3   OH234531   3.927   5.445   6.176
11532TIP3    H134532   3.952   5.415   6.266
11532TIP3    H234533   3.999   5.401   6.124
11533TIP3   OH234534   4.122   5.317   6.036
11533TIP3    H134535   4.136   5.233   6.085
11533TIP3    H234536   4.213   5.351   6.032
11534TIP3   OH234537   4.390   5.410   6.039
11534TIP3    H134538   4.417   5.316   6.027
11534TIP3    H234539   4.437   5.430   6.122
11535TIP3   OH234540   4.967   4.067   6.134
11535TIP3    H134541   4.920   3.996   6.182
11535TIP3    H234542   5.033   4.017   6.083
11536TIP3   OH234543   5.484   3.952   6.031
11536TIP3    H134544   5.518   4.001   5.953
11536TIP3    H234545   5.387   3.965   6.021
11537TIP3   OH234546   5.580   4.044   5.792
11537TIP3    H134547   5.654   3.993   5.753
11537TIP3    H234548   5.613   4.136   5.778
11538TIP3   OH234549   4.205   3.774   6.108
11538TIP3    H134550   4.116   3.741   6.132
11538TIP3    H234551   4.259   3.695   6.128
11539TIP3   OH234552   3.996   3.646   5.787
11539TIP3    H134553   4.027   3.702   5.714
11539TIP3    H234554   3.975   3.713   5.856
11540TIP3   OH234555   4.659   3.803   6.017
11540TIP3    H134556   4.719   3.855   5.960
11540TIP3    H234557   4.671   3.846   6.103
11541TIP3   OH234558   5.204   3.954   6.002
11541TIP3    H134559   5.196   3.913   5.914
11541TIP3    H234560   5.191   3.876   6.061
11542TIP3   OH234561   5.232   3.879   5.568
11542TIP3    H134562   5.146   3.923   5.583
11542TIP3    H234563   5.217   3.793   5.612
11543TIP3   OH234564   3.714   5.220   5.563
11543TIP3    H134565   3.628   5.186   5.532
11543TIP3    H234566   3.704   5.314   5.539
11544TIP3   OH234567   4.117   3.802   5.551
11544TIP3    H134568   4.164   3.739   5.493
11544TIP3    H234569   4.191   3.856   5.586
11545TIP3   OH234570   4.625   3.981   5.649
11545TIP3    H134571   4.681   3.932   5.710
11545TIP3    H234572   4.649   4.073   5.675
11546TIP3   OH234573   4.487   5.401   5.150
11546TIP3    H134574   4.575   5.423   5.113
11546TIP3    H234575   4.465   5.326   5.090
11547TIP3   OH234576   5.208   5.526   5.235
11547TIP3    H134577   5.195   5.429   5.224
11547TIP3    H234578   5.159   5.559   5.157
11548TIP3   OH234579   4.414   4.061   7.043
11548TIP3    H134580   4.384   3.978   7.084
11548TIP3    H234581   4.510   4.057   7.064
11549TIP3   OH234582   4.670   4.048   7.141
11549TIP3    H134583   4.753   4.014   7.104
11549TIP3    H234584   4.661   3.993   7.222
11550TIP3   OH234585   3.793   5.245   5.205
11550TIP3    H134586   3.794   5.255   5.301
11550TIP3    H234587   3.879   5.198   5.188
11551TIP3   OH234588   5.495   4.118   6.937
11551TIP3    H134589   5.512   4.086   7.028
11551TIP3    H234590   5.584   4.110   6.896
11552TIP3   OH234591   5.428   5.664   6.433
11552TIP3    H134592   5.350   5.636   6.380
11552TIP3    H234593   5.412   5.761   6.435
11553TIP3   OH234594   6.699   5.041   5.192
11553TIP3    H134595   6.669   5.131   5.171
11553TIP3    H234596   6.623   4.989   5.161
11554TIP3   OH234597   6.700   5.040   5.580
11554TIP3    H134598   6.734   5.015   5.668
11554TIP3    H234599   6.657   4.958   5.551
11555TIP3   OH234600   5.997   4.936   5.949
11555TIP3    H134601   6.029   4.867   6.009
11555TIP3    H234602   6.079   4.980   5.924
11556TIP3   OH234603   6.944   5.343   5.261
11556TIP3    H134604   6.927   5.276   5.328
11556TIP3    H234605   6.973   5.419   5.314
11557TIP3   OH234606   5.975   5.347   5.664
11557TIP3    H134607   5.964   5.249   5.668
11557TIP3    H234608   6.072   5.354   5.654
11558TIP3   OH234609   5.676   4.546   5.447
11558TIP3    H134610   5.626   4.628   5.465
11558TIP3    H234611   5.606   4.493   5.405
11559TIP3   OH234612   5.727   4.836   5.634
11559TIP3    H134613   5.781   4.760   5.666
11559TIP3    H234614   5.786   4.875   5.568
11560TIP3   OH234615   6.599   5.806   5.276
11560TIP3    H134616   6.640   5.734   5.224
11560TIP3    H234617   6.577   5.761   5.358
11561TIP3   OH234618   6.495   5.265   5.626
11561TIP3    H134619   6.537   5.189   5.581
11561TIP3    H234620   6.577   5.312   5.652
11562TIP3   OH234621   7.513   4.585   5.623
11562TIP3    H134622   7.541   4.668   5.666
11562TIP3    H234623   7.534   4.602   5.530
11563TIP3   OH234624   6.909   4.765   5.655
11563TIP3    H134625   6.951   4.680   5.676
11563TIP3    H234626   6.876   4.749   5.565
11564TIP3   OH234627   6.251   4.426   5.620
11564TIP3    H134628   6.229   4.498   5.558
11564TIP3    H234629   6.201   4.352   5.578
11565TIP3   OH234630   6.943   4.517   5.242
11565TIP3    H134631   7.015   4.503   5.308
11565TIP3    H234632   6.996   4.553   5.168
11566TIP3   OH234633   5.881   4.628   5.729
11566TIP3    H134634   5.964   4.606   5.777
11566TIP3    H234635   5.893   4.573   5.649
11567TIP3   OH234636   6.318   4.825   5.529
11567TIP3    H134637   6.413   4.801   5.539
11567TIP3    H234638   6.280   4.741   5.494
11568TIP3   OH234639   7.585   4.794   5.793
11568TIP3    H134640   7.500   4.840   5.774
11568TIP3    H234641   7.603   4.825   5.883
11569TIP3   OH234642   6.244   4.410   6.057
11569TIP3    H134643   6.185   4.445   5.989
11569TIP3    H234644   6.190   4.427   6.137
11570TIP3   OH234645   6.587   5.260   5.062
11570TIP3    H134646   6.545   5.245   4.976
11570TIP3    H234647   6.543   5.343   5.091
11571TIP3   OH234648   6.349   5.185   5.848
11571TIP3    H134649   6.289   5.253   5.884
11571TIP3    H234650   6.393   5.233   5.774
11572TIP3   OH234651   7.147   4.523   5.421
11572TIP3    H134652   7.132   4.480   5.505
11572TIP3    H234653   7.200   4.601   5.447
11573TIP3   OH234654   6.117   4.523   5.839
11573TIP3    H134655   6.179   4.596   5.862
11573TIP3    H234656   6.166   4.483   5.764
11574TIP3   OH234657   6.180   5.379   5.951
11574TIP3    H134658   6.156   5.466   5.913
11574TIP3    H234659   6.099   5.363   6.004
11575TIP3   OH234660   5.569   5.068   5.184
11575TIP3    H134661   5.528   5.098   5.101
11575TIP3    H234662   5.598   5.154   5.222
11576TIP3   OH234663   7.011   5.586   5.423
11576TIP3    H134664   6.921   5.577   5.463
11576TIP3    H234665   7.002   5.673   5.380
11577TIP3   OH234666   7.305   4.484   5.788
11577TIP3    H134667   7.217   4.512   5.757
11577TIP3    H234668   7.365   4.517   5.718
11578TIP3   OH234669   6.596   4.125   5.773
11578TIP3    H134670   6.582   4.030   5.792
11578TIP3    H234671   6.519   4.164   5.819
11579TIP3   OH234672   6.710   5.631   5.095
11579TIP3    H134673   6.760   5.548   5.077
11579TIP3    H234674   6.773   5.696   5.055
11580TIP3   OH234675   6.854   5.415   5.010
11580TIP3    H134676   6.815   5.334   4.973
11580TIP3    H234677   6.893   5.382   5.094
11581TIP3   OH234678   7.236   5.496   5.769
11581TIP3    H134679   7.224   5.419   5.709
11581TIP3    H234680   7.218   5.571   5.709
11582TIP3   OH234681   6.529   4.890   5.029
11582TIP3    H134682   6.448   4.943   5.010
11582TIP3    H234683   6.574   4.891   4.943
11583TIP3   OH234684   6.487   4.680   4.738
11583TIP3    H134685   6.553   4.730   4.790
11583TIP3    H234686   6.546   4.617   4.691
11584TIP3   OH234687   7.431   5.135   5.615
11584TIP3    H134688   7.348   5.187   5.619
11584TIP3    H234689   7.462   5.160   5.525
11585TIP3   OH234690   6.877   4.974   4.996
11585TIP3    H134691   6.822   4.999   5.075
11585TIP3    H234692   6.961   4.949   5.041
11586TIP3   OH234693   7.111   5.011   5.914
11586TIP3    H134694   7.108   5.095   5.964
11586TIP3    H234695   7.025   5.015   5.868
11587TIP3   OH234696   6.108   4.970   5.414
11587TIP3    H134697   6.068   4.912   5.347
11587TIP3    H234698   6.184   4.916   5.445
11588TIP3   OH234699   6.239   5.381   5.562
11588TIP3    H134700   6.219   5.348   5.473
11588TIP3    H234701   6.328   5.344   5.578
11589TIP3   OH234702   6.238   4.943   5.772
11589TIP3    H134703   6.273   4.918   5.684
11589TIP3    H234704   6.284   5.029   5.789
11590TIP3   OH234705   6.771   5.578   5.546
11590TIP3    H134706   6.758   5.659   5.599
11590TIP3    H234707   6.754   5.506   5.611
11591TIP3   OH234708   6.384   5.499   6.095
11591TIP3    H134709   6.322   5.562   6.138
11591TIP3    H234710   6.319   5.446   6.042
11592TIP3   OH234711   6.716   4.832   4.825
11592TIP3    H134712   6.775   4.892   4.875
11592TIP3    H234713   6.742   4.854   4.732
11593TIP3   OH234714   6.143   5.051   6.205
11593TIP3    H134715   6.145   5.141   6.243
11593TIP3    H234716   6.047   5.034   6.206
11594TIP3   OH234717   6.464   5.506   5.099
11594TIP3    H134718   6.544   5.561   5.108
11594TIP3    H234719   6.400   5.568   5.061
11595TIP3   OH234720   6.178   5.667   6.181
11595TIP3    H134721   6.147   5.667   6.088
11595TIP3    H234722   6.096   5.644   6.231
11596TIP3   OH234723   7.232   4.071   4.874
11596TIP3    H134724   7.151   4.093   4.924
11596TIP3    H234725   7.246   4.154   4.824
11597TIP3   OH234726   5.977   4.814   5.214
11597TIP3    H134727   5.907   4.861   5.163
11597TIP3    H234728   5.935   4.730   5.231
11598TIP3   OH234729   7.032   5.438   4.423
11598TIP3    H134730   7.040   5.535   4.407
11598TIP3    H234731   7.125   5.409   4.410
11599TIP3   OH234732   5.751   5.190   6.127
11599TIP3    H134733   5.742   5.178   6.031
11599TIP3    H234734   5.797   5.108   6.154
11600TIP3   OH234735   5.635   5.364   5.830
11600TIP3    H134736   5.682   5.358   5.746
11600TIP3    H234737   5.580   5.443   5.816
11601TIP3   OH234738   7.476   5.847   5.818
11601TIP3    H134739   7.476   5.751   5.834
11601TIP3    H234740   7.392   5.871   5.863
11602TIP3   OH234741   6.581   5.629   5.953
11602TIP3    H134742   6.577   5.722   5.984
11602TIP3    H234743   6.509   5.588   6.006
11603TIP3   OH234744   6.346   5.756   4.902
11603TIP3    H134745   6.296   5.737   4.821
11603TIP3    H234746   6.308   5.842   4.931
11604TIP3   OH234747   5.782   5.605   5.287
11604TIP3    H134748   5.828   5.598   5.374
11604TIP3    H234749   5.714   5.536   5.299
11605TIP3   OH234750   6.543   5.659   4.540
11605TIP3    H134751   6.600   5.588   4.504
11605TIP3    H234752   6.579   5.669   4.631
11606TIP3   OH234753   6.597   5.708   4.809
11606TIP3    H134754   6.508   5.717   4.851
11606TIP3    H234755   6.647   5.668   4.882
11607TIP3   OH234756   7.363   4.972   6.093
11607TIP3    H134757   7.281   4.983   6.042
11607TIP3    H234758   7.379   4.876   6.082
11608TIP3   OH234759   5.962   5.375   6.117
11608TIP3    H134760   6.011   5.359   6.200
11608TIP3    H234761   5.883   5.319   6.128
11609TIP3   OH234762   6.359   4.204   5.902
11609TIP3    H134763   6.270   4.173   5.873
11609TIP3    H234764   6.333   4.285   5.951
11610TIP3   OH234765   6.895   4.319   6.096
11610TIP3    H134766   6.964   4.290   6.159
11610TIP3    H234767   6.812   4.298   6.144
11611TIP3   OH234768   7.131   4.748   6.013
11611TIP3    H134769   7.081   4.746   6.098
11611TIP3    H234770   7.107   4.836   5.977
11612TIP3   OH234771   6.792   4.873   4.568
11612TIP3    H134772   6.759   4.850   4.479
11612TIP3    H234773   6.875   4.919   4.546
11613TIP3   OH234774   6.502   4.251   4.870
11613TIP3    H134775   6.471   4.250   4.963
11613TIP3    H234776   6.467   4.165   4.840
11614TIP3   OH234777   6.293   4.720   5.919
11614TIP3    H134778   6.243   4.738   6.000
11614TIP3    H234779   6.276   4.802   5.867
11615TIP3   OH234780   6.175   4.607   5.433
11615TIP3    H134781   6.082   4.581   5.452
11615TIP3    H234782   6.187   4.565   5.345
11616TIP3   OH234783   6.666   4.691   5.163
11616TIP3    H134784   6.615   4.763   5.119
11616TIP3    H234785   6.721   4.659   5.089
11617TIP3   OH234786   6.841   4.967   6.246
11617TIP3    H134787   6.818   4.895   6.308
11617TIP3    H234788   6.935   4.981   6.268
11618TIP3   OH234789   6.822   4.718   5.398
11618TIP3    H134790   6.760   4.746   5.329
11618TIP3    H234791   6.857   4.638   5.354
11619TIP3   OH234792   6.113   4.748   6.127
11619TIP3    H134793   6.146   4.809   6.195
11619TIP3    H234794   6.099   4.666   6.178
11620TIP3   OH234795   6.162   4.224   4.837
11620TIP3    H134796   6.152   4.222   4.934
11620TIP3    H234797   6.084   4.277   4.812
11621TIP3   OH234798   5.703   4.270   5.711
11621TIP3    H134799   5.780   4.301   5.762
11621TIP3    H234800   5.742   4.238   5.627
11622TIP3   OH234801   5.671   4.251   5.226
11622TIP3    H134802   5.715   4.290   5.147
11622TIP3    H234803   5.608   4.324   5.247
11623TIP3   OH234804   6.833   4.964   5.820
11623TIP3    H134805   6.866   4.893   5.761
11623TIP3    H234806   6.803   4.910   5.896
11624TIP3   OH234807   6.507   4.426   5.492
11624TIP3    H134808   6.426   4.425   5.546
11624TIP3    H234809   6.577   4.421   5.561
11625TIP3   OH234810   5.937   4.486   5.500
11625TIP3    H134811   5.842   4.493   5.473
11625TIP3    H234812   5.959   4.393   5.478
11626TIP3   OH234813   6.204   4.477   5.194
11626TIP3    H134814   6.297   4.496   5.171
11626TIP3    H234815   6.155   4.501   5.111
11627TIP3   OH234816   6.995   4.504   5.697
11627TIP3    H134817   6.963   4.517   5.789
11627TIP3    H234818   6.927   4.444   5.662
11628TIP3   OH234819   6.054   4.514   4.970
11628TIP3    H134820   5.981   4.469   4.924
11628TIP3    H234821   6.104   4.551   4.894
11629TIP3   OH234822   7.168   6.192   5.915
11629TIP3    H134823   7.168   6.217   5.821
11629TIP3    H234824   7.245   6.241   5.949
11630TIP3   OH234825   6.122   5.301   6.338
11630TIP3    H134826   6.203   5.333   6.383
11630TIP3    H234827   6.058   5.304   6.412
11631TIP3   OH234828   6.585   4.758   5.592
11631TIP3    H134829   6.659   4.718   5.543
11631TIP3    H234830   6.591   4.713   5.678
11632TIP3   OH234831   6.105   4.242   5.476
11632TIP3    H134832   6.068   4.165   5.525
11632TIP3    H234833   6.151   4.198   5.403
11633TIP3   OH234834   6.562   4.657   5.878
11633TIP3    H134835   6.472   4.690   5.895
11633TIP3    H234836   6.618   4.717   5.930
11634TIP3   OH234837   6.300   5.042   4.976
11634TIP3    H134838   6.227   4.978   4.964
11634TIP3    H234839   6.280   5.077   5.067
11635TIP3   OH234840   7.197   5.280   5.602
11635TIP3    H134841   7.222   5.330   5.522
11635TIP3    H234842   7.112   5.239   5.575
11636TIP3   OH234843   6.755   4.356   4.839
11636TIP3    H134844   6.659   4.338   4.850
11636TIP3    H234845   6.765   4.449   4.866
11637TIP3   OH234846   6.695   5.361   5.974
11637TIP3    H134847   6.728   5.346   6.063
11637TIP3    H234848   6.660   5.452   5.979
11638TIP3   OH234849   6.824   4.603   4.944
11638TIP3    H134850   6.921   4.610   4.959
11638TIP3    H234851   6.805   4.684   4.892
11639TIP3   OH234852   5.993   5.066   5.649
11639TIP3    H134853   6.029   5.041   5.562
11639TIP3    H234854   6.040   5.005   5.708
11640TIP3   OH234855   6.443   5.193   4.798
11640TIP3    H134856   6.395   5.279   4.803
11640TIP3    H234857   6.389   5.138   4.859
11641TIP3   OH234858   5.875   4.987   6.268
11641TIP3    H134859   5.898   4.976   6.362
11641TIP3    H234860   5.812   4.914   6.255
11642TIP3   OH234861   6.600   5.102   6.286
11642TIP3    H134862   6.539   5.045   6.236
11642TIP3    H234863   6.687   5.067   6.257
11643TIP3   OH234864   6.858   5.621   5.874
11643TIP3    H134865   6.761   5.622   5.885
11643TIP3    H234866   6.885   5.675   5.951
11644TIP3   OH234867   7.265   4.697   4.778
11644TIP3    H134868   7.204   4.652   4.715
11644TIP3    H234869   7.262   4.787   4.737
11645TIP3   OH234870   7.485   5.554   5.858
11645TIP3    H134871   7.388   5.548   5.849
11645TIP3    H234872   7.512   5.524   5.768
11646TIP3   OH234873   6.969   5.514   4.687
11646TIP3    H134874   6.942   5.444   4.748
11646TIP3    H234875   6.982   5.467   4.603
11647TIP3   OH234876   6.963   5.144   5.519
11647TIP3    H134877   6.870   5.118   5.533
11647TIP3    H234878   6.997   5.063   5.475
11648TIP3   OH234879   6.093   5.371   5.277
11648TIP3    H134880   6.090   5.453   5.224
11648TIP3    H234881   5.999   5.356   5.293
11649TIP3   OH234882   5.659   4.673   4.986
11649TIP3    H134883   5.702   4.759   5.006
11649TIP3    H234884   5.580   4.679   5.044
11650TIP3   OH234885   6.225   5.135   5.219
11650TIP3    H134886   6.191   5.225   5.237
11650TIP3    H234887   6.188   5.085   5.294
11651TIP3   OH234888   6.368   5.709   5.748
11651TIP3    H134889   6.408   5.781   5.696
11651TIP3    H234890   6.446   5.674   5.795
11652TIP3   OH234891   6.013   5.608   5.130
11652TIP3    H134892   5.927   5.614   5.175
11652TIP3    H234893   6.043   5.701   5.136
11653TIP3   OH234894   6.747   5.348   5.706
11653TIP3    H134895   6.737   5.346   5.803
11653TIP3    H234896   6.827   5.295   5.694
11654TIP3   OH234897   6.727   5.243   4.589
11654TIP3    H134898   6.780   5.217   4.667
11654TIP3    H234899   6.638   5.215   4.618
11655TIP3   OH234900   6.997   5.881   5.754
11655TIP3    H134901   6.917   5.826   5.747
11655TIP3    H234902   6.982   5.945   5.682
11656TIP3   OH234903   7.063   5.714   4.406
11656TIP3    H134904   7.100   5.787   4.354
11656TIP3    H234905   6.983   5.759   4.441
11657TIP3   OH234906   6.080   4.494   6.270
11657TIP3    H134907   5.983   4.497   6.280
11657TIP3    H234908   6.105   4.433   6.341
11658TIP3   OH234909   6.887   5.173   4.802
11658TIP3    H134910   6.878   5.107   4.874
11658TIP3    H234911   6.985   5.171   4.790
11659TIP3   OH234912   5.806   5.601   5.906
11659TIP3    H134913   5.826   5.507   5.921
11659TIP3    H234914   5.864   5.645   5.969
11660TIP3   OH234915   6.091   5.220   4.586
11660TIP3    H134916   6.102   5.126   4.562
11660TIP3    H234917   6.070   5.212   4.682
11661TIP3   OH234918   6.036   5.227   4.856
11661TIP3    H134919   6.104   5.201   4.920
11661TIP3    H234920   6.037   5.325   4.866
11662TIP3   OH234921   5.768   4.920   5.065
11662TIP3    H134922   5.701   4.964   5.122
11662TIP3    H234923   5.779   4.988   4.996
11663TIP3   OH234924   6.922   4.556   5.957
11663TIP3    H134925   7.003   4.594   5.994
11663TIP3    H234926   6.910   4.475   6.010
11664TIP3   OH234927   6.804   4.304   5.123
11664TIP3    H134928   6.791   4.329   5.030
11664TIP3    H234929   6.845   4.386   5.160
11665TIP3   OH234930   6.303   5.425   4.807
11665TIP3    H134931   6.215   5.447   4.844
11665TIP3    H234932   6.317   5.502   4.750
11666TIP3   OH234933   6.487   4.488   5.223
11666TIP3    H134934   6.552   4.561   5.206
11666TIP3    H234935   6.493   4.479   5.320
11667TIP3   OH234936   6.759   4.802   6.029
11667TIP3    H134937   6.785   4.854   6.107
11667TIP3    H234938   6.813   4.722   6.038
11668TIP3   OH234939   6.632   4.209   5.323
11668TIP3    H134940   6.623   4.286   5.382
11668TIP3    H234941   6.695   4.243   5.256
11669TIP3   OH234942   6.048   5.499   4.878
11669TIP3    H134943   6.017   5.569   4.816
11669TIP3    H234944   6.031   5.540   4.965
11670TIP3   OH234945   6.147   4.213   5.112
11670TIP3    H134946   6.142   4.303   5.151
11670TIP3    H234947   6.243   4.197   5.122
11671TIP3   OH234948   7.397   4.705   6.012
11671TIP3    H134949   7.299   4.704   6.019
11671TIP3    H234950   7.408   4.661   5.927
11672TIP3   OH234951   7.049   4.899   5.399
11672TIP3    H134952   6.973   4.840   5.412
11672TIP3    H234953   7.120   4.852   5.448
11673TIP3   OH234954   5.763   5.124   4.869
11673TIP3    H134955   5.828   5.196   4.878
11673TIP3    H234956   5.809   5.069   4.802
11674TIP3   OH234957   5.706   4.402   4.998
11674TIP3    H134958   5.704   4.500   4.999
11674TIP3    H234959   5.621   4.381   4.957
11675TIP3   OH234960   7.020   5.857   5.347
11675TIP3    H134961   6.979   5.906   5.273
11675TIP3    H234962   7.115   5.875   5.328
11676TIP3   OH234963   6.095   4.124   5.873
11676TIP3    H134964   6.064   4.089   5.786
11676TIP3    H234965   6.084   4.045   5.931
11677TIP3   OH234966   5.622   5.327   5.256
11677TIP3    H134967   5.573   5.364   5.332
11677TIP3    H234968   5.586   5.380   5.181
11678TIP3   OH234969   5.793   5.890   6.328
11678TIP3    H134970   5.880   5.888   6.373
11678TIP3    H234971   5.771   5.795   6.323
11679TIP3   OH234972   6.272   5.846   6.370
11679TIP3    H134973   6.366   5.825   6.374
11679TIP3    H234974   6.243   5.786   6.298
11680TIP3   OH234975   6.252   5.422   4.495
11680TIP3    H134976   6.195   5.353   4.536
11680TIP3    H234977   6.329   5.368   4.470
11681TIP3   OH234978   6.908   5.758   6.109
11681TIP3    H134979   6.902   5.686   6.177
11681TIP3    H234980   6.990   5.805   6.136
11682TIP3   OH234981   6.686   5.462   4.411
11682TIP3    H134982   6.728   5.398   4.471
11682TIP3    H234983   6.744   5.460   4.333
11683TIP3   OH234984   5.922   5.292   6.531
11683TIP3    H134985   5.940   5.196   6.531
11683TIP3    H234986   5.836   5.296   6.483
11684TIP3   OH234987   5.900   4.939   4.722
11684TIP3    H134988   5.957   4.910   4.796
11684TIP3    H234989   5.967   4.944   4.650
11685TIP3   OH234990   6.526   5.378   6.302
11685TIP3    H134991   6.486   5.399   6.215
11685TIP3    H234992   6.558   5.286   6.290
11686TIP3   OH234993   6.415   5.142   4.528
11686TIP3    H134994   6.414   5.155   4.625
11686TIP3    H234995   6.412   5.044   4.523
11687TIP3   OH234996   7.021   5.390   5.909
11687TIP3    H134997   7.097   5.432   5.864
11687TIP3    H234998   6.952   5.458   5.894
11688TIP3   OH234999   6.039   5.030   6.509
11688TIP3    H135000   6.116   4.983   6.476
11688TIP3    H235001   6.070   5.059   6.598
11689TIP3   OH235002   6.105   4.847   4.941
11689TIP3    H135003   6.076   4.810   5.026
11689TIP3    H235004   6.141   4.769   4.895
11690TIP3   OH235005   6.376   4.908   6.172
11690TIP3    H135006   6.299   4.969   6.174
11690TIP3    H235007   6.426   4.944   6.094
11691TIP3   OH235008   6.210   4.640   4.782
11691TIP3    H135009   6.183   4.651   4.688
11691TIP3    H235010   6.307   4.647   4.774
11692TIP3   OH235011   6.893   5.312   6.304
11692TIP3    H135012   6.971   5.283   6.254
11692TIP3    H235013   6.889   5.246   6.376
11693TIP3   OH235014   7.026   4.968   4.450
11693TIP3    H135015   7.007   4.924   4.365
11693TIP3    H235016   6.994   5.059   4.429
11694TIP3   OH235017   6.499   4.700   6.297
11694TIP3    H135018   6.500   4.621   6.240
11694TIP3    H235019   6.456   4.767   6.239
11695TIP3   OH235020   6.502   4.488   6.106
11695TIP3    H135021   6.530   4.527   6.021
11695TIP3    H235022   6.409   4.463   6.087
11696TIP3   OH235023   6.525   5.021   5.980
11696TIP3    H135024   6.611   5.033   5.936
11696TIP3    H235025   6.469   5.087   5.933
11697TIP3   OH235026   7.108   4.987   6.356
11697TIP3    H135027   7.156   4.903   6.366
11697TIP3    H235028   7.177   5.044   6.319
11698TIP3   OH235029   7.149   5.241   6.094
11698TIP3    H135030   7.092   5.297   6.036
11698TIP3    H235031   7.237   5.262   6.055
11699TIP3   OH235032   6.377   4.806   6.531
11699TIP3    H135033   6.311   4.736   6.544
11699TIP3    H235034   6.411   4.784   6.442
11700TIP3   OH235035   6.634   4.249   6.174
11700TIP3    H135036   6.584   4.330   6.151
11700TIP3    H235037   6.565   4.180   6.163
11701TIP3   OH235038   6.759   4.750   6.388
11701TIP3    H135039   6.745   4.735   6.483
11701TIP3    H235040   6.670   4.727   6.355
11702TIP3   OH235041   6.999   4.704   6.244
11702TIP3    H135042   6.923   4.703   6.306
11702TIP3    H235043   7.073   4.672   6.301
11703TIP3   OH235044   7.229   4.644   6.393
11703TIP3    H135045   7.242   4.548   6.409
11703TIP3    H235046   7.224   4.680   6.484
11704TIP3   OH235047   6.218   4.586   6.585
11704TIP3    H135048   6.220   4.495   6.549
11704TIP3    H235049   6.256   4.571   6.674
11705TIP3   OH235050   6.726   4.258   6.433
11705TIP3    H135051   6.793   4.187   6.427
11705TIP3    H235052   6.687   4.253   6.343
11706TIP3   OH235053   6.794   4.472   6.590
11706TIP3    H135054   6.773   4.400   6.526
11706TIP3    H235055   6.715   4.530   6.582
11707TIP3   OH235056   6.018   5.702   4.690
11707TIP3    H135057   6.112   5.694   4.668
11707TIP3    H235058   5.987   5.753   4.613
11708TIP3   OH235059   5.494   5.084   4.900
11708TIP3    H135060   5.590   5.104   4.889
11708TIP3    H235061   5.489   4.995   4.859
11709TIP3   OH235062   5.406   5.698   5.317
11709TIP3    H135063   5.339   5.635   5.282
11709TIP3    H235064   5.457   5.637   5.375
11710TIP3   OH235065   5.553   5.536   5.480
11710TIP3    H135066   5.481   5.482   5.523
11710TIP3    H235067   5.590   5.584   5.557
11711TIP3   OH235068   7.275   5.945   5.307
11711TIP3    H135069   7.301   5.979   5.394
11711TIP3    H235070   7.340   5.987   5.248
11712TIP3   OH235071   7.299   5.967   5.589
11712TIP3    H135072   7.256   5.879   5.587
11712TIP3    H235073   7.376   5.946   5.644
11713TIP3   OH235074   7.350   5.646   6.164
11713TIP3    H135075   7.276   5.654   6.228
11713TIP3    H235076   7.392   5.734   6.170
11714TIP3   OH235077   7.166   5.155   4.779
11714TIP3    H135078   7.232   5.221   4.750
11714TIP3    H235079   7.211   5.118   4.858
11715TIP3   OH235080   7.293   5.023   4.984
11715TIP3    H135081   7.227   4.982   5.043
11715TIP3    H235082   7.359   5.059   5.047
11716TIP3   OH235083   7.349   5.418   5.416
11716TIP3    H135084   7.402   5.351   5.368
11716TIP3    H235085   7.346   5.491   5.351
11717TIP3   OH235086   7.176   5.716   5.611
11717TIP3    H135087   7.104   5.758   5.661
11717TIP3    H235088   7.126   5.670   5.540
11718TIP3   OH235089   7.229   4.931   4.630
11718TIP3    H135090   7.157   4.934   4.563
11718TIP3    H235091   7.203   5.008   4.685
11719TIP3   OH235092   7.100   4.603   4.584
11719TIP3    H135093   7.056   4.642   4.507
11719TIP3    H235094   7.077   4.508   4.573
11720TIP3   OH235095   7.104   4.882   5.129
11720TIP3    H135096   7.113   4.786   5.123
11720TIP3    H235097   7.090   4.896   5.225
11721TIP3   OH235098   5.730   4.945   5.895
11721TIP3    H135099   5.719   4.927   5.799
11721TIP3    H235100   5.829   4.951   5.901
11722TIP3   OH235101   7.395   5.306   5.989
11722TIP3    H135102   7.466   5.239   5.977
11722TIP3    H235103   7.420   5.375   5.925
11723TIP3   OH235104   7.577   5.107   5.997
11723TIP3    H135105   7.503   5.058   6.038
11723TIP3    H235106   7.651   5.044   6.014
11724TIP3   OH235107   7.046   4.336   4.566
11724TIP3    H135108   7.120   4.308   4.622
11724TIP3    H235109   6.973   4.278   4.593
11725TIP3   OH235110   7.102   4.598   5.022
11725TIP3    H135111   7.144   4.510   5.037
11725TIP3    H235112   7.160   4.632   4.951
11726TIP3   OH235113   7.262   4.767   5.520
11726TIP3    H135114   7.348   4.792   5.478
11726TIP3    H235115   7.276   4.805   5.609
11727TIP3   OH235116   7.334   4.915   5.750
11727TIP3    H135117   7.257   4.949   5.799
11727TIP3    H235118   7.366   4.996   5.705
11728TIP3   OH235119   5.952   4.644   6.564
11728TIP3    H135120   6.049   4.634   6.560
11728TIP3    H235121   5.926   4.555   6.595
11729TIP3   OH235122   7.785   4.509   6.306
11729TIP3    H135123   7.844   4.443   6.264
11729TIP3    H235124   7.755   4.561   6.228
11730TIP3   OH235125   7.211   4.348   5.062
11730TIP3    H135126   7.259   4.331   5.145
11730TIP3    H235127   7.150   4.271   5.060
11731TIP3   OH235128   5.912   4.333   5.884
11731TIP3    H135129   5.973   4.257   5.892
11731TIP3    H235130   5.975   4.407   5.875
11732TIP3   OH235131   5.713   4.606   5.953
11732TIP3    H135132   5.759   4.595   5.868
11732TIP3    H235133   5.745   4.692   5.981
11733TIP3   OH235134   7.652   4.643   6.109
11733TIP3    H135135   7.566   4.685   6.128
11733TIP3    H235136   7.622   4.569   6.053
11734TIP3   OH235137   7.288   4.280   4.696
11734TIP3    H135138   7.329   4.210   4.642
11734TIP3    H235139   7.355   4.351   4.693
11735TIP3   OH235140   5.697   4.113   5.458
11735TIP3    H135141   5.604   4.104   5.484
11735TIP3    H235142   5.691   4.169   5.378
11736TIP3   OH235143   6.858   5.816   4.963
11736TIP3    H135144   6.908   5.800   4.880
11736TIP3    H235145   6.915   5.881   5.007
11737TIP3   OH235146   5.919   4.193   6.273
11737TIP3    H135147   5.865   4.183   6.353
11737TIP3    H235148   5.852   4.229   6.210
11738TIP3   OH235149   5.958   5.618   6.344
11738TIP3    H135150   5.864   5.596   6.328
11738TIP3    H235151   5.966   5.603   6.439
11739TIP3   OH235152   6.145   5.648   5.902
11739TIP3    H135153   6.091   5.720   5.862
11739TIP3    H235154   6.227   5.664   5.852
11740TIP3   OH235155   6.579   5.898   6.030
11740TIP3    H135156   6.622   5.898   6.118
11740TIP3    H235157   6.646   5.947   5.977
11741TIP3   OH235158   6.772   6.037   5.899
11741TIP3    H135159   6.845   5.990   5.858
11741TIP3    H235160   6.819   6.102   5.955
11742TIP3   OH235161   7.554   4.405   5.991
11742TIP3    H135162   7.463   4.395   5.957
11742TIP3    H235163   7.588   4.313   5.981
11743TIP3   OH235164   5.810   5.914   5.926
11743TIP3    H135165   5.722   5.943   5.894
11743TIP3    H235166   5.811   5.953   6.013
11744TIP3   OH235167   6.040   5.866   5.782
11744TIP3    H135168   5.957   5.893   5.827
11744TIP3    H235169   6.033   5.916   5.699
11745TIP3   OH235170   6.479   5.912   5.579
11745TIP3    H135171   6.406   5.905   5.513
11745TIP3    H235172   6.472   6.005   5.601
11746TIP3   OH235173   6.747   5.845   5.627
11746TIP3    H135174   6.653   5.865   5.613
11746TIP3    H235175   6.790   5.918   5.580
11747TIP3   OH235176   6.944   6.043   5.537
11747TIP3    H135177   6.933   6.127   5.489
11747TIP3    H235178   6.974   5.983   5.465
11748TIP3   OH235179   5.717   5.701   5.666
11748TIP3    H135180   5.750   5.680   5.757
11748TIP3    H235181   5.791   5.661   5.614
11749TIP3   OH235182   5.915   5.575   5.524
11749TIP3    H135183   5.931   5.492   5.575
11749TIP3    H235184   6.005   5.613   5.521
11750TIP3   OH235185   6.182   5.661   5.526
11750TIP3    H135186   6.214   5.568   5.521
11750TIP3    H235187   6.220   5.688   5.611
11751TIP3   OH235188   6.758   4.321   5.612
11751TIP3    H135189   6.716   4.250   5.663
11751TIP3    H235190   6.832   4.275   5.568
11752TIP3   OH235191   7.278   4.203   5.514
11752TIP3    H135192   7.314   4.255   5.438
11752TIP3    H235193   7.183   4.224   5.508
11753TIP3   OH235194   7.375   4.301   5.278
11753TIP3    H135195   7.450   4.249   5.240
11753TIP3    H235196   7.410   4.392   5.264
11754TIP3   OH235197   6.007   4.030   5.626
11754TIP3    H135198   5.914   3.997   5.628
11754TIP3    H235199   6.055   3.944   5.622
11755TIP3   OH235200   5.801   3.903   5.278
11755TIP3    H135201   5.824   3.961   5.203
11755TIP3    H235202   5.768   3.968   5.344
11756TIP3   OH235203   6.453   4.062   5.507
11756TIP3    H135204   6.511   4.111   5.446
11756TIP3    H235205   6.478   4.100   5.593
11757TIP3   OH235206   6.994   4.211   5.491
11757TIP3    H135207   6.997   4.170   5.404
11757TIP3    H235208   6.984   4.132   5.549
11758TIP3   OH235209   7.028   4.136   5.054
11758TIP3    H135210   6.942   4.180   5.072
11758TIP3    H235211   7.013   4.049   5.099
11759TIP3   OH235212   5.511   5.473   5.054
11759TIP3    H135213   5.426   5.442   5.018
11759TIP3    H235214   5.502   5.568   5.038
11760TIP3   OH235215   5.913   4.062   5.036
11760TIP3    H135216   5.963   3.998   4.981
11760TIP3    H235217   5.986   4.115   5.074
11761TIP3   OH235218   6.424   4.238   5.134
11761TIP3    H135219   6.482   4.191   5.197
11761TIP3    H235220   6.443   4.331   5.161
11762TIP3   OH235221   6.284   5.656   4.637
11762TIP3    H135222   6.372   5.680   4.599
11762TIP3    H235223   6.261   5.581   4.576
11763TIP3   OH235224   7.003   5.781   4.730
11763TIP3    H135225   6.995   5.683   4.718
11763TIP3    H235226   6.957   5.813   4.650
11764TIP3   OH235227   6.213   4.314   6.522
11764TIP3    H135228   6.180   4.240   6.576
11764TIP3    H235229   6.308   4.313   6.547
11765TIP3   OH235230   6.464   4.311   6.638
11765TIP3    H135231   6.549   4.285   6.597
11765TIP3    H235232   6.452   4.240   6.704
11766TIP3   OH235233   5.585   5.496   4.692
11766TIP3    H135234   5.585   5.515   4.787
11766TIP3    H235235   5.674   5.454   4.679
11767TIP3   OH235236   7.291   4.374   6.424
11767TIP3    H135237   7.309   4.342   6.515
11767TIP3    H235238   7.380   4.368   6.383
11768TIP3   OH235239   7.228   5.923   5.914
11768TIP3    H135240   7.148   5.892   5.865
11768TIP3    H235241   7.208   6.018   5.921
11769TIP3   OH235242   8.495   5.303   4.673
11769TIP3    H135243   8.460   5.393   4.660
11769TIP3    H235244   8.418   5.249   4.650
11770TIP3   OH235245   8.484   5.294   5.065
11770TIP3    H135246   8.521   5.283   5.155
11770TIP3    H235247   8.447   5.205   5.049
11771TIP3   OH235248   7.791   5.188   5.430
11771TIP3    H135249   7.822   5.121   5.493
11771TIP3    H235250   7.871   5.243   5.420
11772TIP3   OH235251   7.767   5.601   5.152
11772TIP3    H135252   7.758   5.504   5.153
11772TIP3    H235253   7.864   5.609   5.142
11773TIP3   OH235254   7.471   4.802   4.934
11773TIP3    H135255   7.423   4.885   4.953
11773TIP3    H235256   7.400   4.751   4.891
11774TIP3   OH235257   7.528   5.090   5.115
11774TIP3    H135258   7.579   5.013   5.148
11774TIP3    H235259   7.590   5.128   5.050
11775TIP3   OH235260   8.388   6.053   4.762
11775TIP3    H135261   8.437   5.981   4.718
11775TIP3    H235262   8.393   6.027   4.855
11776TIP3   OH235263   8.293   5.521   5.113
11776TIP3    H135264   8.335   5.444   5.071
11776TIP3    H235265   8.374   5.571   5.136
11777TIP3   OH235266   8.704   5.046   5.136
11777TIP3    H135267   8.715   4.952   5.163
11777TIP3    H235268   8.655   5.031   5.052
11778TIP3   OH235269   8.042   4.682   5.110
11778TIP3    H135270   8.027   4.754   5.046
11778TIP3    H235271   7.995   4.609   5.065
11779TIP3   OH235272   8.733   4.774   4.743
11779TIP3    H135273   8.795   4.715   4.787
11779TIP3    H235274   8.792   4.816   4.678
11780TIP3   OH235275   7.677   4.884   5.217
11780TIP3    H135276   7.760   4.865   5.265
11780TIP3    H235277   7.690   4.829   5.137
11781TIP3   OH235278   8.117   5.081   5.013
11781TIP3    H135279   8.211   5.057   5.025
11781TIP3    H235280   8.079   4.997   4.980
11782TIP3   OH235281   8.039   4.666   5.544
11782TIP3    H135282   7.981   4.703   5.475
11782TIP3    H235283   7.985   4.684   5.624
11783TIP3   OH235284   8.403   5.536   4.547
11783TIP3    H135285   8.357   5.509   4.466
11783TIP3    H235286   8.346   5.613   4.573
11784TIP3   OH235287   8.147   5.442   5.335
11784TIP3    H135288   8.086   5.512   5.369
11784TIP3    H235289   8.190   5.489   5.260
11785TIP3   OH235290   7.911   4.781   5.328
11785TIP3    H135291   7.973   4.854   5.350
11785TIP3    H235292   7.960   4.741   5.252
11786TIP3   OH235293   7.978   5.639   5.434
11786TIP3    H135294   7.952   5.726   5.396
11786TIP3    H235295   7.898   5.621   5.489
11787TIP3   OH235296   7.365   5.327   4.672
11787TIP3    H135297   7.326   5.354   4.587
11787TIP3    H235298   7.397   5.414   4.707
11788TIP3   OH235299   8.792   5.794   4.851
11788TIP3    H135300   8.719   5.803   4.916
11788TIP3    H235301   8.825   5.886   4.853
11789TIP3   OH235302   8.383   4.375   5.261
11789TIP3    H135303   8.364   4.281   5.279
11789TIP3    H235304   8.306   4.417   5.305
11790TIP3   OH235305   8.511   5.886   4.573
11790TIP3    H135306   8.585   5.825   4.586
11790TIP3    H235307   8.560   5.963   4.536
11791TIP3   OH235308   8.705   5.606   4.551
11791TIP3    H135309   8.659   5.580   4.469
11791TIP3    H235310   8.630   5.605   4.613
11792TIP3   OH235311   9.030   5.733   5.278
11792TIP3    H135312   9.040   5.669   5.204
11792TIP3    H235313   9.017   5.818   5.228
11793TIP3   OH235314   8.324   5.148   4.514
11793TIP3    H135315   8.241   5.197   4.497
11793TIP3    H235316   8.362   5.145   4.425
11794TIP3   OH235317   8.283   4.932   4.229
11794TIP3    H135318   8.351   4.987   4.273
11794TIP3    H235319   8.340   4.870   4.179
11795TIP3   OH235320   8.669   5.230   4.480
11795TIP3    H135321   8.611   5.258   4.555
11795TIP3    H235322   8.741   5.185   4.529
11796TIP3   OH235323   8.885   5.235   5.397
11796TIP3    H135324   8.906   5.317   5.447
11796TIP3    H235325   8.803   5.262   5.353
11797TIP3   OH235326   7.906   5.226   4.902
11797TIP3    H135327   7.865   5.168   4.834
11797TIP3    H235328   7.982   5.172   4.932
11798TIP3   OH235329   8.033   5.636   5.051
11798TIP3    H135330   8.017   5.602   4.962
11798TIP3    H235331   8.124   5.603   5.069
11799TIP3   OH235332   8.038   5.201   5.256
11799TIP3    H135333   8.073   5.176   5.168
11799TIP3    H235334   8.083   5.286   5.273
11800TIP3   OH235335   8.569   5.837   5.021
11800TIP3    H135336   8.561   5.923   5.069
11800TIP3    H235337   8.549   5.772   5.091
11801TIP3   OH235338   8.173   5.752   5.592
11801TIP3    H135339   8.108   5.814   5.631
11801TIP3    H235340   8.114   5.701   5.532
11802TIP3   OH235341   8.511   5.082   4.308
11802TIP3    H135342   8.567   5.145   4.358
11802TIP3    H235343   8.537   5.104   4.215
11803TIP3   OH235344   7.936   5.308   5.686
11803TIP3    H135345   7.940   5.397   5.727
11803TIP3    H235346   7.840   5.289   5.696
11804TIP3   OH235347   8.257   5.765   4.588
11804TIP3    H135348   8.334   5.823   4.598
11804TIP3    H235349   8.192   5.822   4.545
11805TIP3   OH235350   7.972   5.922   5.667
11805TIP3    H135351   7.938   5.924   5.575
11805TIP3    H235352   7.892   5.894   5.717
11806TIP3   OH235353   7.772   5.071   4.704
11806TIP3    H135354   7.703   5.116   4.651
11806TIP3    H235355   7.734   4.984   4.717
11807TIP3   OH235356   8.821   5.707   3.913
11807TIP3    H135357   8.819   5.794   3.869
11807TIP3    H235358   8.902   5.669   3.876
11808TIP3   OH235359   7.551   5.456   5.614
11808TIP3    H135360   7.484   5.435   5.546
11808TIP3    H235361   7.589   5.368   5.635
11809TIP3   OH235362   7.407   5.647   5.247
11809TIP3    H135363   7.503   5.642   5.237
11809TIP3    H235364   7.398   5.726   5.302
11810TIP3   OH235365   8.355   5.884   5.430
11810TIP3    H135366   8.420   5.937   5.481
11810TIP3    H235367   8.293   5.852   5.499
11811TIP3   OH235368   8.138   6.010   4.391
11811TIP3    H135369   8.093   5.994   4.306
11811TIP3    H235370   8.106   6.100   4.415
11812TIP3   OH235371   7.576   5.861   4.775
11812TIP3    H135372   7.623   5.852   4.861
11812TIP3    H235373   7.523   5.779   4.775
11813TIP3   OH235374   8.337   5.919   4.031
11813TIP3    H135375   8.393   5.849   3.991
11813TIP3    H235376   8.375   5.927   4.120
11814TIP3   OH235377   8.390   5.962   4.302
11814TIP3    H135378   8.300   5.973   4.340
11814TIP3    H235379   8.440   5.932   4.379
11815TIP3   OH235380   7.758   5.636   5.596
11815TIP3    H135381   7.803   5.625   5.682
11815TIP3    H235382   7.682   5.574   5.605
11816TIP3   OH235383   8.154   4.460   5.390
11816TIP3    H135384   8.065   4.431   5.361
11816TIP3    H235385   8.129   4.543   5.437
11817TIP3   OH235386   8.654   4.600   5.562
11817TIP3    H135387   8.721   4.564   5.625
11817TIP3    H235388   8.570   4.575   5.608
11818TIP3   OH235389   8.963   5.000   5.518
11818TIP3    H135390   8.907   5.015   5.596
11818TIP3    H235391   8.939   5.080   5.464
11819TIP3   OH235392   8.593   5.136   4.056
11819TIP3    H135393   8.558   5.107   3.969
11819TIP3    H235394   8.659   5.200   4.027
11820TIP3   OH235395   8.313   4.506   4.361
11820TIP3    H135396   8.275   4.505   4.451
11820TIP3    H235397   8.269   4.427   4.324
11821TIP3   OH235398   8.087   4.979   5.405
11821TIP3    H135399   8.035   4.997   5.486
11821TIP3    H235400   8.070   5.060   5.352
11822TIP3   OH235401   7.971   4.863   4.920
11822TIP3    H135402   7.879   4.836   4.939
11822TIP3    H235403   7.984   4.821   4.832
11823TIP3   OH235404   8.463   4.950   4.647
11823TIP3    H135405   8.408   5.020   4.604
11823TIP3    H235406   8.519   4.920   4.574
11824TIP3   OH235407   8.627   5.211   5.708
11824TIP3    H135408   8.617   5.164   5.792
11824TIP3    H235409   8.672   5.297   5.734
11825TIP3   OH235410   8.607   4.982   4.885
11825TIP3    H135411   8.545   4.996   4.810
11825TIP3    H235412   8.645   4.896   4.856
11826TIP3   OH235413   7.909   5.005   5.614
11826TIP3    H135414   7.933   5.070   5.683
11826TIP3    H235415   7.896   4.924   5.666
11827TIP3   OH235416   7.960   4.485   4.324
11827TIP3    H135417   7.948   4.483   4.422
11827TIP3    H235418   7.881   4.537   4.297
11828TIP3   OH235419   7.501   4.525   5.197
11828TIP3    H135420   7.575   4.559   5.251
11828TIP3    H235421   7.544   4.497   5.115
11829TIP3   OH235422   7.464   4.506   4.714
11829TIP3    H135423   7.509   4.544   4.635
11829TIP3    H235424   7.404   4.580   4.735
11830TIP3   OH235425   8.603   5.230   5.307
11830TIP3    H135426   8.649   5.167   5.247
11830TIP3    H235427   8.580   5.170   5.380
11831TIP3   OH235428   8.294   4.706   4.979
11831TIP3    H135429   8.221   4.691   5.042
11831TIP3    H235430   8.370   4.663   5.025
11832TIP3   OH235431   7.733   4.742   4.988
11832TIP3    H135432   7.639   4.749   4.960
11832TIP3    H235433   7.757   4.651   4.964
11833TIP3   OH235434   7.997   4.734   4.680
11833TIP3    H135435   8.091   4.751   4.660
11833TIP3    H235436   7.952   4.758   4.596
11834TIP3   OH235437   8.714   4.781   5.181
11834TIP3    H135438   8.698   4.781   5.276
11834TIP3    H235439   8.793   4.722   5.173
11835TIP3   OH235440   7.848   4.771   4.454
11835TIP3    H135441   7.779   4.724   4.404
11835TIP3    H235442   7.901   4.809   4.380
11836TIP3   OH235443   7.923   5.558   5.823
11836TIP3    H135444   7.997   5.597   5.872
11836TIP3    H235445   7.854   5.557   5.893
11837TIP3   OH235446   8.384   5.018   5.083
11837TIP3    H135447   8.445   4.968   5.027
11837TIP3    H235448   8.385   4.966   5.166
11838TIP3   OH235449   7.899   4.500   4.961
11838TIP3    H135450   7.865   4.421   5.009
11838TIP3    H235451   7.947   4.459   4.887
11839TIP3   OH235452   8.352   4.906   5.367
11839TIP3    H135453   8.263   4.944   5.381
11839TIP3    H235454   8.410   4.969   5.415
11840TIP3   OH235455   8.095   5.298   4.464
11840TIP3    H135456   8.021   5.234   4.450
11840TIP3    H235457   8.074   5.333   4.554
11841TIP3   OH235458   8.996   5.532   5.083
11841TIP3    H135459   8.987   5.587   5.004
11841TIP3    H235460   8.911   5.483   5.081
11842TIP3   OH235461   8.564   4.606   4.329
11842TIP3    H135462   8.468   4.581   4.336
11842TIP3    H235463   8.560   4.703   4.335
11843TIP3   OH235464   8.498   5.627   5.456
11843TIP3    H135465   8.517   5.611   5.549
11843TIP3    H235466   8.451   5.712   5.456
11844TIP3   OH235467   8.647   4.869   4.412
11844TIP3    H135468   8.733   4.913   4.419
11844TIP3    H235469   8.594   4.937   4.366
11845TIP3   OH235470   7.787   5.322   5.136
11845TIP3    H135471   7.827   5.295   5.050
11845TIP3    H235472   7.834   5.264   5.198
11846TIP3   OH235473   8.245   5.450   4.291
11846TIP3    H135474   8.195   5.536   4.293
11846TIP3    H235475   8.187   5.395   4.349
11847TIP3   OH235476   7.670   5.241   5.749
11847TIP3    H135477   7.690   5.229   5.844
11847TIP3    H235478   7.599   5.176   5.735
11848TIP3   OH235479   8.390   5.341   5.762
11848TIP3    H135480   8.321   5.287   5.717
11848TIP3    H235481   8.470   5.307   5.719
11849TIP3   OH235482   8.773   5.760   4.183
11849TIP3    H135483   8.720   5.685   4.210
11849TIP3    H235484   8.792   5.739   4.089
11850TIP3   OH235485   8.761   5.390   5.033
11850TIP3    H135486   8.664   5.382   5.029
11850TIP3    H235487   8.788   5.309   4.986
11851TIP3   OH235488   7.890   5.628   4.763
11851TIP3    H135489   7.889   5.709   4.709
11851TIP3    H235490   7.796   5.612   4.775
11852TIP3   OH235491   7.455   4.931   4.471
11852TIP3    H135492   7.499   5.016   4.491
11852TIP3    H235493   7.377   4.936   4.531
11853TIP3   OH235494   8.024   5.392   4.707
11853TIP3    H135495   7.989   5.481   4.725
11853TIP3    H235496   7.987   5.342   4.783
11854TIP3   OH235497   8.161   5.968   5.230
11854TIP3    H135498   8.204   6.036   5.174
11854TIP3    H235499   8.237   5.936   5.282
11855TIP3   OH235500   7.808   5.866   4.616
11855TIP3    H135501   7.722   5.876   4.662
11855TIP3    H235502   7.841   5.959   4.619
11856TIP3   OH235503   8.546   5.603   5.190
11856TIP3    H135504   8.534   5.600   5.288
11856TIP3    H235505   8.635   5.564   5.181
11857TIP3   OH235506   8.502   5.501   4.087
11857TIP3    H135507   8.551   5.475   4.167
11857TIP3    H235508   8.412   5.476   4.110
11858TIP3   OH235509   7.877   4.749   5.757
11858TIP3    H135510   7.780   4.751   5.768
11858TIP3    H235511   7.904   4.691   5.830
11859TIP3   OH235512   8.673   5.441   4.302
11859TIP3    H135513   8.658   5.366   4.363
11859TIP3    H235514   8.766   5.429   4.282
11860TIP3   OH235515   7.596   5.833   5.390
11860TIP3    H135516   7.650   5.762   5.428
11860TIP3    H235517   7.622   5.909   5.444
11861TIP3   OH235518   7.888   5.477   4.075
11861TIP3    H135519   7.898   5.384   4.047
11861TIP3    H235520   7.865   5.467   4.170
11862TIP3   OH235521   7.829   5.483   4.347
11862TIP3    H135522   7.903   5.459   4.404
11862TIP3    H235523   7.831   5.582   4.353
11863TIP3   OH235524   7.564   5.175   4.551
11863TIP3    H135525   7.497   5.221   4.607
11863TIP3    H235526   7.578   5.244   4.483
11864TIP3   OH235527   8.716   4.845   5.462
11864TIP3    H135528   8.813   4.849   5.469
11864TIP3    H235529   8.695   4.755   5.497
11865TIP3   OH235530   8.575   4.576   4.618
11865TIP3    H135531   8.576   4.588   4.521
11865TIP3    H235532   8.623   4.655   4.650
11866TIP3   OH235533   8.099   5.679   4.296
11866TIP3    H135534   8.011   5.705   4.330
11866TIP3    H235535   8.115   5.751   4.234
11867TIP3   OH235536   8.279   4.748   4.709
11867TIP3    H135537   8.346   4.817   4.694
11867TIP3    H235538   8.285   4.736   4.807
11868TIP3   OH235539   8.541   5.051   5.501
11868TIP3    H135540   8.573   5.102   5.579
11868TIP3    H235541   8.607   4.977   5.495
11869TIP3   OH235542   8.422   4.454   4.808
11869TIP3    H135543   8.451   4.506   4.887
11869TIP3    H235544   8.477   4.499   4.739
11870TIP3   OH235545   7.843   5.755   4.365
11870TIP3    H135546   7.815   5.825   4.302
11870TIP3    H235547   7.828   5.799   4.451
11871TIP3   OH235548   7.941   4.470   4.601
11871TIP3    H135549   7.938   4.560   4.638
11871TIP3    H235550   8.038   4.453   4.608
11872TIP3   OH235551   8.843   5.140   4.909
11872TIP3    H135552   8.758   5.097   4.887
11872TIP3    H235553   8.857   5.103   4.999
11873TIP3   OH235554   7.559   5.381   4.355
11873TIP3    H135555   7.628   5.449   4.363
11873TIP3    H235556   7.603   5.323   4.288
11874TIP3   OH235557   7.501   4.660   4.490
11874TIP3    H135558   7.505   4.757   4.488
11874TIP3    H235559   7.421   4.642   4.439
11875TIP3   OH235560   8.847   6.078   4.780
11875TIP3    H135561   8.794   6.152   4.745
11875TIP3    H235562   8.886   6.115   4.861
11876TIP3   OH235563   7.891   4.380   5.360
11876TIP3    H135564   7.860   4.346   5.273
11876TIP3    H235565   7.880   4.302   5.417
11877TIP3   OH235566   7.426   5.597   4.739
11877TIP3    H135567   7.362   5.628   4.805
11877TIP3    H235568   7.393   5.642   4.658
11878TIP3   OH235569   7.569   6.128   5.794
11878TIP3    H135570   7.651   6.129   5.850
11878TIP3    H235571   7.546   6.033   5.798
11879TIP3   OH235572   8.031   6.129   5.841
11879TIP3    H135573   8.121   6.162   5.823
11879TIP3    H235574   8.024   6.052   5.780
11880TIP3   OH235575   8.049   5.681   3.984
11880TIP3    H135576   7.996   5.607   4.022
11880TIP3    H235577   8.124   5.633   3.944
11881TIP3   OH235578   8.475   5.724   3.900
11881TIP3    H135579   8.521   5.657   3.953
11881TIP3    H235580   8.524   5.723   3.814
11882TIP3   OH235581   7.718   5.543   6.007
11882TIP3    H135582   7.732   5.447   6.015
11882TIP3    H235583   7.629   5.547   5.965
11883TIP3   OH235584   7.695   5.195   4.210
11883TIP3    H135585   7.753   5.166   4.282
11883TIP3    H235586   7.761   5.200   4.137
11884TIP3   OH235587   8.318   5.605   5.775
11884TIP3    H135588   8.271   5.617   5.690
11884TIP3    H235589   8.348   5.511   5.770
11885TIP3   OH235590   8.213   5.398   4.020
11885TIP3    H135591   8.207   5.408   4.117
11885TIP3    H235592   8.213   5.300   4.012
11886TIP3   OH235593   8.797   5.632   5.372
11886TIP3    H135594   8.878   5.673   5.333
11886TIP3    H235595   8.734   5.707   5.368
11887TIP3   OH235596   7.834   5.278   5.989
11887TIP3    H135597   7.914   5.230   5.964
11887TIP3    H235598   7.854   5.303   6.081
11888TIP3   OH235599   7.901   5.104   4.428
11888TIP3    H135600   7.874   5.063   4.511
11888TIP3    H235601   7.938   5.028   4.378
11889TIP3   OH235602   8.175   5.169   5.659
11889TIP3    H135603   8.094   5.225   5.659
11889TIP3    H235604   8.221   5.201   5.578
11890TIP3   OH235605   8.005   4.899   4.269
11890TIP3    H135606   7.978   4.905   4.175
11890TIP3    H235607   8.103   4.902   4.260
11891TIP3   OH235608   8.721   5.457   5.780
11891TIP3    H135609   8.774   5.530   5.745
11891TIP3    H235610   8.668   5.504   5.848
11892TIP3   OH235611   8.299   4.957   5.780
11892TIP3    H135612   8.296   4.878   5.722
11892TIP3    H235613   8.254   5.024   5.724
11893TIP3   OH235614   8.297   4.743   5.593
11893TIP3    H135615   8.325   4.785   5.509
11893TIP3    H235616   8.203   4.721   5.573
11894TIP3   OH235617   8.324   5.281   5.467
11894TIP3    H135618   8.408   5.286   5.418
11894TIP3    H235619   8.268   5.344   5.417
11895TIP3   OH235620   8.946   5.472   5.530
11895TIP3    H135621   8.874   5.530   5.492
11895TIP3    H235622   9.016   5.486   5.462
11896TIP3   OH235623   8.179   5.061   6.017
11896TIP3    H135624   8.109   4.994   6.033
11896TIP3    H235625   8.209   5.037   5.927
11897TIP3   OH235626   8.418   4.505   5.665
11897TIP3    H135627   8.366   4.585   5.643
11897TIP3    H235628   8.351   4.434   5.653
11898TIP3   OH235629   8.558   5.003   5.875
11898TIP3    H135630   8.530   4.986   5.968
11898TIP3    H235631   8.472   4.982   5.832
11899TIP3   OH235632   8.834   4.957   5.791
11899TIP3    H135633   8.743   4.993   5.802
11899TIP3    H235634   8.811   4.862   5.795
11900TIP3   OH235635   8.013   4.844   6.069
11900TIP3    H135636   8.016   4.752   6.036
11900TIP3    H235637   8.048   4.831   6.160
11901TIP3   OH235638   8.525   4.516   5.917
11901TIP3    H135639   8.580   4.436   5.915
11901TIP3    H235640   8.483   4.512   5.829
11902TIP3   OH235641   8.595   4.732   6.073
11902TIP3    H135642   8.569   4.660   6.012
11902TIP3    H235643   8.516   4.791   6.070
11903TIP3   OH235644   7.813   5.956   4.177
11903TIP3    H135645   7.908   5.949   4.157
11903TIP3    H235646   7.784   6.008   4.100
11904TIP3   OH235647   7.291   5.340   4.391
11904TIP3    H135648   7.386   5.361   4.377
11904TIP3    H235649   7.285   5.251   4.349
11905TIP3   OH235650   7.206   5.951   4.809
11905TIP3    H135651   7.141   5.890   4.769
11905TIP3    H235652   7.252   5.892   4.872
11906TIP3   OH235653   7.342   5.797   4.993
11906TIP3    H135654   7.329   5.728   5.060
11906TIP3    H235655   7.395   5.861   5.044
11907TIP3   OH235656   8.876   5.104   4.613
11907TIP3    H135657   8.967   5.065   4.623
11907TIP3    H235658   8.866   5.140   4.703
11908TIP3   OH235659   7.527   5.209   5.366
11908TIP3    H135660   7.524   5.176   5.274
11908TIP3    H235661   7.624   5.211   5.381
11909TIP3   OH235662   7.745   4.896   6.040
11909TIP3    H135663   7.843   4.890   6.041
11909TIP3    H235664   7.722   4.809   6.078
11910TIP3   OH235665   7.707   4.590   5.370
11910TIP3    H135666   7.770   4.515   5.378
11910TIP3    H235667   7.769   4.664   5.361
11911TIP3   OH235668   7.507   4.861   5.441
11911TIP3    H135669   7.558   4.858   5.357
11911TIP3    H235670   7.534   4.948   5.476
11912TIP3   OH235671   7.494   4.362   4.941
11912TIP3    H135672   7.401   4.360   4.971
11912TIP3    H235673   7.488   4.423   4.864
11913TIP3   OH235674   8.651   6.077   4.453
11913TIP3    H135675   8.703   6.068   4.370
11913TIP3    H235676   8.706   6.139   4.504
11914TIP3   OH235677   7.714   4.447   5.757
11914TIP3    H135678   7.662   4.440   5.839
11914TIP3    H235679   7.648   4.484   5.696
11915TIP3   OH235680   7.757   5.859   5.829
11915TIP3    H135681   7.661   5.845   5.815
11915TIP3    H235682   7.760   5.873   5.924
11916TIP3   OH235683   7.937   5.911   5.383
11916TIP3    H135684   7.888   5.987   5.344
11916TIP3    H235685   8.022   5.923   5.335
11917TIP3   OH235686   7.607   6.162   5.409
11917TIP3    H135687   7.516   6.192   5.386
11917TIP3    H235688   7.623   6.216   5.488
11918TIP3   OH235689   7.844   6.143   5.267
11918TIP3    H135690   7.757   6.155   5.309
11918TIP3    H235691   7.827   6.176   5.176
11919TIP3   OH235692   8.253   6.168   5.054
11919TIP3    H135693   8.186   6.189   4.986
11919TIP3    H235694   8.271   6.257   5.091
11920TIP3   OH235695   8.514   6.097   5.110
11920TIP3    H135696   8.425   6.125   5.085
11920TIP3    H235697   8.569   6.170   5.075
11921TIP3   OH235698   8.671   6.292   4.998
11921TIP3    H135699   8.705   6.379   5.027
11921TIP3    H235700   8.747   6.235   5.015
11922TIP3   OH235701   7.518   5.956   5.148
11922TIP3    H135702   7.545   5.928   5.239
11922TIP3    H235703   7.591   5.915   5.097
11923TIP3   OH235704   7.714   5.830   5.009
11923TIP3    H135705   7.730   5.746   5.059
11923TIP3    H235706   7.805   5.866   5.007
11924TIP3   OH235707   7.980   5.922   5.016
11924TIP3    H135708   8.012   5.831   5.004
11924TIP3    H235709   8.030   5.947   5.095
11925TIP3   OH235710   8.506   4.547   5.057
11925TIP3    H135711   8.492   4.492   5.137
11925TIP3    H235712   8.603   4.538   5.044
11926TIP3   OH235713   7.803   4.286   5.113
11926TIP3    H135714   7.710   4.253   5.116
11926TIP3    H235715   7.851   4.201   5.109
11927TIP3   OH235716   7.592   4.159   4.762
11927TIP3    H135717   7.621   4.216   4.689
11927TIP3    H235718   7.564   4.225   4.829
11928TIP3   OH235719   8.249   4.317   4.995
11928TIP3    H135720   8.302   4.365   4.928
11928TIP3    H235721   8.279   4.360   5.076
11929TIP3   OH235722   8.756   4.450   4.977
11929TIP3    H135723   8.785   4.429   4.888
11929TIP3    H235724   8.757   4.361   5.019
11930TIP3   OH235725   7.306   5.734   4.539
11930TIP3    H135726   7.220   5.701   4.506
11930TIP3    H235727   7.298   5.827   4.513
11931TIP3   OH235728   7.709   4.316   4.525
11931TIP3    H135729   7.757   4.254   4.467
11931TIP3    H235730   7.783   4.370   4.560
11932TIP3   OH235731   8.218   4.495   4.622
11932TIP3    H135732   8.280   4.452   4.684
11932TIP3    H235733   8.237   4.589   4.646
11933TIP3   OH235734   8.079   5.913   4.125
11933TIP3    H135735   8.166   5.938   4.088
11933TIP3    H235736   8.057   5.839   4.064
11934TIP3   OH235737   8.786   6.037   4.220
11934TIP3    H135738   8.791   5.940   4.206
11934TIP3    H235739   8.758   6.068   4.132
11935TIP3   OH235740   8.010   4.569   6.007
11935TIP3    H135741   7.976   4.497   6.063
11935TIP3    H235742   8.105   4.568   6.034
11936TIP3   OH235743   8.261   4.566   6.125
11936TIP3    H135744   8.346   4.537   6.088
11936TIP3    H235745   8.246   4.497   6.193
11937TIP3   OH235746   7.382   5.750   4.177
11937TIP3    H135747   7.388   5.775   4.270
11937TIP3    H235748   7.469   5.707   4.162
11938TIP3   OH235749   0.947   6.088   6.370
11938TIP3    H135750   0.911   6.177   6.377
11938TIP3    H235751   0.876   6.043   6.319
11939TIP3   OH235752   0.961   6.071   6.746
11939TIP3    H135753   0.989   6.046   6.835
11939TIP3    H235754   0.916   5.990   6.716
11940TIP3   OH235755   1.190   6.388   6.437
11940TIP3    H135756   1.183   6.320   6.506
11940TIP3    H235757   1.222   6.465   6.489
11941TIP3   OH235758   0.892   6.891   6.430
11941TIP3    H135759   0.942   6.810   6.410
11941TIP3    H235760   0.830   6.858   6.499
11942TIP3   OH235761   0.772   6.277   6.821
11942TIP3    H135762   0.805   6.204   6.766
11942TIP3    H235763   0.854   6.329   6.832
11943TIP3   OH235764   1.758   5.628   6.798
11943TIP3    H135765   1.790   5.711   6.839
11943TIP3    H235766   1.789   5.639   6.706
11944TIP3   OH235767   1.153   5.810   6.835
11944TIP3    H135768   1.200   5.727   6.855
11944TIP3    H235769   1.126   5.794   6.743
11945TIP3   OH235770   1.191   5.563   6.418
11945TIP3    H135771   1.262   5.551   6.485
11945TIP3    H235772   1.244   5.597   6.344
11946TIP3   OH235773   1.833   5.836   6.970
11946TIP3    H135774   1.749   5.883   6.951
11946TIP3    H235775   1.852   5.867   7.060
11947TIP3   OH235776   0.810   6.320   6.253
11947TIP3    H135777   0.801   6.272   6.169
11947TIP3    H235778   0.893   6.372   6.235
11948TIP3   OH235779   1.392   5.570   6.597
11948TIP3    H135780   1.398   5.518   6.678
11948TIP3    H235781   1.452   5.645   6.618
11949TIP3   OH235782   1.258   6.630   6.597
11949TIP3    H135783   1.167   6.622   6.635
11949TIP3    H235784   1.253   6.719   6.557
11950TIP3   OH235785   1.554   5.527   6.965
11950TIP3    H135786   1.468   5.558   6.932
11950TIP3    H235787   1.615   5.561   6.896
11951TIP3   OH235788   0.852   5.158   6.936
11951TIP3    H135789   0.843   5.063   6.958
11951TIP3    H235790   0.811   5.199   7.013
11952TIP3   OH235791   0.956   6.662   6.261
11952TIP3    H135792   1.003   6.577   6.242
11952TIP3    H235793   1.020   6.727   6.224
11953TIP3   OH235794   1.067   6.423   6.192
11953TIP3    H135795   1.108   6.363   6.124
11953TIP3    H235796   1.124   6.405   6.270
11954TIP3   OH235797   1.484   6.540   6.948
11954TIP3    H135798   1.475   6.464   6.887
11954TIP3    H235799   1.468   6.615   6.888
11955TIP3   OH235800   0.777   5.956   6.205
11955TIP3    H135801   0.697   5.902   6.225
11955TIP3    H235802   0.802   5.929   6.115
11956TIP3   OH235803   0.754   5.726   5.917
11956TIP3    H135804   0.827   5.777   5.957
11956TIP3    H235805   0.805   5.660   5.866
11957TIP3   OH235806   1.680   6.181   6.793
11957TIP3    H135807   1.597   6.233   6.795
11957TIP3    H235808   1.711   6.202   6.702
11958TIP3   OH235809   1.125   6.018   6.173
11958TIP3    H135810   1.074   6.042   6.254
11958TIP3    H235811   1.210   5.990   6.214
11959TIP3   OH235812   1.361   6.054   7.093
11959TIP3    H135813   1.360   6.136   7.147
11959TIP3    H235814   1.277   6.063   7.045
11960TIP3   OH235815   1.014   6.626   6.712
11960TIP3    H135816   0.991   6.710   6.755
11960TIP3    H235817   1.001   6.558   6.781
11961TIP3   OH235818   0.965   5.877   6.001
11961TIP3    H135819   1.022   5.936   6.055
11961TIP3    H235820   0.993   5.901   5.909
11962TIP3   OH235821   1.461   5.109   6.029
11962TIP3    H135822   1.400   5.138   6.099
11962TIP3    H235823   1.487   5.194   5.988
11963TIP3   OH235824   1.284   6.485   5.604
11963TIP3    H135825   1.291   6.580   5.582
11963TIP3    H235826   1.376   6.455   5.589
11964TIP3   OH235827   1.728   6.886   6.995
11964TIP3    H135828   1.726   6.790   7.010
11964TIP3    H235829   1.644   6.913   7.039
11965TIP3   OH235830   0.799   6.712   5.717
11965TIP3    H135831   0.854   6.638   5.683
11965TIP3    H235832   0.814   6.708   5.813
11966TIP3   OH235833   0.836   6.754   5.997
11966TIP3    H135834   0.774   6.755   6.072
11966TIP3    H235835   0.918   6.728   6.042
11967TIP3   OH235836   1.610   6.017   7.270
11967TIP3    H135837   1.531   6.026   7.216
11967TIP3    H235838   1.629   5.921   7.260
11968TIP3   OH235839   1.154   5.364   7.270
11968TIP3    H135840   1.224   5.337   7.334
11968TIP3    H235841   1.072   5.345   7.321
11969TIP3   OH235842   1.375   5.789   7.187
11969TIP3    H135843   1.330   5.788   7.274
11969TIP3    H235844   1.357   5.880   7.155
11970TIP3   OH235845   1.039   5.923   5.746
11970TIP3    H135846   1.004   5.899   5.658
11970TIP3    H235847   1.125   5.961   5.721
11971TIP3   OH235848   0.735   5.306   6.028
11971TIP3    H135849   0.720   5.305   6.126
11971TIP3    H235850   0.716   5.212   6.010
11972TIP3   OH235851   0.918   5.743   6.340
11972TIP3    H135852   0.869   5.816   6.299
11972TIP3    H235853   0.970   5.708   6.264
11973TIP3   OH235854   1.116   6.000   7.409
11973TIP3    H135855   1.090   5.932   7.475
11973TIP3    H235856   1.210   6.012   7.432
11974TIP3   OH235857   1.069   5.761   6.576
11974TIP3    H135858   1.009   5.789   6.503
11974TIP3    H235859   1.107   5.682   6.532
11975TIP3   OH235860   1.075   6.009   7.000
11975TIP3    H135861   1.113   5.941   6.939
11975TIP3    H235862   1.051   5.950   7.075
11976TIP3   OH235863   0.764   5.466   6.659
11976TIP3    H135864   0.676   5.494   6.690
11976TIP3    H235865   0.819   5.475   6.738
11977TIP3   OH235866   1.243   5.551   6.881
11977TIP3    H135867   1.206   5.562   6.971
11977TIP3    H235868   1.179   5.488   6.842
11978TIP3   OH235869   1.421   7.231   7.052
11978TIP3    H135870   1.412   7.249   6.956
11978TIP3    H235871   1.428   7.323   7.085
11979TIP3   OH235872   0.848   5.791   6.766
11979TIP3    H135873   0.921   5.759   6.710
11979TIP3    H235874   0.868   5.750   6.852
11980TIP3   OH235875   0.838   5.682   7.056
11980TIP3    H135876   0.772   5.755   7.052
11980TIP3    H235877   0.910   5.728   7.105
11981TIP3   OH235878   1.446   6.327   6.779
11981TIP3    H135879   1.473   6.376   6.699
11981TIP3    H235880   1.362   6.284   6.749
11982TIP3   OH235881   0.999   5.396   6.027
11982TIP3    H135882   0.902   5.387   6.025
11982TIP3    H235883   1.013   5.491   6.045
11983TIP3   OH235884   0.932   6.406   7.142
11983TIP3    H135885   0.970   6.395   7.231
11983TIP3    H235886   0.886   6.493   7.150
11984TIP3   OH235887   1.074   5.648   6.121
11984TIP3    H135888   1.170   5.650   6.137
11984TIP3    H235889   1.060   5.727   6.066
11985TIP3   OH235890   0.683   6.237   5.986
11985TIP3    H135891   0.619   6.309   5.984
11985TIP3    H235892   0.634   6.169   6.035
11986TIP3   OH235893   0.889   6.113   7.515
11986TIP3    H135894   0.877   6.017   7.512
11986TIP3    H235895   0.980   6.118   7.481
11987TIP3   OH235896   1.108   6.664   7.055
11987TIP3    H135897   1.012   6.671   7.045
11987TIP3    H235898   1.125   6.725   7.130
11988TIP3   OH235899   1.511   5.742   5.956
11988TIP3    H135900   1.450   5.697   5.894
11988TIP3    H235901   1.510   5.831   5.913
11989TIP3   OH235902   1.736   6.599   7.034
11989TIP3    H135903   1.638   6.591   7.026
11989TIP3    H235904   1.762   6.569   6.944
11990TIP3   OH235905   1.212   6.554   5.863
11990TIP3    H135906   1.198   6.472   5.910
11990TIP3    H235907   1.231   6.523   5.772
11991TIP3   OH235908   1.216   6.188   6.693
11991TIP3    H135909   1.123   6.160   6.706
11991TIP3    H235910   1.252   6.108   6.650
11992TIP3   OH235911   1.013   6.395   6.880
11992TIP3    H135912   1.001   6.398   6.977
11992TIP3    H235913   1.098   6.348   6.872
11993TIP3   OH235914   0.982   6.288   5.764
11993TIP3    H135915   1.025   6.264   5.849
11993TIP3    H235916   0.893   6.252   5.775
11994TIP3   OH235917   1.247   6.917   6.922
11994TIP3    H135918   1.164   6.867   6.909
11994TIP3    H235919   1.237   6.986   6.853
11995TIP3   OH235920   1.312   6.758   5.582
11995TIP3    H135921   1.352   6.830   5.529
11995TIP3    H235922   1.232   6.806   5.615
11996TIP3   OH235923   1.140   6.231   5.997
11996TIP3    H135924   1.130   6.154   6.057
11996TIP3    H235925   1.235   6.221   5.973
11997TIP3   OH235926   1.164   5.606   7.139
11997TIP3    H135927   1.250   5.643   7.165
11997TIP3    H235928   1.161   5.522   7.191
11998TIP3   OH235929   1.058   5.345   6.302
11998TIP3    H135930   1.037   5.368   6.209
11998TIP3    H235931   1.096   5.429   6.336
11999TIP3   OH235932   0.735   5.542   6.395
11999TIP3    H135933   0.804   5.611   6.384
11999TIP3    H235934   0.739   5.526   6.491
12000TIP3   OH235935   1.018   5.841   7.204
12000TIP3    H135936   1.050   5.895   7.280
12000TIP3    H235937   1.076   5.761   7.211
12001TIP3   OH235938   0.886   5.256   6.505
12001TIP3    H135939   0.866   5.335   6.559
12001TIP3    H235940   0.948   5.294   6.438
12002TIP3   OH235941   1.644   5.752   7.189
12002TIP3    H135942   1.546   5.748   7.193
12002TIP3    H235943   1.660   5.706   7.105
12003TIP3   OH235944   1.298   5.945   6.576
12003TIP3    H135945   1.223   5.883   6.588
12003TIP3    H235946   1.371   5.898   6.623
12004TIP3   OH235947   1.268   6.898   6.522
12004TIP3    H135948   1.224   6.945   6.448
12004TIP3    H235949   1.362   6.921   6.502
12005TIP3   OH235950   1.149   6.795   7.296
12005TIP3    H135951   1.191   6.718   7.339
12005TIP3    H235952   1.219   6.863   7.308
12006TIP3   OH235953   0.939   6.511   5.590
12006TIP3    H135954   0.982   6.443   5.646
12006TIP3    H235955   0.991   6.507   5.508
12007TIP3   OH235956   0.681   6.190   5.711
12007TIP3    H135957   0.674   6.199   5.807
12007TIP3    H235958   0.673   6.092   5.700
12008TIP3   OH235959   1.266   6.438   7.083
12008TIP3    H135960   1.345   6.475   7.039
12008TIP3    H235961   1.202   6.511   7.069
12009TIP3   OH235962   0.491   5.698   6.003
12009TIP3    H135963   0.467   5.697   5.908
12009TIP3    H235964   0.588   5.700   5.997
12010TIP3   OH235965   1.140   6.368   7.481
12010TIP3    H135966   1.218   6.345   7.428
12010TIP3    H235967   1.144   6.297   7.548
12011TIP3   OH235968   1.272   6.012   5.629
12011TIP3    H135969   1.255   5.968   5.543
12011TIP3    H235970   1.243   6.103   5.605
12012TIP3   OH235971   0.710   5.478   7.198
12012TIP3    H135972   0.761   5.544   7.145
12012TIP3    H235973   0.673   5.535   7.269
12013TIP3   OH235974   0.829   6.123   7.109
12013TIP3    H135975   0.920   6.098   7.082
12013TIP3    H235976   0.818   6.205   7.054
12014TIP3   OH235977   1.375   6.022   7.522
12014TIP3    H135978   1.420   5.943   7.557
12014TIP3    H235979   1.449   6.072   7.485
12015TIP3   OH235980   1.397   6.282   7.260
12015TIP3    H135981   1.341   6.340   7.203
12015TIP3    H235982   1.486   6.304   7.224
12016TIP3   OH235983   0.892   5.294   7.334
12016TIP3    H135984   0.829   5.365   7.306
12016TIP3    H235985   0.835   5.216   7.325
12017TIP3   OH235986   1.004   5.812   7.579
12017TIP3    H135987   1.049   5.801   7.666
12017TIP3    H235988   0.932   5.747   7.589
12018TIP3   OH235989   1.250   5.739   7.422
12018TIP3    H135990   1.181   5.731   7.489
12018TIP3    H235991   1.331   5.713   7.472
12019TIP3   OH235992   1.478   5.686   7.566
12019TIP3    H135993   1.491   5.590   7.585
12019TIP3    H235994   1.471   5.725   7.656
12020TIP3   OH235995   0.986   5.311   7.594
12020TIP3    H135996   1.046   5.234   7.598
12020TIP3    H235997   0.944   5.299   7.507
12021TIP3   OH235998   1.057   5.527   7.739
12021TIP3    H135999   1.039   5.445   7.687
12021TIP3    H236000   0.966   5.562   7.750
12022TIP3   OH236001   1.520   6.993   6.481
12022TIP3    H136002   1.547   7.023   6.569
12022TIP3    H236003   1.588   7.031   6.424
12023TIP3   OH236004   1.549   7.004   6.761
12023TIP3    H136005   1.513   6.913   6.761
12023TIP3    H236006   1.628   6.991   6.817
12024TIP3   OH236007   1.602   6.687   7.331
12024TIP3    H136008   1.524   6.706   7.386
12024TIP3    H236009   1.647   6.774   7.328
12025TIP3   OH236010   1.411   6.203   5.957
12025TIP3    H136011   1.479   6.266   5.924
12025TIP3    H236012   1.458   6.164   6.034
12026TIP3   OH236013   1.539   6.072   6.161
12026TIP3    H136014   1.476   6.028   6.222
12026TIP3    H236015   1.609   6.104   6.221
12027TIP3   OH236016   1.595   6.460   6.591
12027TIP3    H136017   1.651   6.394   6.545
12027TIP3    H236018   1.596   6.535   6.527
12028TIP3   OH236019   1.428   6.754   6.786
12028TIP3    H136020   1.356   6.801   6.833
12028TIP3    H236021   1.378   6.710   6.713
12029TIP3   OH236022   1.477   5.977   5.808
12029TIP3    H136023   1.405   5.979   5.741
12029TIP3    H236024   1.451   6.054   5.862
12030TIP3   OH236025   1.341   5.652   5.764
12030TIP3    H136026   1.308   5.683   5.679
12030TIP3    H236027   1.323   5.555   5.757
12031TIP3   OH236028   1.351   5.926   6.305
12031TIP3    H136029   1.364   5.830   6.298
12031TIP3    H236030   1.339   5.939   6.402
12032TIP3   OH236031   1.644   6.350   7.164
12032TIP3    H136032   1.715   6.283   7.155
12032TIP3    H236033   1.671   6.418   7.100
12033TIP3   OH236034   1.826   6.152   7.177
12033TIP3    H136035   1.752   6.101   7.216
12033TIP3    H236036   1.900   6.089   7.194
12034TIP3   OH236037   1.293   5.385   5.747
12034TIP3    H136038   1.374   5.356   5.794
12034TIP3    H236039   1.228   5.317   5.770
12035TIP3   OH236040   1.350   5.643   6.197
12035TIP3    H136041   1.394   5.556   6.214
12035TIP3    H236042   1.408   5.676   6.126
12036TIP3   OH236043   1.510   5.816   6.695
12036TIP3    H136044   1.596   5.840   6.653
12036TIP3    H236045   1.528   5.851   6.785
12037TIP3   OH236046   1.584   5.960   6.927
12037TIP3    H136047   1.507   5.995   6.976
12037TIP3    H236048   1.617   6.040   6.881
12038TIP3   OH236049   2.032   5.553   7.482
12038TIP3    H136050   2.093   5.487   7.441
12038TIP3    H236051   2.004   5.606   7.404
12039TIP3   OH236052   1.459   5.396   6.242
12039TIP3    H136053   1.514   5.374   6.320
12039TIP3    H236054   1.404   5.316   6.235
12040TIP3   OH236055   1.901   5.689   7.285
12040TIP3    H136056   1.813   5.729   7.302
12040TIP3    H236057   1.873   5.613   7.229
12041TIP3   OH236058   1.536   5.328   5.867
12041TIP3    H136059   1.585   5.253   5.826
12041TIP3    H236060   1.607   5.396   5.871
12042TIP3   OH236061   1.095   6.854   6.137
12042TIP3    H136062   1.152   6.850   6.057
12042TIP3    H236063   1.145   6.916   6.194
12043TIP3   OH236064   1.021   7.054   7.045
12043TIP3    H136065   1.112   7.024   7.025
12043TIP3    H236066   1.035   7.149   7.065
12044TIP3   OH236067   1.801   5.450   7.169
12044TIP3    H136068   1.712   5.437   7.134
12044TIP3    H236069   1.839   5.360   7.160
12045TIP3   OH236070   0.982   6.892   6.795
12045TIP3    H136071   0.904   6.929   6.837
12045TIP3    H236072   1.020   6.972   6.755
12046TIP3   OH236073   1.202   7.087   6.715
12046TIP3    H136074   1.178   7.168   6.664
12046TIP3    H236075   1.224   7.024   6.643
12047TIP3   OH236076   1.014   5.369   6.796
12047TIP3    H136077   0.968   5.290   6.829
12047TIP3    H236078   1.086   5.329   6.742
12048TIP3   OH236079   1.521   5.242   6.691
12048TIP3    H136080   1.567   5.289   6.616
12048TIP3    H236081   1.430   5.274   6.682
12049TIP3   OH236082   1.626   5.327   6.454
12049TIP3    H136083   1.689   5.260   6.419
12049TIP3    H236084   1.674   5.411   6.436
12050TIP3   OH236085   0.715   5.102   6.690
12050TIP3    H136086   0.761   5.151   6.619
12050TIP3    H236087   0.761   5.134   6.769
12051TIP3   OH236088   1.237   5.258   6.671
12051TIP3    H136089   1.238   5.221   6.582
12051TIP3    H236090   1.232   5.176   6.726
12052TIP3   OH236091   1.278   5.182   6.231
12052TIP3    H136092   1.194   5.229   6.247
12052TIP3    H236093   1.280   5.120   6.306
12053TIP3   OH236094   0.705   5.286   6.297
12053TIP3    H136095   0.751   5.252   6.375
12053TIP3    H236096   0.695   5.380   6.324
12054TIP3   OH236097   1.244   6.823   5.910
12054TIP3    H136098   1.237   6.726   5.894
12054TIP3    H236099   1.207   6.858   5.827
12055TIP3   OH236100   1.539   5.417   7.600
12055TIP3    H136101   1.558   5.387   7.692
12055TIP3    H236102   1.628   5.412   7.560
12056TIP3   OH236103   1.475   6.965   7.086
12056TIP3    H136104   1.400   6.932   7.034
12056TIP3    H236105   1.464   7.062   7.071
12057TIP3   OH236106   2.745   6.345   5.855
12057TIP3    H136107   2.712   6.434   5.832
12057TIP3    H236108   2.670   6.290   5.826
12058TIP3   OH236109   2.742   6.343   6.246
12058TIP3    H136110   2.778   6.313   6.332
12058TIP3    H236111   2.704   6.260   6.212
12059TIP3   OH236112   2.038   6.235   6.612
12059TIP3    H136113   2.070   6.166   6.673
12059TIP3    H236114   2.121   6.277   6.586
12060TIP3   OH236115   2.989   6.645   5.923
12060TIP3    H136116   2.970   6.576   5.988
12060TIP3    H236117   3.018   6.719   5.979
12061TIP3   OH236118   2.016   6.645   6.329
12061TIP3    H136119   2.007   6.548   6.330
12061TIP3    H236120   2.112   6.654   6.318
12062TIP3   OH236121   1.717   5.845   6.112
12062TIP3    H136122   1.671   5.929   6.127
12062TIP3    H236123   1.647   5.794   6.068
12063TIP3   OH236124   1.776   6.133   6.290
12063TIP3    H136125   1.826   6.055   6.325
12063TIP3    H236126   1.839   6.169   6.226
12064TIP3   OH236127   2.640   7.107   5.940
12064TIP3    H136128   2.681   7.037   5.885
12064TIP3    H236129   2.629   7.062   6.025
12065TIP3   OH236130   2.540   6.567   6.290
12065TIP3    H136131   2.580   6.489   6.247
12065TIP3    H236132   2.622   6.614   6.314
12066TIP3   OH236133   3.559   5.885   6.287
12066TIP3    H136134   3.587   5.970   6.327
12066TIP3    H236135   3.577   5.902   6.193
12067TIP3   OH236136   2.958   6.066   6.318
12067TIP3    H136137   2.995   5.978   6.336
12067TIP3    H236138   2.919   6.051   6.230
12068TIP3   OH236139   2.287   5.726   6.287
12068TIP3    H136140   2.276   5.798   6.221
12068TIP3    H236141   2.245   5.652   6.238
12069TIP3   OH236142   2.988   5.818   5.904
12069TIP3    H136143   3.058   5.803   5.971
12069TIP3    H236144   3.041   5.853   5.830
12070TIP3   OH236145   1.926   5.927   6.393
12070TIP3    H136146   2.009   5.908   6.440
12070TIP3    H236147   1.940   5.873   6.312
12071TIP3   OH236148   2.363   6.127   6.196
12071TIP3    H136149   2.458   6.104   6.204
12071TIP3    H236150   2.326   6.043   6.161
12072TIP3   OH236151   3.632   6.097   6.455
12072TIP3    H136152   3.546   6.141   6.435
12072TIP3    H236153   3.643   6.121   6.548
12073TIP3   OH236154   2.289   5.714   6.721
12073TIP3    H136155   2.230   5.747   6.651
12073TIP3    H236156   2.234   5.731   6.800
12074TIP3   OH236157   2.632   6.564   5.726
12074TIP3    H136158   2.589   6.547   5.640
12074TIP3    H236159   2.586   6.646   5.753
12075TIP3   OH236160   2.395   6.486   6.511
12075TIP3    H136161   2.335   6.556   6.546
12075TIP3    H236162   2.439   6.533   6.437
12076TIP3   OH236163   3.192   5.826   6.081
12076TIP3    H136164   3.178   5.770   6.159
12076TIP3    H236165   3.243   5.901   6.116
12077TIP3   OH236166   2.159   5.826   6.504
12077TIP3    H136167   2.224   5.897   6.525
12077TIP3    H236168   2.206   5.783   6.428
12078TIP3   OH236169   2.226   6.684   6.613
12078TIP3    H136170   2.200   6.770   6.574
12078TIP3    H236171   2.146   6.666   6.667
12079TIP3   OH236172   1.610   6.372   5.849
12079TIP3    H136173   1.576   6.398   5.761
12079TIP3    H236174   1.644   6.457   5.883
12080TIP3   OH236175   3.056   6.889   6.089
12080TIP3    H136176   2.966   6.880   6.127
12080TIP3    H236177   3.047   6.974   6.043
12081TIP3   OH236178   3.348   5.789   6.455
12081TIP3    H136179   3.260   5.809   6.420
12081TIP3    H236180   3.407   5.818   6.381
12082TIP3   OH236181   2.655   5.434   6.452
12082TIP3    H136182   2.628   5.342   6.436
12082TIP3    H236183   2.570   5.472   6.482
12083TIP3   OH236184   2.753   6.932   5.759
12083TIP3    H136185   2.805   6.850   5.740
12083TIP3    H236186   2.815   6.998   5.719
12084TIP3   OH236187   2.900   6.717   5.672
12084TIP3    H136188   2.857   6.636   5.639
12084TIP3    H236189   2.939   6.685   5.756
12085TIP3   OH236190   3.282   6.797   6.433
12085TIP3    H136191   3.269   6.720   6.373
12085TIP3    H236192   3.263   6.872   6.372
12086TIP3   OH236193   2.574   6.195   5.692
12086TIP3    H136194   2.493   6.245   5.670
12086TIP3    H236195   2.619   6.191   5.606
12087TIP3   OH236196   2.530   5.982   5.401
12087TIP3    H136197   2.597   6.029   5.453
12087TIP3    H236198   2.587   5.918   5.354
12088TIP3   OH236199   3.477   6.440   6.280
12088TIP3    H136200   3.392   6.489   6.283
12088TIP3    H236201   3.506   6.462   6.189
12089TIP3   OH236202   2.922   6.277   5.660
12089TIP3    H136203   2.867   6.301   5.738
12089TIP3    H236204   3.005   6.250   5.704
12090TIP3   OH236205   3.156   6.313   6.576
12090TIP3    H136206   3.150   6.398   6.623
12090TIP3    H236207   3.069   6.313   6.530
12091TIP3   OH236208   2.154   6.273   6.080
12091TIP3    H136209   2.112   6.215   6.014
12091TIP3    H236210   2.229   6.218   6.110
12092TIP3   OH236211   2.281   6.681   6.227
12092TIP3    H136212   2.262   6.649   6.137
12092TIP3    H236213   2.370   6.645   6.243
12093TIP3   OH236214   2.279   6.246   6.435
12093TIP3    H136215   2.315   6.216   6.348
12093TIP3    H236216   2.329   6.329   6.451
12094TIP3   OH236217   2.815   6.883   6.211
12094TIP3    H136218   2.801   6.962   6.267
12094TIP3    H236219   2.800   6.809   6.273
12095TIP3   OH236220   2.428   6.801   6.760
12095TIP3    H136221   2.366   6.864   6.803
12095TIP3    H236222   2.365   6.748   6.707
12096TIP3   OH236223   2.760   6.134   5.489
12096TIP3    H136224   2.820   6.194   5.539
12096TIP3    H236225   2.786   6.156   5.396
12097TIP3   OH236226   2.186   6.354   6.867
12097TIP3    H136227   2.187   6.444   6.905
12097TIP3    H236228   2.090   6.335   6.869
12098TIP3   OH236229   2.506   6.811   5.763
12098TIP3    H136230   2.588   6.863   5.771
12098TIP3    H236231   2.446   6.875   5.720
12099TIP3   OH236232   2.222   6.969   6.844
12099TIP3    H136233   2.188   6.971   6.753
12099TIP3    H236234   2.141   6.945   6.895
12100TIP3   OH236235   3.276   5.372   5.537
12100TIP3    H136236   3.195   5.393   5.588
12100TIP3    H236237   3.289   5.455   5.488
12101TIP3   OH236238   2.019   6.119   5.887
12101TIP3    H136239   1.948   6.157   5.830
12101TIP3    H236240   1.994   6.026   5.890
12102TIP3   OH236241   3.077   6.740   5.085
12102TIP3    H136242   3.085   6.837   5.071
12102TIP3    H236243   3.170   6.711   5.071
12103TIP3   OH236244   1.799   6.500   6.791
12103TIP3    H136245   1.736   6.477   6.720
12103TIP3    H236246   1.839   6.414   6.814
12104TIP3   OH236247   1.657   6.690   6.425
12104TIP3    H136248   1.752   6.683   6.411
12104TIP3    H236249   1.652   6.770   6.480
12105TIP3   OH236250   3.518   7.146   6.482
12105TIP3    H136251   3.517   7.049   6.495
12105TIP3    H236252   3.435   7.171   6.527
12106TIP3   OH236253   2.626   6.928   6.616
12106TIP3    H136254   2.622   7.021   6.647
12106TIP3    H236255   2.553   6.888   6.669
12107TIP3   OH236256   2.389   7.059   5.569
12107TIP3    H136257   2.339   7.046   5.486
12107TIP3    H236258   2.358   7.147   5.598
12108TIP3   OH236259   1.823   6.904   5.952
12108TIP3    H136260   1.872   6.897   6.037
12108TIP3    H236261   1.773   6.821   5.953
12109TIP3   OH236262   2.589   6.961   5.203
12109TIP3    H136263   2.648   6.890   5.169
12109TIP3    H236264   2.623   6.972   5.294
12110TIP3   OH236265   2.638   7.010   5.472
12110TIP3    H136266   2.549   7.021   5.513
12110TIP3    H236267   2.688   6.972   5.546
12111TIP3   OH236268   3.406   6.273   6.754
12111TIP3    H136269   3.324   6.284   6.703
12111TIP3    H236270   3.423   6.178   6.744
12112TIP3   OH236271   2.005   6.683   6.776
12112TIP3    H136272   2.055   6.665   6.858
12112TIP3    H236273   1.931   6.620   6.783
12113TIP3   OH236274   2.402   5.503   6.568
12113TIP3    H136275   2.315   5.474   6.536
12113TIP3    H236276   2.376   5.586   6.613
12114TIP3   OH236277   2.940   5.624   6.760
12114TIP3    H136278   3.008   5.592   6.823
12114TIP3    H236279   2.856   5.600   6.805
12115TIP3   OH236280   3.179   6.051   6.680
12115TIP3    H136281   3.126   6.049   6.763
12115TIP3    H236282   3.152   6.135   6.640
12116TIP3   OH236283   2.837   6.175   5.231
12116TIP3    H136284   2.803   6.152   5.142
12116TIP3    H236285   2.920   6.221   5.209
12117TIP3   OH236286   2.551   5.559   5.542
12117TIP3    H136287   2.521   5.565   5.633
12117TIP3    H236288   2.510   5.474   5.514
12118TIP3   OH236289   2.337   6.023   6.582
12118TIP3    H136290   2.285   6.041   6.664
12118TIP3    H236291   2.318   6.104   6.530
12119TIP3   OH236292   2.219   5.912   6.098
12119TIP3    H136293   2.129   5.879   6.116
12119TIP3    H236294   2.236   5.870   6.011
12120TIP3   OH236295   2.717   6.001   5.830
12120TIP3    H136296   2.662   6.067   5.784
12120TIP3    H236297   2.767   5.961   5.756
12121TIP3   OH236298   2.886   6.271   6.913
12121TIP3    H136299   2.862   6.196   6.973
12121TIP3    H236300   2.981   6.279   6.932
12122TIP3   OH236301   2.872   6.021   6.059
12122TIP3    H136302   2.808   6.044   5.989
12122TIP3    H236303   2.905   5.938   6.020
12123TIP3   OH236304   2.155   6.050   6.792
12123TIP3    H136305   2.192   6.110   6.859
12123TIP3    H236306   2.145   5.967   6.842
12124TIP3   OH236307   2.207   5.530   5.502
12124TIP3    H136308   2.202   5.527   5.600
12124TIP3    H236309   2.128   5.583   5.480
12125TIP3   OH236310   1.749   5.558   6.381
12125TIP3    H136311   1.823   5.598   6.430
12125TIP3    H236312   1.788   5.538   6.294
12126TIP3   OH236313   1.714   5.549   5.892
12126TIP3    H136314   1.762   5.584   5.815
12126TIP3    H236315   1.656   5.625   5.912
12127TIP3   OH236316   2.883   6.264   6.484
12127TIP3    H136317   2.914   6.193   6.423
12127TIP3    H236318   2.850   6.210   6.558
12128TIP3   OH236319   2.550   5.760   6.160
12128TIP3    H136320   2.471   5.723   6.203
12128TIP3    H236321   2.621   5.721   6.213
12129TIP3   OH236322   1.983   5.783   6.166
12129TIP3    H136323   1.890   5.784   6.134
12129TIP3    H236324   2.015   5.694   6.139
12130TIP3   OH236325   2.250   5.785   5.858
12130TIP3    H136326   2.347   5.785   5.844
12130TIP3    H236327   2.213   5.804   5.769
12131TIP3   OH236328   3.036   5.801   6.365
12131TIP3    H136329   2.998   5.816   6.454
12131TIP3    H236330   2.971   5.736   6.329
12132TIP3   OH236331   2.091   5.822   5.628
12132TIP3    H136332   2.024   5.772   5.578
12132TIP3    H236333   2.146   5.857   5.555
12133TIP3   OH236334   3.214   7.494   6.580
12133TIP3    H136335   3.211   7.518   6.485
12133TIP3    H236336   3.294   7.542   6.609
12134TIP3   OH236337   2.165   6.604   6.999
12134TIP3    H136338   2.245   6.634   7.046
12134TIP3    H236339   2.101   6.604   7.072
12135TIP3   OH236340   2.632   6.065   6.260
12135TIP3    H136341   2.683   6.008   6.200
12135TIP3    H236342   2.632   6.013   6.342
12136TIP3   OH236343   2.155   5.546   6.129
12136TIP3    H136344   2.124   5.464   6.172
12136TIP3    H236345   2.232   5.512   6.078
12137TIP3   OH236346   2.605   5.956   6.545
12137TIP3    H136347   2.515   5.991   6.559
12137TIP3    H236348   2.662   6.019   6.594
12138TIP3   OH236349   2.342   6.345   5.637
12138TIP3    H136350   2.269   6.279   5.626
12138TIP3    H236351   2.323   6.379   5.728
12139TIP3   OH236352   3.241   6.581   6.266
12139TIP3    H136353   3.266   6.631   6.185
12139TIP3    H236354   3.157   6.539   6.240
12140TIP3   OH236355   2.796   5.666   5.485
12140TIP3    H136356   2.703   5.642   5.508
12140TIP3    H236357   2.806   5.755   5.525
12141TIP3   OH236358   2.742   6.663   6.636
12141TIP3    H136359   2.770   6.645   6.726
12141TIP3    H236360   2.705   6.753   6.642
12142TIP3   OH236361   2.868   5.904   5.608
12142TIP3    H136362   2.965   5.910   5.624
12142TIP3    H236363   2.850   5.986   5.558
12143TIP3   OH236364   2.035   6.366   6.312
12143TIP3    H136365   2.073   6.342   6.225
12143TIP3    H236366   2.087   6.310   6.371
12144TIP3   OH236367   2.487   6.495   5.461
12144TIP3    H136368   2.439   6.581   5.465
12144TIP3    H236369   2.433   6.440   5.521
12145TIP3   OH236370   1.916   6.290   6.930
12145TIP3    H136371   1.937   6.273   7.024
12145TIP3    H236372   1.850   6.221   6.911
12146TIP3   OH236373   2.644   6.404   6.949
12146TIP3    H136374   2.583   6.347   6.899
12146TIP3    H236375   2.731   6.368   6.921
12147TIP3   OH236376   2.903   6.925   6.536
12147TIP3    H136377   2.806   6.922   6.547
12147TIP3    H236378   2.928   6.979   6.614
12148TIP3   OH236379   3.312   5.998   5.440
12148TIP3    H136380   3.250   5.953   5.378
12148TIP3    H236381   3.307   6.087   5.401
12149TIP3   OH236382   3.532   6.857   6.521
12149TIP3    H136383   3.434   6.849   6.512
12149TIP3    H236384   3.559   6.826   6.431
12150TIP3   OH236385   3.015   6.815   5.351
12150TIP3    H136386   2.986   6.747   5.414
12150TIP3    H236387   3.026   6.766   5.268
12151TIP3   OH236388   3.008   6.444   6.183
12151TIP3    H136389   2.915   6.418   6.197
12151TIP3    H236390   3.042   6.363   6.140
12152TIP3   OH236391   2.140   6.675   5.945
12152TIP3    H136392   2.140   6.755   5.889
12152TIP3    H236393   2.046   6.655   5.949
12153TIP3   OH236394   1.701   5.975   5.645
12153TIP3    H136395   1.748   6.058   5.666
12153TIP3    H236396   1.625   5.980   5.707
12154TIP3   OH236397   2.269   6.436   5.882
12154TIP3    H136398   2.237   6.526   5.903
12154TIP3    H236399   2.235   6.385   5.958
12155TIP3   OH236400   2.408   7.014   6.408
12155TIP3    H136401   2.448   7.087   6.356
12155TIP3    H236402   2.486   6.978   6.452
12156TIP3   OH236403   2.057   6.908   5.795
12156TIP3    H136404   1.969   6.920   5.837
12156TIP3    H236405   2.091   7.000   5.800
12157TIP3   OH236406   2.793   6.652   6.367
12157TIP3    H136407   2.783   6.648   6.465
12157TIP3    H236408   2.868   6.593   6.353
12158TIP3   OH236409   2.772   6.545   5.252
12158TIP3    H136410   2.826   6.519   5.330
12158TIP3    H236411   2.684   6.516   5.281
12159TIP3   OH236412   3.042   7.183   6.419
12159TIP3    H136413   2.962   7.127   6.411
12159TIP3    H236414   3.027   7.246   6.345
12160TIP3   OH236415   3.109   7.017   5.070
12160TIP3    H136416   3.149   7.094   5.026
12160TIP3    H236417   3.027   7.060   5.104
12161TIP3   OH236418   2.125   5.796   6.935
12161TIP3    H136419   2.028   5.793   6.944
12161TIP3    H236420   2.153   5.734   7.004
12162TIP3   OH236421   2.932   6.473   5.463
12162TIP3    H136422   2.922   6.409   5.537
12162TIP3    H236423   3.030   6.472   5.454
12163TIP3   OH236424   1.842   6.877   6.567
12163TIP3    H136425   1.900   6.807   6.603
12163TIP3    H236426   1.872   6.954   6.619
12164TIP3   OH236427   2.138   6.520   5.251
12164TIP3    H136428   2.149   6.426   5.227
12164TIP3    H236429   2.113   6.513   5.345
12165TIP3   OH236430   2.078   6.526   5.522
12165TIP3    H136431   2.153   6.499   5.577
12165TIP3    H236432   2.080   6.624   5.531
12166TIP3   OH236433   1.810   6.218   5.727
12166TIP3    H136434   1.745   6.264   5.784
12166TIP3    H236435   1.827   6.287   5.660
12167TIP3   OH236436   2.962   5.866   6.628
12167TIP3    H136437   3.050   5.894   6.657
12167TIP3    H236438   2.950   5.781   6.675
12168TIP3   OH236439   2.861   5.604   5.776
12168TIP3    H136440   2.839   5.636   5.686
12168TIP3    H236441   2.892   5.687   5.819
12169TIP3   OH236442   2.346   6.726   5.471
12169TIP3    H136443   2.258   6.747   5.507
12169TIP3    H236444   2.362   6.806   5.418
12170TIP3   OH236445   2.528   5.797   5.879
12170TIP3    H136446   2.598   5.864   5.872
12170TIP3    H236447   2.535   5.771   5.974
12171TIP3   OH236448   2.803   6.103   6.690
12171TIP3    H136449   2.832   6.150   6.772
12171TIP3    H236450   2.856   6.021   6.692
12172TIP3   OH236451   2.740   5.542   6.030
12172TIP3    H136452   2.643   5.535   6.020
12172TIP3    H236453   2.768   5.560   5.938
12173TIP3   OH236454   2.090   6.796   5.541
12173TIP3    H136455   2.062   6.863   5.474
12173TIP3    H236456   2.075   6.845   5.625
12174TIP3   OH236457   2.189   5.512   5.778
12174TIP3    H136458   2.192   5.600   5.820
12174TIP3    H236459   2.258   5.467   5.832
12175TIP3   OH236460   3.444   6.006   6.673
12175TIP3    H136461   3.346   6.007   6.683
12175TIP3    H236462   3.450   5.957   6.590
12176TIP3   OH236463   3.094   6.201   6.063
12176TIP3    H136464   3.017   6.142   6.072
12176TIP3    H236465   3.163   6.151   6.112
12177TIP3   OH236466   1.808   6.426   5.531
12177TIP3    H136467   1.878   6.494   5.539
12177TIP3    H236468   1.852   6.368   5.465
12178TIP3   OH236469   1.748   5.703   5.668
12178TIP3    H136470   1.754   5.801   5.664
12178TIP3    H236471   1.669   5.686   5.616
12179TIP3   OH236472   3.064   7.160   6.011
12179TIP3    H136473   3.021   7.207   5.936
12179TIP3    H236474   3.158   7.178   5.990
12180TIP3   OH236475   2.133   5.428   6.540
12180TIP3    H136476   2.106   5.391   6.453
12180TIP3    H236477   2.125   5.349   6.598
12181TIP3   OH236478   1.675   6.641   5.916
12181TIP3    H136479   1.610   6.675   5.978
12181TIP3    H236480   1.646   6.686   5.833
12182TIP3   OH236481   1.837   7.170   6.985
12182TIP3    H136482   1.925   7.173   7.028
12182TIP3    H236483   1.818   7.075   6.986
12183TIP3   OH236484   2.324   7.141   7.036
12183TIP3    H136485   2.417   7.116   7.035
12183TIP3    H236486   2.290   7.086   6.963
12184TIP3   OH236487   2.295   6.724   5.158
12184TIP3    H136488   2.238   6.655   5.200
12184TIP3    H236489   2.372   6.670   5.134
12185TIP3   OH236490   2.949   7.061   6.774
12185TIP3    H136491   2.946   6.988   6.840
12185TIP3    H236492   3.030   7.109   6.800
12186TIP3   OH236493   2.735   6.762   5.076
12186TIP3    H136494   2.771   6.696   5.139
12186TIP3    H236495   2.798   6.758   5.002
12187TIP3   OH236496   1.965   6.594   7.192
12187TIP3    H136497   1.982   6.497   7.195
12187TIP3    H236498   1.879   6.596   7.146
12188TIP3   OH236499   1.944   6.238   5.388
12188TIP3    H136500   2.001   6.209   5.461
12188TIP3    H236501   2.011   6.244   5.316
12189TIP3   OH236502   2.570   6.679   6.966
12189TIP3    H136503   2.530   6.699   6.879
12189TIP3    H236504   2.602   6.587   6.954
12190TIP3   OH236505   2.461   6.443   5.191
12190TIP3    H136506   2.459   6.456   5.288
12190TIP3    H236507   2.459   6.344   5.187
12191TIP3   OH236508   3.067   6.692   6.575
12191TIP3    H136509   3.142   6.733   6.528
12191TIP3    H236510   2.997   6.758   6.557
12192TIP3   OH236511   2.083   6.332   7.174
12192TIP3    H136512   2.159   6.282   7.141
12192TIP3    H236513   2.115   6.361   7.262
12193TIP3   OH236514   2.147   6.148   5.603
12193TIP3    H136515   2.126   6.106   5.688
12193TIP3    H236516   2.186   6.073   5.553
12194TIP3   OH236517   2.419   6.210   6.836
12194TIP3    H136518   2.342   6.271   6.838
12194TIP3    H236519   2.470   6.245   6.759
12195TIP3   OH236520   2.253   5.945   5.444
12195TIP3    H136521   2.229   5.950   5.349
12195TIP3    H236522   2.351   5.947   5.438
12196TIP3   OH236523   2.940   6.614   6.968
12196TIP3    H136524   3.013   6.581   6.914
12196TIP3    H236525   2.934   6.546   7.037
12197TIP3   OH236526   3.071   6.270   5.113
12197TIP3    H136527   3.050   6.225   5.028
12197TIP3    H236528   3.039   6.361   5.091
12198TIP3   OH236529   2.543   6.001   6.960
12198TIP3    H136530   2.545   5.922   6.902
12198TIP3    H236531   2.500   6.067   6.902
12199TIP3   OH236532   2.547   5.789   6.770
12199TIP3    H136533   2.577   5.827   6.685
12199TIP3    H236534   2.455   5.764   6.750
12200TIP3   OH236535   2.569   6.324   6.647
12200TIP3    H136536   2.654   6.328   6.600
12200TIP3    H236537   2.515   6.388   6.596
12201TIP3   OH236538   3.155   6.288   7.022
12201TIP3    H136539   3.198   6.201   7.025
12201TIP3    H236540   3.224   6.343   6.981
12202TIP3   OH236541   3.194   6.545   6.762
12202TIP3    H136542   3.137   6.599   6.702
12202TIP3    H236543   3.282   6.563   6.722
12203TIP3   OH236544   2.424   6.107   7.195
12203TIP3    H136545   2.356   6.038   7.208
12203TIP3    H236546   2.457   6.084   7.105
12204TIP3   OH236547   2.679   5.551   6.840
12204TIP3    H136548   2.630   5.632   6.814
12204TIP3    H236549   2.612   5.481   6.824
12205TIP3   OH236550   2.802   6.052   7.052
12205TIP3    H136551   2.785   6.036   7.147
12205TIP3    H236552   2.714   6.028   7.016
12206TIP3   OH236553   3.046   6.012   6.912
12206TIP3    H136554   2.969   6.005   6.971
12206TIP3    H236555   3.118   5.975   6.967
12207TIP3   OH236556   3.276   5.947   7.059
12207TIP3    H136557   3.288   5.850   7.073
12207TIP3    H236558   3.271   5.981   7.151
12208TIP3   OH236559   2.260   5.889   7.249
12208TIP3    H136560   2.263   5.798   7.213
12208TIP3    H236561   2.299   5.874   7.337
12209TIP3   OH236562   2.771   5.559   7.098
12209TIP3    H136563   2.837   5.488   7.090
12209TIP3    H236564   2.731   5.556   7.008
12210TIP3   OH236565   2.839   5.774   7.253
12210TIP3    H136566   2.818   5.702   7.189
12210TIP3    H236567   2.760   5.831   7.245
12211TIP3   OH236568   2.050   6.981   5.343
12211TIP3    H136569   2.141   6.996   5.314
12211TIP3    H236570   2.016   7.074   5.351
12212TIP3   OH236571   1.540   6.384   5.569
12212TIP3    H136572   1.635   6.406   5.553
12212TIP3    H236573   1.534   6.296   5.526
12213TIP3   OH236574   1.450   6.994   5.988
12213TIP3    H136575   1.386   6.931   5.948
12213TIP3    H236576   1.498   6.935   6.050
12214TIP3   OH236577   1.589   6.841   6.170
12214TIP3    H136578   1.582   6.771   6.238
12214TIP3    H236579   1.641   6.907   6.219
12215TIP3   OH236580   3.320   7.246   5.971
12215TIP3    H136581   3.347   7.281   6.057
12215TIP3    H236582   3.385   7.285   5.910
12216TIP3   OH236583   3.346   7.269   6.255
12216TIP3    H136584   3.301   7.182   6.249
12216TIP3    H236585   3.423   7.243   6.309
12217TIP3   OH236586   3.394   6.945   6.826
12217TIP3    H136587   3.322   6.954   6.892
12217TIP3    H236588   3.436   7.033   6.830
12218TIP3   OH236589   3.211   6.456   5.443
12218TIP3    H136590   3.278   6.522   5.415
12218TIP3    H236591   3.255   6.418   5.523
12219TIP3   OH236592   3.338   6.324   5.648
12219TIP3    H136593   3.271   6.281   5.706
12219TIP3    H236594   3.401   6.360   5.713
12220TIP3   OH236595   3.395   6.720   6.081
12220TIP3    H136596   3.447   6.652   6.033
12220TIP3    H236597   3.390   6.792   6.015
12221TIP3   OH236598   3.221   7.018   6.274
12221TIP3    H136599   3.148   7.059   6.324
12221TIP3    H236600   3.172   6.971   6.203
12222TIP3   OH236601   3.274   6.233   5.293
12222TIP3    H136602   3.202   6.236   5.227
12222TIP3    H236603   3.247   6.309   5.349
12223TIP3   OH236604   3.147   5.904   5.245
12223TIP3    H136605   3.098   5.939   5.170
12223TIP3    H236606   3.125   5.808   5.237
12224TIP3   OH236607   3.150   6.182   5.792
12224TIP3    H136608   3.155   6.085   5.786
12224TIP3    H236609   3.134   6.196   5.889
12225TIP3   OH236610   1.775   6.256   6.542
12225TIP3    H136611   1.773   6.221   6.450
12225TIP3    H236612   1.872   6.258   6.559
12226TIP3   OH236613   3.439   6.607   6.653
12226TIP3    H136614   3.510   6.540   6.641
12226TIP3    H236615   3.463   6.674   6.587
12227TIP3   OH236616   3.623   6.408   6.661
12227TIP3    H136617   3.547   6.359   6.700
12227TIP3    H236618   3.695   6.345   6.679
12228TIP3   OH236619   3.090   5.637   5.227
12228TIP3    H136620   3.161   5.607   5.287
12228TIP3    H236621   3.014   5.582   5.251
12229TIP3   OH236622   3.147   5.899   5.684
12229TIP3    H136623   3.188   5.811   5.701
12229TIP3    H236624   3.206   5.931   5.614
12230TIP3   OH236625   3.308   6.068   6.184
12230TIP3    H136626   3.393   6.094   6.143
12230TIP3    H236627   3.321   6.106   6.273
12231TIP3   OH236628   3.381   6.217   6.414
12231TIP3    H136629   3.302   6.249   6.462
12231TIP3    H236630   3.411   6.298   6.369
12232TIP3   OH236631   1.994   5.942   7.219
12232TIP3    H136632   2.092   5.935   7.220
12232TIP3    H236633   1.971   5.855   7.256
12233TIP3   OH236634   3.830   5.811   6.969
12233TIP3    H136635   3.889   5.745   6.927
12233TIP3    H236636   3.799   5.863   6.892
12234TIP3   OH236637   3.256   5.649   5.724
12234TIP3    H136638   3.301   5.632   5.809
12234TIP3    H236639   3.193   5.574   5.722
12235TIP3   OH236640   1.953   5.638   6.556
12235TIP3    H136641   2.013   5.560   6.558
12235TIP3    H236642   2.017   5.709   6.540
12236TIP3   OH236643   1.754   5.910   6.615
12236TIP3    H136644   1.805   5.898   6.532
12236TIP3    H236645   1.792   5.991   6.649
12237TIP3   OH236646   3.697   5.944   6.773
12237TIP3    H136647   3.610   5.986   6.787
12237TIP3    H236648   3.669   5.869   6.716
12238TIP3   OH236649   3.333   5.580   5.360
12238TIP3    H136650   3.373   5.509   5.305
12238TIP3    H236651   3.401   5.650   5.356
12239TIP3   OH236652   1.747   5.416   6.127
12239TIP3    H136653   1.653   5.404   6.148
12239TIP3    H236654   1.743   5.468   6.044
12240TIP3   OH236655   2.905   7.112   5.627
12240TIP3    H136656   2.956   7.101   5.544
12240TIP3    H236657   2.954   7.183   5.671
12241TIP3   OH236658   1.965   5.498   6.939
12241TIP3    H136659   1.909   5.488   7.018
12241TIP3    H236660   1.899   5.528   6.873
12242TIP3   OH236661   2.005   6.915   7.009
12242TIP3    H136662   1.912   6.892   6.989
12242TIP3    H236663   2.009   6.900   7.104
12243TIP3   OH236664   2.183   6.956   6.560
12243TIP3    H136665   2.135   7.032   6.521
12243TIP3    H236666   2.268   6.968   6.513
12244TIP3   OH236667   2.623   7.194   6.697
12244TIP3    H136668   2.666   7.195   6.784
12244TIP3    H236669   2.687   7.245   6.644
12245TIP3   OH236670   2.800   7.349   6.557
12245TIP3    H136671   2.868   7.299   6.509
12245TIP3    H236672   2.856   7.404   6.616
12246TIP3   OH236673   3.598   5.707   6.655
12246TIP3    H136674   3.508   5.696   6.620
12246TIP3    H236675   3.632   5.615   6.644
12247TIP3   OH236676   1.857   7.206   6.586
12247TIP3    H136677   1.767   7.238   6.560
12247TIP3    H236678   1.871   7.260   6.665
12248TIP3   OH236679   2.093   7.189   6.443
12248TIP3    H136680   2.005   7.200   6.486
12248TIP3    H236681   2.073   7.220   6.352
12249TIP3   OH236682   2.517   7.213   6.241
12249TIP3    H136683   2.450   7.230   6.171
12249TIP3    H236684   2.529   7.302   6.278
12250TIP3   OH236685   2.787   7.155   6.295
12250TIP3    H136686   2.693   7.170   6.273
12250TIP3    H236687   2.830   7.225   6.243
12251TIP3   OH236688   2.994   7.345   6.203
12251TIP3    H136689   2.978   7.429   6.155
12251TIP3    H236690   3.020   7.285   6.129
12252TIP3   OH236691   1.764   7.000   6.326
12252TIP3    H136692   1.793   6.973   6.416
12252TIP3    H236693   1.838   6.959   6.274
12253TIP3   OH236694   1.962   6.875   6.187
12253TIP3    H136695   1.978   6.790   6.235
12253TIP3    H236696   2.053   6.911   6.182
12254TIP3   OH236697   2.228   6.966   6.191
12254TIP3    H136698   2.259   6.874   6.177
12254TIP3    H236699   2.277   6.988   6.273
12255TIP3   OH236700   2.810   5.631   6.289
12255TIP3    H136701   2.769   5.558   6.340
12255TIP3    H236702   2.800   5.597   6.197
12256TIP3   OH236703   3.333   5.506   6.180
12256TIP3    H136704   3.365   5.557   6.102
12256TIP3    H236705   3.236   5.513   6.168
12257TIP3   OH236706   3.421   5.603   5.940
12257TIP3    H136707   3.495   5.552   5.902
12257TIP3    H236708   3.454   5.695   5.926
12258TIP3   OH236709   2.051   5.329   6.293
12258TIP3    H136710   1.960   5.294   6.286
12258TIP3    H236711   2.103   5.246   6.287
12259TIP3   OH236712   1.807   5.210   5.913
12259TIP3    H136713   1.862   5.266   5.855
12259TIP3    H236714   1.810   5.260   5.997
12260TIP3   OH236715   3.066   5.506   6.143
12260TIP3    H136716   2.997   5.501   6.076
12260TIP3    H236717   3.034   5.438   6.207
12261TIP3   OH236718   3.074   5.437   5.716
12261TIP3    H136719   2.991   5.486   5.736
12261TIP3    H236720   3.055   5.353   5.762
12262TIP3   OH236721   1.552   6.779   5.719
12262TIP3    H136722   1.467   6.748   5.683
12262TIP3    H236723   1.548   6.873   5.691
12263TIP3   OH236724   1.959   5.367   5.696
12263TIP3    H136725   2.008   5.301   5.644
12263TIP3    H236726   2.032   5.421   5.734
12264TIP3   OH236727   2.330   6.956   5.302
12264TIP3    H136728   2.417   6.980   5.265
12264TIP3    H236729   2.306   6.883   5.242
12265TIP3   OH236730   3.049   7.082   5.392
12265TIP3    H136731   3.040   6.984   5.381
12265TIP3    H236732   3.000   7.114   5.313
12266TIP3   OH236733   2.258   5.616   7.186
12266TIP3    H136734   2.225   5.542   7.241
12266TIP3    H236735   2.353   5.615   7.210
12267TIP3   OH236736   2.510   5.612   7.301
12267TIP3    H136737   2.593   5.586   7.258
12267TIP3    H236738   2.498   5.540   7.366
12268TIP3   OH236739   1.626   6.793   5.356
12268TIP3    H136740   1.639   6.824   5.447
12268TIP3    H236741   1.713   6.750   5.337
12269TIP3   OH236742   3.336   5.676   7.088
12269TIP3    H136743   3.355   5.644   7.179
12269TIP3    H236744   3.425   5.669   7.046
12270TIP3   OH236745   3.269   7.224   6.581
12270TIP3    H136746   3.192   7.194   6.529
12270TIP3    H236747   3.251   7.320   6.585
12271TIP3   OH236748   4.547   6.609   5.342
12271TIP3    H136749   4.548   6.672   5.417
12271TIP3    H236750   4.456   6.574   5.345
12272TIP3   OH236751   4.532   6.587   5.726
12272TIP3    H136752   4.574   6.581   5.815
12272TIP3    H236753   4.492   6.498   5.719
12273TIP3   OH236754   3.836   6.490   6.093
12273TIP3    H136755   3.867   6.421   6.155
12273TIP3    H236756   3.915   6.546   6.088
12274TIP3   OH236757   4.776   6.891   5.416
12274TIP3    H136758   4.787   6.834   5.494
12274TIP3    H236759   4.802   6.977   5.454
12275TIP3   OH236760   3.811   6.904   5.815
12275TIP3    H136761   3.802   6.806   5.817
12275TIP3    H236762   3.908   6.912   5.807
12276TIP3   OH236763   3.517   6.106   5.597
12276TIP3    H136764   3.467   6.187   5.616
12276TIP3    H236765   3.447   6.051   5.557
12277TIP3   OH236766   3.573   6.392   5.779
12277TIP3    H136767   3.623   6.314   5.812
12277TIP3    H236768   3.632   6.426   5.711
12278TIP3   OH236769   4.437   7.366   5.426
12278TIP3    H136770   4.471   7.295   5.367
12278TIP3    H236771   4.433   7.319   5.510
12279TIP3   OH236772   4.337   6.820   5.773
12279TIP3    H136773   4.382   6.741   5.739
12279TIP3    H236774   4.417   6.870   5.801
12280TIP3   OH236775   5.353   6.142   5.772
12280TIP3    H136776   5.382   6.226   5.812
12280TIP3    H236777   5.381   6.155   5.679
12281TIP3   OH236778   4.751   6.323   5.805
12281TIP3    H136779   4.795   6.238   5.826
12281TIP3    H236780   4.718   6.304   5.715
12282TIP3   OH236781   4.092   5.984   5.771
12282TIP3    H136782   4.069   6.056   5.708
12282TIP3    H236783   4.043   5.909   5.729
12283TIP3   OH236784   4.783   6.077   5.390
12283TIP3    H136785   4.853   6.062   5.458
12283TIP3    H236786   4.839   6.109   5.316
12284TIP3   OH236787   3.722   6.185   5.880
12284TIP3    H136788   3.804   6.165   5.928
12284TIP3    H236789   3.734   6.129   5.801
12285TIP3   OH236790   4.163   6.384   5.671
12285TIP3    H136791   4.255   6.356   5.688
12285TIP3    H236792   4.122   6.299   5.642
12286TIP3   OH236793   5.425   6.352   5.944
12286TIP3    H136794   5.341   6.398   5.922
12286TIP3    H236795   5.440   6.384   6.034
12287TIP3   OH236796   4.085   5.968   6.208
12287TIP3    H136797   4.025   6.004   6.139
12287TIP3    H236798   4.031   5.985   6.288
12288TIP3   OH236799   4.189   6.743   5.998
12288TIP3    H136800   4.129   6.812   6.036
12288TIP3    H236801   4.234   6.793   5.927
12289TIP3   OH236802   4.985   6.085   5.569
12289TIP3    H136803   4.989   6.026   5.645
12289TIP3    H236804   5.041   6.160   5.597
12290TIP3   OH236805   3.957   6.082   5.990
12290TIP3    H136806   4.019   6.155   6.013
12290TIP3    H236807   4.007   6.041   5.915
12291TIP3   OH236808   4.021   6.940   6.099
12291TIP3    H136809   3.996   7.027   6.061
12291TIP3    H236810   3.941   6.924   6.155
12292TIP3   OH236811   3.411   6.629   5.336
12292TIP3    H136812   3.369   6.657   5.253
12292TIP3    H236813   3.442   6.715   5.373
12293TIP3   OH236814   4.841   7.122   5.559
12293TIP3    H136815   4.755   7.126   5.606
12293TIP3    H236816   4.844   7.212   5.519
12294TIP3   OH236817   5.147   6.043   5.941
12294TIP3    H136818   5.059   6.068   5.908
12294TIP3    H236819   5.206   6.074   5.869
12295TIP3   OH236820   4.438   5.682   5.924
12295TIP3    H136821   4.422   5.587   5.942
12295TIP3    H236822   4.361   5.722   5.970
12296TIP3   OH236823   4.552   7.189   5.250
12296TIP3    H136824   4.589   7.101   5.224
12296TIP3    H236825   4.616   7.248   5.204
12297TIP3   OH236826   4.677   6.954   5.163
12297TIP3    H136827   4.695   6.879   5.103
12297TIP3    H236828   4.715   6.922   5.248
12298TIP3   OH236829   5.077   7.049   5.927
12298TIP3    H136830   5.066   6.977   5.862
12298TIP3    H236831   5.047   7.127   5.874
12299TIP3   OH236832   4.329   6.533   5.144
12299TIP3    H136833   4.258   6.473   5.120
12299TIP3    H236834   4.398   6.508   5.079
12300TIP3   OH236835   4.330   6.237   4.895
12300TIP3    H136836   4.401   6.292   4.934
12300TIP3    H236837   4.384   6.170   4.848
12301TIP3   OH236838   5.274   6.695   5.768
12301TIP3    H136839   5.190   6.746   5.770
12301TIP3    H236840   5.304   6.717   5.677
12302TIP3   OH236841   4.718   6.527   5.144
12302TIP3    H136842   4.666   6.562   5.221
12302TIP3    H236843   4.802   6.502   5.189
12303TIP3   OH236844   4.951   6.569   6.065
12303TIP3    H136845   4.949   6.654   6.113
12303TIP3    H236846   4.865   6.574   6.017
12304TIP3   OH236847   3.960   6.534   5.555
12304TIP3    H136848   3.912   6.475   5.493
12304TIP3    H236849   4.029   6.476   5.591
12305TIP3   OH236850   4.076   6.937   5.713
12305TIP3    H136851   4.056   6.901   5.626
12305TIP3    H236852   4.166   6.901   5.731
12306TIP3   OH236853   4.085   6.501   5.919
12306TIP3    H136854   4.120   6.479   5.830
12306TIP3    H236855   4.128   6.587   5.938
12307TIP3   OH236856   4.610   7.140   5.700
12307TIP3    H136857   4.602   7.224   5.749
12307TIP3    H236858   4.595   7.072   5.768
12308TIP3   OH236859   4.224   7.056   6.247
12308TIP3    H136860   4.163   7.119   6.291
12308TIP3    H236861   4.160   7.003   6.195
12309TIP3   OH236862   4.541   6.400   4.980
12309TIP3    H136863   4.610   6.450   5.031
12309TIP3    H236864   4.572   6.418   4.887
12310TIP3   OH236865   3.980   6.609   6.350
12310TIP3    H136866   3.984   6.699   6.390
12310TIP3    H236867   3.884   6.590   6.361
12311TIP3   OH236868   4.018   7.223   6.331
12311TIP3    H136869   3.985   7.225   6.239
12311TIP3    H236870   3.936   7.202   6.382
12312TIP3   OH236871   5.068   5.627   5.017
12312TIP3    H136872   4.988   5.649   5.069
12312TIP3    H236873   5.083   5.711   4.968
12313TIP3   OH236874   3.819   6.374   5.367
12313TIP3    H136875   3.748   6.416   5.314
12313TIP3    H236876   3.781   6.286   5.382
12314TIP3   OH236877   4.875   6.998   4.572
12314TIP3    H136878   4.883   7.094   4.556
12314TIP3    H236879   4.968   6.968   4.560
12315TIP3   OH236880   3.597   6.757   6.278
12315TIP3    H136881   3.529   6.737   6.210
12315TIP3    H236882   3.633   6.668   6.298
12316TIP3   OH236883   3.452   6.948   5.910
12316TIP3    H136884   3.548   6.943   5.899
12316TIP3    H236885   3.443   7.027   5.965
12317TIP3   OH236886   5.332   7.402   5.985
12317TIP3    H136887   5.318   7.306   5.991
12317TIP3    H236888   5.243   7.434   6.011
12318TIP3   OH236889   4.415   7.187   6.097
12318TIP3    H136890   4.414   7.279   6.132
12318TIP3    H236891   4.348   7.144   6.155
12319TIP3   OH236892   3.605   7.167   5.445
12319TIP3    H136893   3.662   7.156   5.524
12319TIP3    H236894   3.555   7.084   5.447
12320TIP3   OH236895   4.386   7.222   4.692
12320TIP3    H136896   4.443   7.149   4.660
12320TIP3    H236897   4.408   7.226   4.787
12321TIP3   OH236898   4.409   7.261   4.974
12321TIP3    H136899   4.328   7.212   5.000
12321TIP3    H236900   4.468   7.235   5.047
12322TIP3   OH236901   5.204   6.530   6.243
12322TIP3    H136902   5.123   6.543   6.193
12322TIP3    H236903   5.220   6.435   6.231
12323TIP3   OH236904   3.802   6.939   6.263
12323TIP3    H136905   3.851   6.922   6.346
12323TIP3    H236906   3.727   6.876   6.270
12324TIP3   OH236907   4.201   5.762   6.053
12324TIP3    H136908   4.112   5.731   6.024
12324TIP3    H236909   4.173   5.843   6.101
12325TIP3   OH236910   4.735   5.877   6.246
12325TIP3    H136911   4.803   5.849   6.311
12325TIP3    H236912   4.651   5.857   6.293
12326TIP3   OH236913   4.972   6.306   6.165
12326TIP3    H136914   4.922   6.305   6.249
12326TIP3    H236915   4.949   6.394   6.128
12327TIP3   OH236916   4.633   6.433   4.726
12327TIP3    H136917   4.597   6.412   4.638
12327TIP3    H236918   4.718   6.474   4.700
12328TIP3   OH236919   4.346   5.810   5.022
12328TIP3    H136920   4.311   5.807   5.113
12328TIP3    H236921   4.307   5.728   4.987
12329TIP3   OH236922   4.134   6.278   6.069
12329TIP3    H136923   4.082   6.297   6.150
12329TIP3    H236924   4.117   6.360   6.017
12330TIP3   OH236925   4.015   6.166   5.583
12330TIP3    H136926   3.923   6.138   5.603
12330TIP3    H236927   4.027   6.123   5.495
12331TIP3   OH236928   4.510   6.256   5.309
12331TIP3    H136929   4.467   6.323   5.255
12331TIP3    H236930   4.570   6.215   5.243
12332TIP3   OH236931   4.681   6.525   6.395
12332TIP3    H136932   4.659   6.452   6.458
12332TIP3    H236933   4.775   6.539   6.418
12333TIP3   OH236934   4.663   6.272   5.548
12333TIP3    H136935   4.601   6.294   5.475
12333TIP3    H236936   4.704   6.193   5.507
12334TIP3   OH236937   3.953   6.306   6.277
12334TIP3    H136938   3.979   6.370   6.345
12334TIP3    H236939   3.940   6.224   6.329
12335TIP3   OH236940   4.003   5.786   4.988
12335TIP3    H136941   3.992   5.782   5.085
12335TIP3    H236942   3.924   5.838   4.963
12336TIP3   OH236943   3.545   5.828   5.858
12336TIP3    H136944   3.621   5.859   5.912
12336TIP3    H236945   3.586   5.794   5.777
12337TIP3   OH236946   3.511   5.808   5.376
12337TIP3    H136947   3.557   5.846   5.299
12337TIP3    H236948   3.450   5.881   5.397
12338TIP3   OH236949   4.670   6.524   5.966
12338TIP3    H136950   4.705   6.451   5.908
12338TIP3    H236951   4.641   6.471   6.043
12339TIP3   OH236952   4.348   5.990   5.644
12339TIP3    H136953   4.267   5.986   5.698
12339TIP3    H236954   4.418   5.977   5.710
12340TIP3   OH236955   3.779   6.044   5.651
12340TIP3    H136956   3.684   6.051   5.623
12340TIP3    H236957   3.800   5.951   5.629
12341TIP3   OH236958   4.043   6.037   5.344
12341TIP3    H136959   4.136   6.049   5.319
12341TIP3    H236960   3.994   6.057   5.260
12342TIP3   OH236961   4.838   6.062   5.851
12342TIP3    H136962   4.801   6.075   5.942
12342TIP3    H236963   4.773   6.001   5.813
12343TIP3   OH236964   3.893   6.071   5.119
12343TIP3    H136965   3.820   6.026   5.073
12343TIP3    H236966   3.944   6.106   5.043
12344TIP3   OH236967   4.998   7.744   6.056
12344TIP3    H136968   5.001   7.726   5.959
12344TIP3    H236969   5.080   7.795   6.069
12345TIP3   OH236970   3.962   6.860   6.486
12345TIP3    H136971   4.042   6.890   6.533
12345TIP3    H236972   3.898   6.859   6.559
12346TIP3   OH236973   4.429   6.320   5.743
12346TIP3    H136974   4.499   6.273   5.695
12346TIP3    H236975   4.430   6.275   5.830
12347TIP3   OH236976   3.947   5.799   5.626
12347TIP3    H136977   3.909   5.723   5.675
12347TIP3    H236978   3.992   5.755   5.553
12348TIP3   OH236979   4.402   6.217   6.027
12348TIP3    H136980   4.312   6.250   6.045
12348TIP3    H236981   4.459   6.277   6.079
12349TIP3   OH236982   5.039   6.837   5.752
12349TIP3    H136983   5.065   6.890   5.674
12349TIP3    H236984   4.953   6.798   5.722
12350TIP3   OH236985   4.597   5.912   4.996
12350TIP3    H136986   4.501   5.891   5.003
12350TIP3    H236987   4.602   6.007   5.018
12351TIP3   OH236988   4.526   6.913   6.127
12351TIP3    H136989   4.570   6.905   6.213
12351TIP3    H236990   4.504   7.008   6.124
12352TIP3   OH236991   4.667   6.164   5.097
12352TIP3    H136992   4.763   6.163   5.112
12352TIP3    H236993   4.656   6.241   5.038
12353TIP3   OH236994   3.834   6.625   5.797
12353TIP3    H136995   3.875   6.598   5.713
12353TIP3    H236996   3.877   6.564   5.860
12354TIP3   OH236997   3.715   6.542   6.415
12354TIP3    H136998   3.729   6.526   6.510
12354TIP3    H236999   3.644   6.478   6.396
12355TIP3   OH237000   4.440   6.659   6.437
12355TIP3    H137001   4.378   6.601   6.389
12355TIP3    H237002   4.526   6.624   6.406
12356TIP3   OH237003   4.694   7.156   6.040
12356TIP3    H137004   4.600   7.179   6.034
12356TIP3    H237005   4.725   7.222   6.106
12357TIP3   OH237006   5.105   6.255   4.929
12357TIP3    H137007   5.043   6.211   4.866
12357TIP3    H237008   5.103   6.344   4.888
12358TIP3   OH237009   5.329   7.106   6.010
12358TIP3    H137010   5.231   7.103   5.999
12358TIP3    H237011   5.356   7.079   5.919
12359TIP3   OH237012   4.814   7.072   4.835
12359TIP3    H137013   4.781   6.998   4.889
12359TIP3    H237014   4.825   7.030   4.748
12360TIP3   OH237015   4.804   6.703   5.660
12360TIP3    H137016   4.714   6.675   5.683
12360TIP3    H237017   4.840   6.619   5.622
12361TIP3   OH237018   3.943   6.913   5.429
12361TIP3    H137019   3.941   7.000   5.383
12361TIP3    H237020   3.849   6.903   5.448
12362TIP3   OH237021   3.498   6.232   5.133
12362TIP3    H137022   3.543   6.316   5.155
12362TIP3    H237023   3.420   6.237   5.194
12363TIP3   OH237024   4.119   6.719   5.360
12363TIP3    H137025   4.057   6.793   5.382
12363TIP3    H237026   4.083   6.650   5.417
12364TIP3   OH237027   4.205   7.269   5.894
12364TIP3    H137028   4.246   7.343   5.844
12364TIP3    H237029   4.283   7.236   5.943
12365TIP3   OH237030   3.866   7.153   5.323
12365TIP3    H137031   3.775   7.184   5.338
12365TIP3    H237032   3.900   7.219   5.262
12366TIP3   OH237033   4.587   6.901   5.859
12366TIP3    H137034   4.574   6.900   5.957
12366TIP3    H237035   4.678   6.869   5.852
12367TIP3   OH237036   4.572   6.795   4.731
12367TIP3    H137037   4.613   6.776   4.818
12367TIP3    H237038   4.481   6.762   4.744
12368TIP3   OH237039   4.904   7.272   4.556
12368TIP3    H137040   4.940   7.346   4.504
12368TIP3    H237041   4.824   7.317   4.593
12369TIP3   OH237042   3.921   6.051   6.420
12369TIP3    H137043   3.824   6.054   6.430
12369TIP3    H237044   3.946   5.991   6.493
12370TIP3   OH237045   4.731   6.741   4.966
12370TIP3    H137046   4.721   6.665   5.027
12370TIP3    H237047   4.826   6.733   4.945
12371TIP3   OH237048   3.641   7.134   6.053
12371TIP3    H137049   3.695   7.061   6.088
12371TIP3    H237050   3.671   7.208   6.107
12372TIP3   OH237051   3.973   6.756   4.746
12372TIP3    H137052   3.945   6.665   4.721
12372TIP3    H237053   3.929   6.767   4.833
12373TIP3   OH237054   3.883   6.808   5.010
12373TIP3    H137055   3.918   6.758   5.084
12373TIP3    H237056   3.932   6.892   5.020
12374TIP3   OH237057   3.608   6.477   5.216
12374TIP3    H137058   3.542   6.521   5.272
12374TIP3    H237059   3.621   6.545   5.147
12375TIP3   OH237060   4.761   6.116   6.110
12375TIP3    H137061   4.844   6.152   6.145
12375TIP3    H237062   4.750   6.034   6.162
12376TIP3   OH237063   4.640   5.864   5.275
12376TIP3    H137064   4.630   5.884   5.181
12376TIP3    H237065   4.684   5.944   5.310
12377TIP3   OH237066   4.328   6.049   5.374
12377TIP3    H137067   4.397   6.118   5.360
12377TIP3    H237068   4.333   6.037   5.472
12378TIP3   OH237069   4.601   6.362   6.177
12378TIP3    H137070   4.626   6.414   6.256
12378TIP3    H237071   4.654   6.281   6.186
12379TIP3   OH237072   4.472   5.765   5.474
12379TIP3    H137073   4.471   5.841   5.535
12379TIP3    H237074   4.534   5.799   5.405
12380TIP3   OH237075   3.986   5.770   5.264
12380TIP3    H137076   3.983   5.859   5.303
12380TIP3    H237077   4.083   5.753   5.271
12381TIP3   OH237078   5.239   6.263   6.162
12381TIP3    H137079   5.141   6.262   6.169
12381TIP3    H237080   5.249   6.220   6.076
12382TIP3   OH237081   4.889   6.456   5.550
12382TIP3    H137082   4.816   6.393   5.564
12382TIP3    H237083   4.963   6.411   5.598
12383TIP3   OH237084   3.605   6.684   5.019
12383TIP3    H137085   3.664   6.761   5.020
12383TIP3    H237086   3.653   6.627   4.955
12384TIP3   OH237087   3.547   5.962   5.151
12384TIP3    H137088   3.547   6.060   5.150
12384TIP3    H237089   3.463   5.941   5.110
12385TIP3   OH237090   4.862   7.383   5.482
12385TIP3    H137091   4.818   7.448   5.423
12385TIP3    H237092   4.954   7.418   5.479
12386TIP3   OH237093   3.937   5.681   6.023
12386TIP3    H137094   3.905   5.647   5.936
12386TIP3    H237095   3.925   5.603   6.081
12387TIP3   OH237096   3.468   6.895   5.405
12387TIP3    H137097   3.402   6.927   5.468
12387TIP3    H237098   3.439   6.941   5.322
12388TIP3   OH237099   3.634   7.448   6.478
12388TIP3    H137100   3.721   7.448   6.525
12388TIP3    H237101   3.615   7.353   6.475
12389TIP3   OH237102   4.109   7.402   6.524
12389TIP3    H137103   4.205   7.389   6.528
12389TIP3    H237104   4.085   7.341   6.451
12390TIP3   OH237105   4.092   6.982   4.643
12390TIP3    H137106   4.048   6.907   4.689
12390TIP3    H237107   4.175   6.940   4.614
12391TIP3   OH237108   4.749   7.318   6.259
12391TIP3    H137109   4.745   7.247   6.326
12391TIP3    H237110   4.828   7.369   6.286
12392TIP3   OH237111   4.528   7.020   4.559
12392TIP3    H137112   4.573   6.958   4.619
12392TIP3    H237113   4.585   7.019   4.480
12393TIP3   OH237114   3.761   6.850   6.678
12393TIP3    H137115   3.778   6.754   6.682
12393TIP3    H237116   3.674   6.853   6.632
12394TIP3   OH237117   3.744   6.498   4.876
12394TIP3    H137118   3.799   6.464   4.949
12394TIP3    H237119   3.810   6.497   4.803
12395TIP3   OH237120   4.368   6.936   6.452
12395TIP3    H137121   4.329   6.958   6.365
12395TIP3    H237122   4.400   6.845   6.439
12396TIP3   OH237123   4.271   6.701   4.698
12396TIP3    H137124   4.180   6.712   4.734
12396TIP3    H237125   4.277   6.603   4.693
12397TIP3   OH237126   4.860   6.939   6.057
12397TIP3    H137127   4.938   6.982   6.015
12397TIP3    H237128   4.794   7.011   6.049
12398TIP3   OH237129   3.880   6.588   6.662
12398TIP3    H137130   3.957   6.538   6.632
12398TIP3    H237131   3.910   6.618   6.751
12399TIP3   OH237132   3.931   6.401   5.079
12399TIP3    H137133   3.917   6.370   5.170
12399TIP3    H237134   3.975   6.325   5.037
12400TIP3   OH237135   4.218   6.469   6.323
12400TIP3    H137136   4.139   6.527   6.324
12400TIP3    H237137   4.267   6.502   6.244
12401TIP3   OH237138   4.051   6.196   4.932
12401TIP3    H137139   4.024   6.202   4.838
12401TIP3    H237140   4.149   6.198   4.923
12402TIP3   OH237141   4.733   6.869   6.454
12402TIP3    H137142   4.811   6.841   6.404
12402TIP3    H237143   4.729   6.804   6.526
12403TIP3   OH237144   4.865   6.525   4.602
12403TIP3    H137145   4.846   6.481   4.517
12403TIP3    H237146   4.835   6.616   4.578
12404TIP3   OH237147   4.342   6.258   6.446
12404TIP3    H137148   4.341   6.179   6.387
12404TIP3    H237149   4.297   6.325   6.389
12405TIP3   OH237150   4.344   6.045   6.254
12405TIP3    H137151   4.371   6.085   6.169
12405TIP3    H237152   4.250   6.021   6.236
12406TIP3   OH237153   4.365   6.577   6.127
12406TIP3    H137154   4.452   6.594   6.088
12406TIP3    H237155   4.309   6.645   6.083
12407TIP3   OH237156   4.950   6.545   6.507
12407TIP3    H137157   4.999   6.462   6.511
12407TIP3    H237158   5.016   6.605   6.469
12408TIP3   OH237159   4.989   6.798   6.246
12408TIP3    H137160   4.932   6.852   6.186
12408TIP3    H237161   5.077   6.819   6.207
12409TIP3   OH237162   4.221   6.363   6.681
12409TIP3    H137163   4.152   6.294   6.695
12409TIP3    H237164   4.253   6.340   6.592
12410TIP3   OH237165   4.474   5.807   6.325
12410TIP3    H137166   4.425   5.888   6.301
12410TIP3    H237167   4.405   5.738   6.313
12411TIP3   OH237168   4.601   6.307   6.539
12411TIP3    H137169   4.583   6.294   6.634
12411TIP3    H237170   4.512   6.285   6.503
12412TIP3   OH237171   4.840   6.261   6.395
12412TIP3    H137172   4.764   6.261   6.456
12412TIP3    H237173   4.913   6.230   6.453
12413TIP3   OH237174   5.073   6.204   6.545
12413TIP3    H137175   5.084   6.107   6.560
12413TIP3    H237176   5.066   6.239   6.637
12414TIP3   OH237177   4.058   6.144   6.734
12414TIP3    H137178   4.060   6.053   6.700
12414TIP3    H237179   4.095   6.131   6.824
12415TIP3   OH237180   4.568   5.816   6.583
12415TIP3    H137181   4.633   5.743   6.575
12415TIP3    H237182   4.527   5.812   6.494
12416TIP3   OH237183   4.634   6.030   6.741
12416TIP3    H137184   4.613   5.959   6.676
12416TIP3    H237185   4.556   6.089   6.733
12417TIP3   OH237186   3.842   7.250   4.817
12417TIP3    H137187   3.939   7.241   4.827
12417TIP3    H237188   3.840   7.311   4.741
12418TIP3   OH237189   3.335   6.642   5.052
12418TIP3    H137190   3.431   6.662   5.041
12418TIP3    H237191   3.329   6.553   5.011
12419TIP3   OH237192   3.251   7.253   5.472
12419TIP3    H137193   3.184   7.191   5.433
12419TIP3    H237194   3.296   7.193   5.535
12420TIP3   OH237195   3.384   7.097   5.657
12420TIP3    H137196   3.371   7.029   5.725
12420TIP3    H237197   3.438   7.161   5.707
12421TIP3   OH237198   5.114   7.493   5.481
12421TIP3    H137199   5.102   7.540   5.566
12421TIP3    H237200   5.166   7.557   5.430
12422TIP3   OH237201   5.192   7.198   6.315
12422TIP3    H137202   5.118   7.209   6.378
12422TIP3    H237203   5.231   7.288   6.316
12423TIP3   OH237204   5.004   6.714   4.929
12423TIP3    H137205   5.071   6.780   4.899
12423TIP3    H237206   5.050   6.677   5.009
12424TIP3   OH237207   5.133   6.583   5.134
12424TIP3    H137208   5.068   6.540   5.195
12424TIP3    H237209   5.201   6.618   5.196
12425TIP3   OH237210   5.191   6.976   5.568
12425TIP3    H137211   5.243   6.910   5.517
12425TIP3    H237212   5.186   7.051   5.505
12426TIP3   OH237213   5.000   7.261   5.772
12426TIP3    H137214   5.001   7.356   5.750
12426TIP3    H237215   4.952   7.224   5.696
12427TIP3   OH237216   5.070   6.490   4.781
12427TIP3    H137217   4.997   6.492   4.714
12427TIP3    H237218   5.043   6.567   4.836
12428TIP3   OH237219   4.936   6.163   4.736
12428TIP3    H137220   4.898   6.196   4.654
12428TIP3    H237221   4.915   6.068   4.729
12429TIP3   OH237222   4.946   6.438   5.280
12429TIP3    H137223   4.958   6.342   5.274
12429TIP3    H237224   4.933   6.451   5.376
12430TIP3   OH237225   3.571   6.510   6.030
12430TIP3    H137226   3.568   6.477   5.938
12430TIP3    H237227   3.669   6.512   6.044
12431TIP3   OH237228   5.234   6.861   6.141
12431TIP3    H137229   5.307   6.797   6.126
12431TIP3    H237230   5.255   6.931   6.076
12432TIP3   OH237231   5.420   6.664   6.146
12432TIP3    H137232   5.345   6.617   6.187
12432TIP3    H237233   5.492   6.601   6.165
12433TIP3   OH237234   4.885   5.897   4.717
12433TIP3    H137235   4.960   5.865   4.772
12433TIP3    H237236   4.813   5.836   4.741
12434TIP3   OH237237   4.943   6.152   5.170
12434TIP3    H137238   4.985   6.065   5.187
12434TIP3    H237239   5.001   6.186   5.100
12435TIP3   OH237240   5.104   6.328   5.670
12435TIP3    H137241   5.190   6.353   5.628
12435TIP3    H237242   5.119   6.365   5.759
12436TIP3   OH237243   5.176   6.474   5.901
12436TIP3    H137244   5.098   6.508   5.950
12436TIP3    H237245   5.208   6.555   5.856
12437TIP3   OH237246   3.791   6.198   6.707
12437TIP3    H137247   3.888   6.191   6.708
12437TIP3    H237248   3.767   6.111   6.743
12438TIP3   OH237249   5.628   6.068   6.457
12438TIP3    H137250   5.686   6.003   6.412
12438TIP3    H237251   5.595   6.120   6.381
12439TIP3   OH237252   5.052   5.905   5.216
12439TIP3    H137253   5.100   5.887   5.299
12439TIP3    H237254   4.992   5.827   5.212
12440TIP3   OH237255   3.753   5.890   6.031
12440TIP3    H137256   3.815   5.815   6.041
12440TIP3    H237257   3.815   5.964   6.024
12441TIP3   OH237258   3.553   6.163   6.106
12441TIP3    H137259   3.602   6.158   6.021
12441TIP3    H237260   3.581   6.250   6.138
12442TIP3   OH237261   5.492   6.200   6.263
12442TIP3    H137262   5.406   6.244   6.278
12442TIP3    H237263   5.463   6.128   6.204
12443TIP3   OH237264   5.128   5.838   4.845
12443TIP3    H137265   5.171   5.767   4.792
12443TIP3    H237266   5.196   5.909   4.844
12444TIP3   OH237267   3.538   5.668   5.607
12444TIP3    H137268   3.446   5.661   5.636
12444TIP3    H237269   3.531   5.726   5.528
12445TIP3   OH237270   4.694   7.373   5.110
12445TIP3    H137271   4.752   7.365   5.031
12445TIP3    H237272   4.746   7.429   5.169
12446TIP3   OH237273   3.759   5.748   6.422
12446TIP3    H137274   3.706   5.741   6.503
12446TIP3    H237275   3.693   5.786   6.360
12447TIP3   OH237276   3.797   7.177   6.495
12447TIP3    H137277   3.704   7.152   6.480
12447TIP3    H237278   3.808   7.159   6.589
12448TIP3   OH237279   3.979   7.211   6.045
12448TIP3    H137280   3.932   7.288   6.006
12448TIP3    H237281   4.065   7.224   6.000
12449TIP3   OH237282   4.415   7.452   6.183
12449TIP3    H137283   4.460   7.452   6.271
12449TIP3    H237284   4.480   7.504   6.130
12450TIP3   OH237285   4.588   7.609   6.038
12450TIP3    H137286   4.650   7.560   5.982
12450TIP3    H237287   4.649   7.659   6.096
12451TIP3   OH237288   5.391   5.966   6.144
12451TIP3    H137289   5.303   5.957   6.104
12451TIP3    H237290   5.427   5.875   6.131
12452TIP3   OH237291   3.651   7.465   6.070
12452TIP3    H137292   3.561   7.496   6.048
12452TIP3    H237293   3.665   7.511   6.154
12453TIP3   OH237294   3.889   7.445   5.929
12453TIP3    H137295   3.801   7.456   5.972
12453TIP3    H237296   3.870   7.475   5.838
12454TIP3   OH237297   4.310   7.472   5.727
12454TIP3    H137298   4.241   7.491   5.661
12454TIP3    H237299   4.322   7.560   5.769
12455TIP3   OH237300   4.577   7.404   5.781
12455TIP3    H137301   4.486   7.428   5.756
12455TIP3    H237302   4.631   7.457   5.721
12456TIP3   OH237303   3.561   7.257   5.812
12456TIP3    H137304   3.589   7.229   5.902
12456TIP3    H237305   3.634   7.216   5.760
12457TIP3   OH237306   3.757   7.132   5.671
12457TIP3    H137307   3.774   7.048   5.721
12457TIP3    H237308   3.848   7.169   5.665
12458TIP3   OH237309   4.025   7.229   5.677
12458TIP3    H137310   4.056   7.138   5.660
12458TIP3    H237311   4.074   7.246   5.760
12459TIP3   OH237312   4.595   5.878   5.757
12459TIP3    H137313   4.558   5.806   5.811
12459TIP3    H237314   4.672   5.834   5.714
12460TIP3   OH237315   5.119   5.766   5.677
12460TIP3    H137316   5.158   5.807   5.597
12460TIP3    H237317   5.024   5.778   5.661
12461TIP3   OH237318   5.216   5.860   5.436
12461TIP3    H137319   5.286   5.804   5.396
12461TIP3    H237320   5.253   5.949   5.417
12462TIP3   OH237321   3.847   5.588   5.776
12462TIP3    H137322   3.755   5.554   5.779
12462TIP3    H237323   3.896   5.503   5.772
12463TIP3   OH237324   3.636   5.461   5.430
12463TIP3    H137325   3.665   5.516   5.355
12463TIP3    H237326   3.608   5.527   5.496
12464TIP3   OH237327   4.293   5.621   5.657
12464TIP3    H137328   4.351   5.667   5.594
12464TIP3    H237329   4.321   5.659   5.742
12465TIP3   OH237330   4.834   5.768   5.637
12465TIP3    H137331   4.849   5.725   5.552
12465TIP3    H237332   4.822   5.690   5.696
12466TIP3   OH237333   4.869   5.693   5.202
12466TIP3    H137334   4.781   5.732   5.218
12466TIP3    H237335   4.860   5.607   5.249
12467TIP3   OH237336   3.353   7.031   5.202
12467TIP3    H137337   3.266   7.001   5.169
12467TIP3    H237338   3.345   7.126   5.185
12468TIP3   OH237339   3.755   5.620   5.185
12468TIP3    H137340   3.802   5.554   5.130
12468TIP3    H237341   3.830   5.671   5.222
12469TIP3   OH237342   4.263   5.798   5.286
12469TIP3    H137343   4.321   5.748   5.346
12469TIP3    H237344   4.286   5.890   5.313
12470TIP3   OH237345   4.112   7.236   4.758
12470TIP3    H137346   4.206   7.252   4.739
12470TIP3    H237347   4.101   7.146   4.723
12471TIP3   OH237348   4.847   7.339   4.881
12471TIP3    H137349   4.838   7.242   4.869
12471TIP3    H237350   4.799   7.371   4.802
12472TIP3   OH237351   4.054   5.871   6.671
12472TIP3    H137352   4.020   5.798   6.726
12472TIP3    H237353   4.149   5.870   6.697
12473TIP3   OH237354   4.305   5.869   6.788
12473TIP3    H137355   4.389   5.841   6.747
12473TIP3    H237356   4.292   5.797   6.854
12474TIP3   OH237357   3.421   7.054   4.841
12474TIP3    H137358   3.428   7.077   4.935
12474TIP3    H237359   3.508   7.010   4.825
12475TIP3   OH237360   5.132   5.932   6.574
12475TIP3    H137361   5.151   5.901   6.665
12475TIP3    H237362   5.220   5.925   6.532
12476TIP3   OH237363   5.073   7.474   6.074
12476TIP3    H137364   5.026   7.438   5.997
12476TIP3    H237365   5.054   7.570   6.062
12477TIP3   OH237366   6.336   6.853   4.831
12477TIP3    H137367   6.307   6.945   4.810
12477TIP3    H237368   6.259   6.804   4.795
12478TIP3   OH237369   6.341   6.852   5.213
12478TIP3    H137370   6.369   6.832   5.304
12478TIP3    H237371   6.289   6.774   5.189
12479TIP3   OH237372   5.633   6.748   5.580
12479TIP3    H137373   5.664   6.679   5.641
12479TIP3    H237374   5.714   6.798   5.565
12480TIP3   OH237375   6.582   7.157   4.898
12480TIP3    H137376   6.563   7.092   4.967
12480TIP3    H237377   6.611   7.234   4.950
12481TIP3   OH237378   5.610   7.159   5.299
12481TIP3    H137379   5.599   7.062   5.302
12481TIP3    H237380   5.707   7.166   5.294
12482TIP3   OH237381   5.314   6.360   5.084
12482TIP3    H137382   5.266   6.443   5.102
12482TIP3    H237383   5.242   6.307   5.043
12483TIP3   OH237384   5.370   6.644   5.264
12483TIP3    H137385   5.421   6.568   5.299
12483TIP3    H237386   5.431   6.681   5.199
12484TIP3   OH237387   6.232   7.618   4.914
12484TIP3    H137388   6.274   7.547   4.862
12484TIP3    H237389   6.220   7.576   5.000
12485TIP3   OH237390   6.131   7.080   5.263
12485TIP3    H137391   6.172   7.005   5.215
12485TIP3    H237392   6.214   7.126   5.289
12486TIP3   OH237393   7.147   6.398   5.260
12486TIP3    H137394   7.177   6.480   5.303
12486TIP3    H237395   7.175   6.414   5.168
12487TIP3   OH237396   6.537   6.573   5.296
12487TIP3    H137397   6.596   6.497   5.309
12487TIP3    H237398   6.516   6.568   5.201
12488TIP3   OH237399   6.578   6.336   4.881
12488TIP3    H137400   6.652   6.321   4.944
12488TIP3    H237401   6.630   6.366   4.803
12489TIP3   OH237402   5.524   6.441   5.369
12489TIP3    H137403   5.608   6.421   5.413
12489TIP3    H237404   5.534   6.386   5.289
12490TIP3   OH237405   5.951   6.643   5.164
12490TIP3    H137406   6.045   6.618   5.175
12490TIP3    H237407   5.910   6.558   5.136
12491TIP3   OH237408   7.220   6.605   5.432
12491TIP3    H137409   7.136   6.654   5.417
12491TIP3    H237410   7.250   6.644   5.516
12492TIP3   OH237411   5.891   6.243   5.717
12492TIP3    H137412   5.842   6.263   5.636
12492TIP3    H237413   5.829   6.266   5.786
12493TIP3   OH237414   6.224   7.073   4.701
12493TIP3    H137415   6.183   7.060   4.614
12493TIP3    H237416   6.180   7.156   4.728
12494TIP3   OH237417   5.990   7.000   5.488
12494TIP3    H137418   5.928   7.068   5.523
12494TIP3    H237419   6.032   7.048   5.414
12495TIP3   OH237420   6.779   6.342   5.058
12495TIP3    H137421   6.792   6.279   5.130
12495TIP3    H237422   6.838   6.416   5.085
12496TIP3   OH237423   5.767   6.326   5.466
12496TIP3    H137424   5.824   6.400   5.495
12496TIP3    H237425   5.823   6.288   5.396
12497TIP3   OH237426   5.820   7.196   5.586
12497TIP3    H137427   5.794   7.283   5.549
12497TIP3    H237428   5.739   7.178   5.640
12498TIP3   OH237429   5.205   6.885   4.822
12498TIP3    H137430   5.166   6.912   4.737
12498TIP3    H237431   5.236   6.971   4.857
12499TIP3   OH237432   6.648   7.401   5.062
12499TIP3    H137433   6.558   7.394   5.101
12499TIP3    H237434   6.641   7.487   5.016
12500TIP3   OH237435   6.940   6.295   5.423
12500TIP3    H137436   6.855   6.329   5.391
12500TIP3    H237437   7.003   6.330   5.355
12501TIP3   OH237438   6.257   5.930   5.418
12501TIP3    H137439   6.213   5.846   5.437
12501TIP3    H237440   6.185   5.992   5.442
12502TIP3   OH237441   6.347   7.445   4.734
12502TIP3    H137442   6.398   7.363   4.714
12502TIP3    H237443   6.407   7.511   4.693
12503TIP3   OH237444   6.491   7.230   4.646
12503TIP3    H137445   6.455   7.149   4.608
12503TIP3    H237446   6.530   7.197   4.730
12504TIP3   OH237447   6.857   7.310   5.400
12504TIP3    H137448   6.848   7.234   5.339
12504TIP3    H237449   6.843   7.387   5.341
12505TIP3   OH237450   6.166   6.705   4.666
12505TIP3    H137451   6.086   6.758   4.647
12505TIP3    H237452   6.210   6.705   4.579
12506TIP3   OH237453   6.125   6.493   4.377
12506TIP3    H137454   6.192   6.545   4.424
12506TIP3    H237455   6.182   6.430   4.329
12507TIP3   OH237456   7.069   6.951   5.251
12507TIP3    H137457   6.985   7.002   5.256
12507TIP3    H237458   7.095   6.971   5.159
12508TIP3   OH237459   6.513   6.788   4.633
12508TIP3    H137460   6.459   6.815   4.712
12508TIP3    H237461   6.598   6.765   4.677
12509TIP3   OH237462   6.748   6.813   5.547
12509TIP3    H137463   6.749   6.893   5.604
12509TIP3    H237464   6.662   6.825   5.502
12510TIP3   OH237465   5.745   6.785   5.051
12510TIP3    H137466   5.704   6.727   4.983
12510TIP3    H237467   5.819   6.730   5.083
12511TIP3   OH237468   5.877   7.199   5.198
12511TIP3    H137469   5.856   7.162   5.111
12511TIP3    H237470   5.965   7.161   5.216
12512TIP3   OH237471   5.875   6.763   5.408
12512TIP3    H137472   5.909   6.735   5.319
12512TIP3    H237473   5.924   6.846   5.424
12513TIP3   OH237474   6.407   7.395   5.184
12513TIP3    H137475   6.393   7.475   5.237
12513TIP3    H237476   6.392   7.323   5.248
12514TIP3   OH237477   6.019   7.313   5.736
12514TIP3    H137478   5.955   7.376   5.777
12514TIP3    H237479   5.956   7.260   5.681
12515TIP3   OH237480   6.353   6.646   4.462
12515TIP3    H137481   6.412   6.707   4.511
12515TIP3    H237482   6.378   6.668   4.368
12516TIP3   OH237483   5.778   6.863   5.840
12516TIP3    H137484   5.780   6.953   5.879
12516TIP3    H237485   5.681   6.846   5.846
12517TIP3   OH237486   6.100   7.322   4.737
12517TIP3    H137487   6.182   7.375   4.746
12517TIP3    H237488   6.039   7.384   4.696
12518TIP3   OH237489   5.815   7.481   5.821
12518TIP3    H137490   5.780   7.484   5.729
12518TIP3    H237491   5.734   7.457   5.872
12519TIP3   OH237492   6.869   5.885   4.512
12519TIP3    H137493   6.788   5.908   4.560
12519TIP3    H237494   6.884   5.967   4.459
12520TIP3   OH237495   5.616   6.631   4.851
12520TIP3    H137496   5.542   6.671   4.801
12520TIP3    H237497   5.581   6.544   4.872
12521TIP3   OH237498   6.670   7.253   4.060
12521TIP3    H137499   6.678   7.349   4.045
12521TIP3    H237500   6.763   7.224   4.047
12522TIP3   OH237501   5.394   7.013   5.764
12522TIP3    H137502   5.325   6.995   5.697
12522TIP3    H237503   5.430   6.924   5.781
12523TIP3   OH237504   5.242   7.210   5.400
12523TIP3    H137505   5.338   7.218   5.401
12523TIP3    H237506   5.215   7.289   5.449
12524TIP3   OH237507   6.216   7.439   5.589
12524TIP3    H137508   6.216   7.532   5.620
12524TIP3    H237509   6.143   7.401   5.642
12525TIP3   OH237510   5.981   7.570   4.541
12525TIP3    H137511   5.933   7.552   4.458
12525TIP3    H237512   5.947   7.657   4.567
12526TIP3   OH237513   5.417   7.420   4.925
12526TIP3    H137514   5.465   7.411   5.011
12526TIP3    H237515   5.362   7.340   4.927
12527TIP3   OH237516   6.180   7.473   4.177
12527TIP3    H137517   6.238   7.402   4.142
12527TIP3    H237518   6.215   7.484   4.269
12528TIP3   OH237519   6.232   7.522   4.446
12528TIP3    H137520   6.144   7.531   4.489
12528TIP3    H237521   6.285   7.485   4.519
12529TIP3   OH237522   7.018   6.791   5.715
12529TIP3    H137523   6.934   6.806   5.670
12529TIP3    H237524   7.029   6.694   5.708
12530TIP3   OH237525   5.600   7.194   5.747
12530TIP3    H137526   5.646   7.179   5.832
12530TIP3    H237527   5.523   7.133   5.755
12531TIP3   OH237528   6.000   5.995   5.531
12531TIP3    H137529   5.905   5.988   5.535
12531TIP3    H237530   6.014   6.089   5.509
12532TIP3   OH237531   6.747   6.549   5.638
12532TIP3    H137532   6.713   6.555   5.730
12532TIP3    H237533   6.741   6.641   5.607
12533TIP3   OH237534   6.430   6.687   4.206
12533TIP3    H137535   6.395   6.666   4.117
12533TIP3    H237536   6.513   6.733   4.182
12534TIP3   OH237537   6.143   6.065   4.510
12534TIP3    H137538   6.107   6.062   4.600
12534TIP3    H237539   6.102   5.984   4.473
12535TIP3   OH237540   5.917   6.533   5.550
12535TIP3    H137541   5.870   6.551   5.634
12535TIP3    H237542   5.906   6.618   5.502
12536TIP3   OH237543   5.817   6.426   5.067
12536TIP3    H137544   5.735   6.388   5.104
12536TIP3    H237545   5.820   6.378   4.981
12537TIP3   OH237546   6.302   6.506   4.799
12537TIP3    H137547   6.253   6.579   4.755
12537TIP3    H237548   6.359   6.475   4.725
12538TIP3   OH237549   6.480   6.789   5.894
12538TIP3    H137550   6.456   6.713   5.952
12538TIP3    H237551   6.576   6.793   5.909
12539TIP3   OH237552   6.447   6.519   5.040
12539TIP3    H137553   6.401   6.565   4.967
12539TIP3    H237554   6.498   6.455   4.985
12540TIP3   OH237555   5.747   6.566   5.765
12540TIP3    H137556   5.761   6.631   5.836
12540TIP3    H237557   5.737   6.482   5.816
12541TIP3   OH237558   5.801   6.044   4.473
12541TIP3    H137559   5.789   6.039   4.570
12541TIP3    H237560   5.721   6.094   4.447
12542TIP3   OH237561   5.343   6.082   5.348
12542TIP3    H137562   5.417   6.119   5.400
12542TIP3    H237563   5.386   6.054   5.265
12543TIP3   OH237564   5.304   6.063   4.862
12543TIP3    H137565   5.352   6.101   4.785
12543TIP3    H237566   5.245   6.138   4.884
12544TIP3   OH237567   6.467   6.781   5.453
12544TIP3    H137568   6.498   6.706   5.397
12544TIP3    H237569   6.444   6.731   5.535
12545TIP3   OH237570   5.581   6.299   5.142
12545TIP3    H137571   5.489   6.298   5.110
12545TIP3    H237572   5.614   6.209   5.119
12546TIP3   OH237573   5.842   6.293   4.827
12546TIP3    H137574   5.931   6.308   4.792
12546TIP3    H237575   5.786   6.312   4.748
12547TIP3   OH237576   6.633   6.319   5.338
12547TIP3    H137577   6.593   6.326   5.425
12547TIP3    H237578   6.585   6.242   5.301
12548TIP3   OH237579   5.689   6.330   4.606
12548TIP3    H137580   5.617   6.284   4.559
12548TIP3    H237581   5.740   6.367   4.531
12549TIP3   OH237582   5.759   7.115   5.973
12549TIP3    H137583   5.836   7.152   6.021
12549TIP3    H237584   5.692   7.116   6.044
12550TIP3   OH237585   6.209   6.567   5.210
12550TIP3    H137586   6.296   6.548   5.174
12550TIP3    H237587   6.195   6.508   5.287
12551TIP3   OH237588   5.714   6.062   5.098
12551TIP3    H137589   5.689   5.985   5.153
12551TIP3    H237590   5.796   6.033   5.058
12552TIP3   OH237591   6.199   6.430   5.764
12552TIP3    H137592   6.115   6.429   5.692
12552TIP3    H237593   6.246   6.511   5.713
12553TIP3   OH237594   5.937   6.856   4.614
12553TIP3    H137595   5.863   6.792   4.601
12553TIP3    H237596   5.916   6.891   4.704
12554TIP3   OH237597   6.834   7.090   5.236
12554TIP3    H137598   6.858   7.141   5.155
12554TIP3    H237599   6.748   7.050   5.210
12555TIP3   OH237600   6.394   6.167   4.484
12555TIP3    H137601   6.297   6.148   4.488
12555TIP3    H237602   6.400   6.263   4.503
12556TIP3   OH237603   6.330   7.176   5.610
12556TIP3    H137604   6.359   7.163   5.701
12556TIP3    H237605   6.294   7.267   5.612
12557TIP3   OH237606   6.461   6.420   4.584
12557TIP3    H137607   6.558   6.426   4.594
12557TIP3    H237608   6.441   6.498   4.528
12558TIP3   OH237609   5.628   6.880   5.285
12558TIP3    H137610   5.667   6.853   5.200
12558TIP3    H237611   5.673   6.821   5.347
12559TIP3   OH237612   6.081   7.007   4.437
12559TIP3    H137613   6.033   7.093   4.440
12559TIP3    H237614   6.027   6.952   4.497
12560TIP3   OH237615   5.512   6.795   5.900
12560TIP3    H137616   5.523   6.780   5.996
12560TIP3    H237617   5.439   6.734   5.879
12561TIP3   OH237618   6.233   6.918   5.924
12561TIP3    H137619   6.169   6.858   5.880
12561TIP3    H237620   6.318   6.881   5.892
12562TIP3   OH237621   6.488   7.431   5.499
12562TIP3    H137622   6.392   7.432   5.512
12562TIP3    H237623   6.517   7.480   5.579
12563TIP3   OH237624   6.902   6.512   4.416
12563TIP3    H137625   6.841   6.467   4.352
12563TIP3    H237626   6.899   6.601   4.374
12564TIP3   OH237627   7.112   7.321   5.489
12564TIP3    H137628   7.018   7.337   5.464
12564TIP3    H237629   7.152   7.308   5.401
12565TIP3   OH237630   6.606   7.329   4.324
12565TIP3    H137631   6.579   7.258   4.385
12565TIP3    H237632   6.619   7.282   4.240
12566TIP3   OH237633   6.600   6.958   5.157
12566TIP3    H137634   6.507   6.933   5.171
12566TIP3    H237635   6.634   6.877   5.112
12567TIP3   OH237636   5.731   7.185   4.914
12567TIP3    H137637   5.728   7.267   4.860
12567TIP3    H237638   5.638   7.170   4.930
12568TIP3   OH237639   5.295   6.488   4.620
12568TIP3    H137640   5.339   6.573   4.642
12568TIP3    H237641   5.217   6.493   4.681
12569TIP3   OH237642   5.864   6.949   4.857
12569TIP3    H137643   5.829   7.038   4.875
12569TIP3    H237644   5.826   6.898   4.931
12570TIP3   OH237645   6.001   7.529   5.380
12570TIP3    H137646   6.041   7.602   5.329
12570TIP3    H237647   6.079   7.493   5.426
12571TIP3   OH237648   5.648   7.424   4.766
12571TIP3    H137649   5.562   7.432   4.812
12571TIP3    H237650   5.680   7.517   4.769
12572TIP3   OH237651   6.383   7.161   5.342
12572TIP3    H137652   6.374   7.160   5.440
12572TIP3    H237653   6.466   7.111   5.330
12573TIP3   OH237654   6.364   7.058   4.226
12573TIP3    H137655   6.417   7.033   4.304
12573TIP3    H237656   6.276   7.029   4.254
12574TIP3   OH237657   6.617   7.703   5.400
12574TIP3    H137658   6.542   7.643   5.380
12574TIP3    H237659   6.613   7.764   5.323
12575TIP3   OH237660   6.700   7.529   4.043
12575TIP3    H137661   6.741   7.604   3.996
12575TIP3    H237662   6.620   7.574   4.077
12576TIP3   OH237663   5.709   6.316   5.914
12576TIP3    H137664   5.611   6.314   5.922
12576TIP3    H237665   5.735   6.247   5.977
12577TIP3   OH237666   6.524   6.989   4.440
12577TIP3    H137667   6.515   6.922   4.511
12577TIP3    H237668   6.621   6.987   4.427
12578TIP3   OH237669   5.444   7.388   5.534
12578TIP3    H137670   5.498   7.321   5.578
12578TIP3    H237671   5.440   7.457   5.601
12579TIP3   OH237672   5.727   7.035   4.225
12579TIP3    H137673   5.739   6.942   4.199
12579TIP3    H237674   5.706   7.026   4.320
12580TIP3   OH237675   5.670   7.041   4.496
12580TIP3    H137676   5.743   7.015   4.554
12580TIP3    H237677   5.673   7.139   4.505
12581TIP3   OH237678   5.403   6.732   4.702
12581TIP3    H137679   5.336   6.777   4.758
12581TIP3    H237680   5.417   6.801   4.634
12582TIP3   OH237681   6.555   6.340   5.596
12582TIP3    H137682   6.604   6.421   5.617
12582TIP3    H237683   6.598   6.275   5.653
12583TIP3   OH237684   6.439   6.118   4.761
12583TIP3    H137685   6.425   6.137   4.666
12583TIP3    H237686   6.481   6.201   4.792
12584TIP3   OH237687   5.939   7.237   4.445
12584TIP3    H137688   5.852   7.262   4.481
12584TIP3    H237689   5.955   7.313   4.386
12585TIP3   OH237690   6.140   6.297   4.867
12585TIP3    H137691   6.194   6.371   4.833
12585TIP3    H237692   6.104   6.333   4.949
12586TIP3   OH237693   6.426   6.630   5.674
12586TIP3    H137694   6.433   6.696   5.748
12586TIP3    H237695   6.469   6.553   5.714
12587TIP3   OH237696   6.276   6.024   4.963
12587TIP3    H137697   6.286   6.101   5.020
12587TIP3    H237698   6.333   6.052   4.887
12588TIP3   OH237699   5.684   7.313   4.515
12588TIP3    H137700   5.655   7.384   4.453
12588TIP3    H237701   5.668   7.356   4.602
12589TIP3   OH237702   5.783   6.025   4.746
12589TIP3    H137703   5.774   6.110   4.793
12589TIP3    H237704   5.879   6.009   4.757
12590TIP3   OH237705   7.023   6.522   5.648
12590TIP3    H137706   6.926   6.511   5.646
12590TIP3    H237707   7.048   6.484   5.562
12591TIP3   OH237708   6.687   6.712   5.037
12591TIP3    H137709   6.613   6.651   5.048
12591TIP3    H237710   6.760   6.667   5.085
12592TIP3   OH237711   5.401   6.938   4.505
12592TIP3    H137712   5.470   7.006   4.514
12592TIP3    H237713   5.444   6.881   4.438
12593TIP3   OH237714   5.344   6.218   4.639
12593TIP3    H137715   5.344   6.315   4.638
12593TIP3    H237716   5.263   6.197   4.592
12594TIP3   OH237717   6.657   7.670   4.982
12594TIP3    H137718   6.614   7.717   4.907
12594TIP3    H237719   6.751   7.689   4.961
12595TIP3   OH237720   5.723   5.941   5.516
12595TIP3    H137721   5.698   5.907   5.428
12595TIP3    H237722   5.715   5.861   5.572
12596TIP3   OH237723   5.265   7.152   4.889
12596TIP3    H137724   5.206   7.185   4.957
12596TIP3    H237725   5.231   7.199   4.809
12597TIP3   OH237726   5.432   7.705   5.955
12597TIP3    H137727   5.515   7.690   6.005
12597TIP3    H237728   5.396   7.614   5.949
12598TIP3   OH237729   5.917   7.646   6.019
12598TIP3    H137730   6.010   7.639   5.994
12598TIP3    H237731   5.876   7.595   5.945
12599TIP3   OH237732   5.889   7.238   4.134
12599TIP3    H137733   5.834   7.166   4.174
12599TIP3    H237734   5.965   7.187   4.101
12600TIP3   OH237735   6.532   7.549   5.742
12600TIP3    H137736   6.531   7.484   5.816
12600TIP3    H237737   6.612   7.601   5.762
12601TIP3   OH237738   6.325   7.277   4.049
12601TIP3    H137739   6.366   7.212   4.110
12601TIP3    H237740   6.383   7.274   3.971
12602TIP3   OH237741   5.559   7.105   6.164
12602TIP3    H137742   5.574   7.009   6.167
12602TIP3    H237743   5.471   7.110   6.119
12603TIP3   OH237744   5.537   6.753   4.360
12603TIP3    H137745   5.594   6.723   4.434
12603TIP3    H237746   5.603   6.758   4.288
12604TIP3   OH237747   6.167   7.191   5.933
12604TIP3    H137748   6.120   7.208   5.849
12604TIP3    H237749   6.196   7.097   5.922
12605TIP3   OH237750   6.052   6.955   4.167
12605TIP3    H137751   6.052   6.968   4.264
12605TIP3    H237752   6.051   6.857   4.161
12606TIP3   OH237753   6.648   7.205   5.544
12606TIP3    H137754   6.725   7.247   5.499
12606TIP3    H237755   6.580   7.274   5.527
12607TIP3   OH237756   5.676   6.845   6.152
12607TIP3    H137757   5.750   6.792   6.122
12607TIP3    H237758   5.707   6.876   6.240
12608TIP3   OH237759   5.741   6.662   4.577
12608TIP3    H137760   5.713   6.625   4.662
12608TIP3    H237761   5.777   6.585   4.530
12609TIP3   OH237762   6.026   6.739   5.818
12609TIP3    H137763   5.939   6.784   5.816
12609TIP3    H237764   6.065   6.763   5.731
12610TIP3   OH237765   5.846   6.456   4.419
12610TIP3    H137766   5.820   6.463   4.325
12610TIP3    H237767   5.944   6.461   4.410
12611TIP3   OH237768   6.531   7.126   5.950
12611TIP3    H137769   6.605   7.101   5.893
12611TIP3    H237770   6.530   7.052   6.014
12612TIP3   OH237771   6.663   6.783   4.088
12612TIP3    H137772   6.644   6.739   4.002
12612TIP3    H237773   6.632   6.874   4.066
12613TIP3   OH237774   6.104   6.527   5.975
12613TIP3    H137775   6.110   6.448   5.915
12613TIP3    H237776   6.090   6.595   5.902
12614TIP3   OH237777   6.169   6.835   5.611
12614TIP3    H137778   6.252   6.853   5.564
12614TIP3    H237779   6.108   6.899   5.569
12615TIP3   OH237780   6.756   6.794   6.001
12615TIP3    H137781   6.800   6.709   5.981
12615TIP3    H237782   6.825   6.857   5.975
12616TIP3   OH237783   6.774   7.034   5.707
12616TIP3    H137784   6.719   7.096   5.653
12616TIP3    H237785   6.864   7.056   5.672
12617TIP3   OH237786   6.006   6.631   6.188
12617TIP3    H137787   5.943   6.556   6.194
12617TIP3    H237788   6.041   6.613   6.097
12618TIP3   OH237789   6.392   6.564   6.023
12618TIP3    H137790   6.374   6.549   6.118
12618TIP3    H237791   6.306   6.535   5.987
12619TIP3   OH237792   6.636   6.525   5.885
12619TIP3    H137793   6.559   6.521   5.945
12619TIP3    H237794   6.708   6.492   5.943
12620TIP3   OH237795   6.853   6.462   6.045
12620TIP3    H137796   6.874   6.366   6.050
12620TIP3    H237797   6.860   6.490   6.138
12621TIP3   OH237798   5.854   6.402   6.222
12621TIP3    H137799   5.854   6.312   6.185
12621TIP3    H237800   5.890   6.386   6.311
12622TIP3   OH237801   6.365   6.073   6.050
12622TIP3    H137802   6.443   6.014   6.042
12622TIP3    H237803   6.304   6.031   5.988
12623TIP3   OH237804   6.426   6.282   6.223
12623TIP3    H137805   6.406   6.218   6.152
12623TIP3    H237806   6.350   6.343   6.218
12624TIP3   OH237807   5.654   7.516   4.327
12624TIP3    H137808   5.749   7.509   4.307
12624TIP3    H237809   5.625   7.568   4.249
12625TIP3   OH237810   5.132   6.898   4.540
12625TIP3    H137811   5.227   6.919   4.527
12625TIP3    H237812   5.126   6.809   4.499
12626TIP3   OH237813   5.046   7.512   4.963
12626TIP3    H137814   4.981   7.449   4.922
12626TIP3    H237815   5.091   7.452   5.026
12627TIP3   OH237816   5.183   7.357   5.144
12627TIP3    H137817   5.169   7.289   5.212
12627TIP3    H237818   5.236   7.422   5.196
12628TIP3   OH237819   6.913   7.753   4.939
12628TIP3    H137820   6.933   7.787   5.029
12628TIP3    H237821   6.970   7.809   4.884
12629TIP3   OH237822   6.943   7.772   5.218
12629TIP3    H137823   6.902   7.683   5.223
12629TIP3    H237824   6.974   7.786   5.308
12630TIP3   OH237825   6.803   6.970   4.417
12630TIP3    H137826   6.868   7.036   4.386
12630TIP3    H237827   6.849   6.933   4.495
12631TIP3   OH237828   6.930   6.837   4.621
12631TIP3    H137829   6.863   6.797   4.681
12631TIP3    H237830   6.996   6.874   4.684
12632TIP3   OH237831   6.979   7.228   5.046
12632TIP3    H137832   7.033   7.164   4.995
12632TIP3    H237833   6.980   7.306   4.988
12633TIP3   OH237834   6.808   7.536   5.251
12633TIP3    H137835   6.737   7.574   5.305
12633TIP3    H237836   6.759   7.492   5.178
12634TIP3   OH237837   6.866   6.746   4.268
12634TIP3    H137838   6.794   6.748   4.200
12634TIP3    H237839   6.840   6.823   4.322
12635TIP3   OH237840   6.737   6.418   4.222
12635TIP3    H137841   6.694   6.456   4.144
12635TIP3    H237842   6.714   6.323   4.211
12636TIP3   OH237843   6.740   6.697   4.766
12636TIP3    H137844   6.751   6.600   4.759
12636TIP3    H237845   6.729   6.710   4.863
12637TIP3   OH237846   5.368   6.763   5.516
12637TIP3    H137847   5.365   6.731   5.424
12637TIP3    H237848   5.465   6.767   5.532
12638TIP3   OH237849   7.017   7.098   5.613
12638TIP3    H137850   7.103   7.057   5.634
12638TIP3    H237851   7.046   7.180   5.568
12639TIP3   OH237852   7.240   6.938   5.665
12639TIP3    H137853   7.158   6.891   5.693
12639TIP3    H237854   7.301   6.861   5.664
12640TIP3   OH237855   6.681   6.152   4.204
12640TIP3    H137856   6.754   6.120   4.261
12640TIP3    H237857   6.607   6.093   4.226
12641TIP3   OH237858   6.740   6.413   4.660
12641TIP3    H137859   6.782   6.325   4.673
12641TIP3    H237860   6.796   6.447   4.588
12642TIP3   OH237861   6.899   6.582   5.158
12642TIP3    H137862   6.984   6.607   5.115
12642TIP3    H237863   6.916   6.621   5.246
12643TIP3   OH237864   6.971   6.730   5.386
12643TIP3    H137865   6.894   6.763   5.436
12643TIP3    H237866   7.003   6.812   5.342
12644TIP3   OH237867   5.586   6.455   6.195
12644TIP3    H137868   5.684   6.448   6.191
12644TIP3    H237869   5.564   6.366   6.231
12645TIP3   OH237870   7.434   6.315   5.938
12645TIP3    H137871   7.481   6.245   5.887
12645TIP3    H237872   7.395   6.368   5.864
12646TIP3   OH237873   6.847   6.163   4.700
12646TIP3    H137874   6.897   6.144   4.782
12646TIP3    H237875   6.787   6.085   4.697
12647TIP3   OH237876   5.547   6.154   5.524
12647TIP3    H137877   5.605   6.075   5.533
12647TIP3    H237878   5.615   6.223   5.510
12648TIP3   OH237879   5.348   6.422   5.590
12648TIP3    H137880   5.402   6.412   5.509
12648TIP3    H237881   5.377   6.509   5.621
12649TIP3   OH237882   7.288   6.451   5.755
12649TIP3    H137883   7.209   6.494   5.796
12649TIP3    H237884   7.245   6.386   5.695
12650TIP3   OH237885   6.926   6.093   4.335
12650TIP3    H137886   6.966   6.024   4.278
12650TIP3    H237887   6.992   6.165   4.330
12651TIP3   OH237888   5.335   5.921   5.091
12651TIP3    H137889   5.242   5.918   5.122
12651TIP3    H237890   5.329   5.982   5.014
12652TIP3   OH237891   6.491   7.627   4.598
12652TIP3    H137892   6.546   7.618   4.517
12652TIP3    H237893   6.541   7.693   4.649
12653TIP3   OH237894   5.554   6.009   5.911
12653TIP3    H137895   5.499   6.002   5.991
12653TIP3    H237896   5.489   6.044   5.847
12654TIP3   OH237897   5.602   7.429   5.989
12654TIP3    H137898   5.507   7.414   5.969
12654TIP3    H237899   5.602   7.414   6.085
12655TIP3   OH237900   5.779   7.467   5.535
12655TIP3    H137901   5.723   7.538   5.497
12655TIP3    H237902   5.861   7.486   5.486
12656TIP3   OH237903   6.220   7.708   5.668
12656TIP3    H137904   6.255   7.711   5.760
12656TIP3    H237905   6.290   7.758   5.621
12657TIP3   OH237906   6.416   7.856   5.541
12657TIP3    H137907   6.478   7.799   5.492
12657TIP3    H237908   6.458   7.943   5.534
12658TIP3   OH237909   7.188   6.220   5.627
12658TIP3    H137910   7.098   6.208   5.592
12658TIP3    H237911   7.224   6.129   5.617
12659TIP3   OH237912   5.445   7.727   5.554
12659TIP3    H137913   5.354   7.758   5.535
12659TIP3    H237914   5.452   7.756   5.646
12660TIP3   OH237915   5.683   7.701   5.416
12660TIP3    H137916   5.596   7.714   5.461
12660TIP3    H237917   5.663   7.733   5.326
12661TIP3   OH237918   6.109   7.727   5.211
12661TIP3    H137919   6.039   7.745   5.146
12661TIP3    H237920   6.120   7.815   5.252
12662TIP3   OH237921   6.376   7.664   5.264
12662TIP3    H137922   6.283   7.685   5.242
12662TIP3    H237923   6.423   7.735   5.217
12663TIP3   OH237924   6.576   7.852   5.174
12663TIP3    H137925   6.562   7.937   5.126
12663TIP3    H237926   6.608   7.794   5.102
12664TIP3   OH237927   5.362   7.515   5.295
12664TIP3    H137928   5.386   7.489   5.386
12664TIP3    H237929   5.435   7.472   5.246
12665TIP3   OH237930   5.557   7.386   5.156
12665TIP3    H137931   5.571   7.302   5.208
12665TIP3    H237932   5.649   7.422   5.156
12666TIP3   OH237933   5.823   7.480   5.163
12666TIP3    H137934   5.853   7.387   5.154
12666TIP3    H237935   5.869   7.503   5.246
12667TIP3   OH237936   6.414   6.154   5.240
12667TIP3    H137937   6.350   6.116   5.305
12667TIP3    H237938   6.473   6.079   5.226
12668TIP3   OH237939   6.921   6.022   5.155
12668TIP3    H137940   6.958   6.069   5.077
12668TIP3    H237941   6.825   6.032   5.142
12669TIP3   OH237942   7.012   6.115   4.916
12669TIP3    H137943   7.085   6.062   4.878
12669TIP3    H237944   7.048   6.206   4.901
12670TIP3   OH237945   5.644   5.845   5.265
12670TIP3    H137946   5.551   5.812   5.267
12670TIP3    H237947   5.693   5.760   5.260
12671TIP3   OH237948   5.427   5.717   4.910
12671TIP3    H137949   5.459   5.775   4.839
12671TIP3    H237950   5.402   5.782   4.979
12672TIP3   OH237951   6.084   5.880   5.141
12672TIP3    H137952   6.153   5.924   5.091
12672TIP3    H237953   6.077   5.934   5.221
12673TIP3   OH237954   6.643   6.021   5.121
12673TIP3    H137955   6.638   5.980   5.034
12673TIP3    H237956   6.632   5.943   5.180
12674TIP3   OH237957   6.665   5.951   4.692
12674TIP3    H137958   6.579   5.993   4.707
12674TIP3    H237959   6.651   5.864   4.735
12675TIP3   OH237960   5.147   7.291   4.689
12675TIP3    H137961   5.061   7.259   4.657
12675TIP3    H237962   5.139   7.385   4.663
12676TIP3   OH237963   5.550   5.876   4.672
12676TIP3    H137964   5.598   5.812   4.617
12676TIP3    H237965   5.623   5.929   4.709
12677TIP3   OH237966   6.062   6.052   4.774
12677TIP3    H137967   6.116   6.001   4.836
12677TIP3    H237968   6.086   6.143   4.801
12678TIP3   OH237969   5.921   7.471   4.274
12678TIP3    H137970   6.008   7.495   4.237
12678TIP3    H237971   5.898   7.396   4.214
12679TIP3   OH237972   6.641   7.595   4.367
12679TIP3    H137973   6.632   7.498   4.356
12679TIP3    H237974   6.595   7.627   4.287
12680TIP3   OH237975   5.847   6.129   6.165
12680TIP3    H137976   5.816   6.053   6.217
12680TIP3    H237977   5.943   6.128   6.186
12681TIP3   OH237978   6.101   6.125   6.280
12681TIP3    H137979   6.186   6.098   6.242
12681TIP3    H237980   6.084   6.052   6.343
12682TIP3   OH237981   5.224   7.309   4.328
12682TIP3    H137982   5.227   7.332   4.422
12682TIP3    H237983   5.311   7.267   4.314
12683TIP3   OH237984   6.930   6.197   6.060
12683TIP3    H137985   6.947   6.160   6.150
12683TIP3    H237986   7.018   6.189   6.019
12684TIP3   OH237987   8.121   7.102   4.330
12684TIP3    H137988   8.087   7.192   4.309
12684TIP3    H237989   8.051   7.050   4.286
12685TIP3   OH237990   8.090   7.114   4.717
12685TIP3    H137991   8.158   7.065   4.764
12685TIP3    H237992   8.072   7.055   4.642
12686TIP3   OH237993   7.435   6.994   5.055
12686TIP3    H137994   7.459   6.927   5.122
12686TIP3    H237995   7.521   7.006   5.009
12687TIP3   OH237996   7.404   7.415   4.786
12687TIP3    H137997   7.394   7.318   4.786
12687TIP3    H237998   7.500   7.424   4.776
12688TIP3   OH237999   7.107   6.615   4.573
12688TIP3    H138000   7.060   6.699   4.589
12688TIP3    H238001   7.037   6.565   4.527
12689TIP3   OH238002   7.165   6.904   4.750
12689TIP3    H138003   7.217   6.827   4.784
12689TIP3    H238004   7.225   6.939   4.682
12690TIP3   OH238005   7.911   7.320   4.734
12690TIP3    H138006   7.978   7.249   4.717
12690TIP3    H238007   7.966   7.390   4.774
12691TIP3   OH238008   8.359   6.831   4.754
12691TIP3    H138009   8.382   6.738   4.772
12691TIP3    H238010   8.310   6.820   4.670
12692TIP3   OH238011   7.682   6.497   4.746
12692TIP3    H138012   7.663   6.570   4.682
12692TIP3    H238013   7.634   6.424   4.702
12693TIP3   OH238014   8.377   6.590   4.371
12693TIP3    H138015   8.450   6.567   4.434
12693TIP3    H238016   8.428   6.626   4.296
12694TIP3   OH238017   7.313   6.698   4.854
12694TIP3    H138018   7.397   6.678   4.901
12694TIP3    H238019   7.327   6.644   4.773
12695TIP3   OH238020   7.751   6.893   4.653
12695TIP3    H138021   7.846   6.870   4.662
12695TIP3    H238022   7.715   6.810   4.615
12696TIP3   OH238023   7.672   6.479   5.181
12696TIP3    H138024   7.613   6.516   5.112
12696TIP3    H238025   7.621   6.500   5.262
12697TIP3   OH238026   7.978   7.303   4.201
12697TIP3    H138027   7.962   7.308   4.106
12697TIP3    H238028   7.968   7.397   4.225
12698TIP3   OH238029   7.771   7.245   4.957
12698TIP3    H138030   7.707   7.317   4.956
12698TIP3    H238031   7.832   7.274   4.885
12699TIP3   OH238032   8.581   6.566   4.554
12699TIP3    H138033   8.537   6.540   4.637
12699TIP3    H238034   8.632   6.643   4.582
12700TIP3   OH238035   7.548   6.596   4.963
12700TIP3    H138036   7.612   6.666   4.988
12700TIP3    H238037   7.597   6.555   4.888
12701TIP3   OH238038   7.002   7.142   4.309
12701TIP3    H138039   6.963   7.169   4.224
12701TIP3    H238040   7.034   7.228   4.344
12702TIP3   OH238041   8.021   6.196   4.888
12702TIP3    H138042   8.010   6.102   4.910
12702TIP3    H238043   7.946   6.235   4.938
12703TIP3   OH238044   8.221   7.464   4.163
12703TIP3    H138045   8.212   7.400   4.092
12703TIP3    H238046   8.317   7.461   4.177
12704TIP3   OH238047   7.961   6.961   4.152
12704TIP3    H138048   7.883   7.018   4.132
12704TIP3    H238049   8.006   6.958   4.066
12705TIP3   OH238050   7.921   6.747   3.861
12705TIP3    H138051   7.987   6.800   3.909
12705TIP3    H238052   7.980   6.685   3.814
12706TIP3   OH238053   8.298   7.028   4.133
12706TIP3    H138054   8.249   7.053   4.215
12706TIP3    H238055   8.386   7.005   4.171
12707TIP3   OH238056   7.541   7.040   4.542
12707TIP3    H138057   7.501   6.983   4.472
12707TIP3    H238058   7.618   6.987   4.569
12708TIP3   OH238059   7.671   7.449   4.687
12708TIP3    H138060   7.644   7.424   4.596
12708TIP3    H238061   7.757   7.401   4.695
12709TIP3   OH238062   7.666   7.002   4.894
12709TIP3    H138063   7.700   6.974   4.806
12709TIP3    H238064   7.715   7.086   4.909
12710TIP3   OH238065   8.141   6.902   3.947
12710TIP3    H138066   8.203   6.954   4.003
12710TIP3    H238067   8.172   6.926   3.856
12711TIP3   OH238068   7.502   7.153   5.279
12711TIP3    H138069   7.463   7.130   5.193
12711TIP3    H238070   7.434   7.118   5.340
12712TIP3   OH238071   7.893   7.585   4.225
12712TIP3    H138072   7.957   7.652   4.251
12712TIP3    H238073   7.828   7.634   4.174
12713TIP3   OH238074   8.658   6.143   3.996
12713TIP3    H138075   8.579   6.158   4.051
12713TIP3    H238076   8.684   6.233   3.973
12714TIP3   OH238077   7.408   6.885   4.345
12714TIP3    H138078   7.341   6.931   4.289
12714TIP3    H238079   7.370   6.797   4.351
12715TIP3   OH238080   7.186   7.247   5.238
12715TIP3    H138081   7.113   7.231   5.174
12715TIP3    H238082   7.206   7.157   5.270
12716TIP3   OH238083   7.043   7.459   4.889
12716TIP3    H138084   7.139   7.462   4.881
12716TIP3    H238085   7.023   7.544   4.931
12717TIP3   OH238086   7.730   7.852   4.036
12717TIP3    H138087   7.722   7.812   3.948
12717TIP3    H238088   7.810   7.908   4.029
12718TIP3   OH238089   7.210   7.676   4.408
12718TIP3    H138090   7.257   7.667   4.494
12718TIP3    H238091   7.157   7.594   4.409
12719TIP3   OH238092   7.347   7.464   5.195
12719TIP3    H138093   7.438   7.439   5.222
12719TIP3    H238094   7.298   7.381   5.213
12720TIP3   OH238095   7.792   6.274   5.028
12720TIP3    H138096   7.702   6.245   4.999
12720TIP3    H238097   7.767   6.355   5.076
12721TIP3   OH238098   8.306   6.391   5.202
12721TIP3    H138099   8.380   6.377   5.263
12721TIP3    H238100   8.228   6.368   5.256
12722TIP3   OH238101   8.227   6.957   3.696
12722TIP3    H138102   8.187   6.927   3.612
12722TIP3    H238103   8.310   6.996   3.666
12723TIP3   OH238104   7.934   6.323   3.995
12723TIP3    H138105   7.902   6.320   4.087
12723TIP3    H238106   7.897   6.239   3.961
12724TIP3   OH238107   7.731   6.786   5.045
12724TIP3    H138108   7.681   6.807   5.126
12724TIP3    H238109   7.711   6.865   4.989
12725TIP3   OH238110   7.609   6.676   4.556
12725TIP3    H138111   7.516   6.651   4.574
12725TIP3    H238112   7.621   6.636   4.467
12726TIP3   OH238113   8.095   6.759   4.280
12726TIP3    H138114   8.045   6.831   4.236
12726TIP3    H238115   8.153   6.728   4.207
12727TIP3   OH238116   8.237   6.786   4.515
12727TIP3    H138117   8.177   6.807   4.440
12727TIP3    H238118   8.285   6.711   4.473
12728TIP3   OH238119   7.543   6.817   5.246
12728TIP3    H138120   7.597   6.876   5.303
12728TIP3    H238121   7.531   6.739   5.304
12729TIP3   OH238122   7.593   6.296   3.962
12729TIP3    H138123   7.583   6.297   4.059
12729TIP3    H238124   7.517   6.351   3.935
12730TIP3   OH238125   7.137   6.339   4.836
12730TIP3    H138126   7.212   6.373   4.888
12730TIP3    H238127   7.179   6.312   4.752
12731TIP3   OH238128   7.101   6.320   4.352
12731TIP3    H138129   7.147   6.358   4.273
12731TIP3    H238130   7.041   6.395   4.372
12732TIP3   OH238131   7.938   6.494   4.615
12732TIP3    H138132   7.858   6.496   4.672
12732TIP3    H238133   8.010   6.494   4.681
12733TIP3   OH238134   7.370   6.556   4.626
12733TIP3    H138135   7.276   6.562   4.596
12733TIP3    H238136   7.395   6.465   4.601
12734TIP3   OH238137   7.635   6.549   4.316
12734TIP3    H138138   7.730   6.565   4.296
12734TIP3    H238139   7.590   6.573   4.232
12735TIP3   OH238140   8.394   6.564   4.798
12735TIP3    H138141   8.368   6.578   4.892
12735TIP3    H238142   8.324   6.501   4.770
12736TIP3   OH238143   7.485   6.585   4.090
12736TIP3    H138144   7.416   6.540   4.039
12736TIP3    H238145   7.539   6.624   4.018
12737TIP3   OH238146   8.011   6.812   4.709
12737TIP3    H138147   8.089   6.786   4.658
12737TIP3    H238148   8.027   6.773   4.796
12738TIP3   OH238149   7.537   6.315   4.598
12738TIP3    H138150   7.503   6.236   4.645
12738TIP3    H238151   7.584   6.275   4.523
12739TIP3   OH238152   7.995   6.717   4.999
12739TIP3    H138153   7.904   6.749   5.016
12739TIP3    H238154   8.047   6.757   5.070
12740TIP3   OH238155   7.732   7.115   4.095
12740TIP3    H138156   7.659   7.051   4.085
12740TIP3    H238157   7.715   7.150   4.185
12741TIP3   OH238158   8.190   6.419   3.975
12741TIP3    H138159   8.092   6.406   3.976
12741TIP3    H238160   8.200   6.516   3.988
12742TIP3   OH238161   8.256   6.674   4.067
12742TIP3    H138162   8.353   6.681   4.081
12742TIP3    H238163   8.238   6.750   4.008
12743TIP3   OH238164   7.424   7.140   4.770
12743TIP3    H138165   7.463   7.115   4.684
12743TIP3    H238166   7.466   7.076   4.829
12744TIP3   OH238167   7.878   7.263   3.912
12744TIP3    H138168   7.830   7.348   3.923
12744TIP3    H238169   7.828   7.207   3.976
12745TIP3   OH238170   7.284   7.032   5.404
12745TIP3    H138171   7.275   7.006   5.499
12745TIP3    H238172   7.211   6.981   5.364
12746TIP3   OH238173   7.530   7.445   4.411
12746TIP3    H138174   7.529   7.525   4.354
12746TIP3    H238175   7.435   7.424   4.413
12747TIP3   OH238176   7.092   6.745   4.107
12747TIP3    H138177   7.137   6.830   4.128
12747TIP3    H238178   7.014   6.750   4.168
12748TIP3   OH238179   7.651   7.203   4.339
12748TIP3    H138180   7.627   7.295   4.361
12748TIP3    H238181   7.621   7.155   4.418
12749TIP3   OH238182   7.445   7.675   4.253
12749TIP3    H138183   7.359   7.687   4.298
12749TIP3    H238184   7.479   7.767   4.256
12750TIP3   OH238185   8.076   7.309   3.702
12750TIP3    H138186   8.157   7.282   3.746
12750TIP3    H238187   8.009   7.282   3.767
12751TIP3   OH238188   7.514   6.561   5.396
12751TIP3    H138189   7.417   6.565   5.408
12751TIP3    H238190   7.540   6.497   5.465
12752TIP3   OH238191   8.324   7.218   3.937
12752TIP3    H138192   8.286   7.169   4.013
12752TIP3    H238193   8.410   7.174   3.933
12753TIP3   OH238194   7.249   7.648   5.027
12753TIP3    H138195   7.283   7.569   5.077
12753TIP3    H238196   7.247   7.715   5.097
12754TIP3   OH238197   7.513   7.294   3.712
12754TIP3    H138198   7.540   7.204   3.685
12754TIP3    H238199   7.496   7.281   3.808
12755TIP3   OH238200   7.466   7.296   3.986
12755TIP3    H138201   7.543   7.271   4.038
12755TIP3    H238202   7.467   7.394   3.993
12756TIP3   OH238203   7.201   6.989   4.189
12756TIP3    H138204   7.135   7.036   4.244
12756TIP3    H238205   7.216   7.057   4.120
12757TIP3   OH238206   8.342   6.625   5.057
12757TIP3    H138207   8.381   6.673   5.132
12757TIP3    H238208   8.314   6.543   5.104
12758TIP3   OH238209   8.236   6.374   4.249
12758TIP3    H138210   8.221   6.395   4.155
12758TIP3    H238211   8.277   6.457   4.282
12759TIP3   OH238212   7.734   7.490   3.941
12759TIP3    H138213   7.645   7.512   3.975
12759TIP3    H238214   7.746   7.567   3.882
12760TIP3   OH238215   7.917   6.559   4.346
12760TIP3    H138216   7.982   6.630   4.327
12760TIP3    H238217   7.927   6.551   4.444
12761TIP3   OH238218   8.064   6.278   4.446
12761TIP3    H138219   8.057   6.354   4.505
12761TIP3    H238220   8.128   6.313   4.379
12762TIP3   OH238221   7.476   7.567   4.002
12762TIP3    H138222   7.448   7.639   3.941
12762TIP3    H238223   7.465   7.611   4.089
12763TIP3   OH238224   7.578   6.284   4.239
12763TIP3    H138225   7.576   6.375   4.275
12763TIP3    H238226   7.675   6.267   4.245
12764TIP3   OH238227   8.508   6.930   4.517
12764TIP3    H138228   8.413   6.914   4.527
12764TIP3    H238229   8.533   6.954   4.608
12765TIP3   OH238230   7.197   7.195   3.992
12765TIP3    H138231   7.268   7.262   4.001
12765TIP3    H238232   7.240   7.137   3.925
12766TIP3   OH238233   7.137   6.473   4.128
12766TIP3    H138234   7.141   6.571   4.125
12766TIP3    H238235   7.058   6.456   4.075
12767TIP3   OH238236   7.526   6.195   4.997
12767TIP3    H138237   7.497   6.161   4.910
12767TIP3    H238238   7.516   6.116   5.054
12768TIP3   OH238239   7.062   7.409   4.376
12768TIP3    H138240   7.000   7.444   4.442
12768TIP3    H238241   7.030   7.455   4.295
12769TIP3   OH238242   7.684   7.491   3.622
12769TIP3    H138243   7.628   7.420   3.660
12769TIP3    H238244   7.758   7.438   3.587
12770TIP3   OH238245   7.332   7.008   3.848
12770TIP3    H138246   7.391   6.980   3.921
12770TIP3    H238247   7.398   7.014   3.775
12771TIP3   OH238248   7.804   7.196   3.652
12771TIP3    H138249   7.820   7.213   3.746
12771TIP3    H238250   7.828   7.101   3.646
12772TIP3   OH238251   7.535   6.918   4.062
12772TIP3    H138252   7.513   6.877   4.147
12772TIP3    H238253   7.575   6.844   4.013
12773TIP3   OH238254   7.784   6.979   5.293
12773TIP3    H138255   7.753   7.058   5.341
12773TIP3    H238256   7.836   7.020   5.221
12774TIP3   OH238257   7.644   6.713   3.907
12774TIP3    H138258   7.618   6.719   3.812
12774TIP3    H238259   7.742   6.716   3.899
12775TIP3   OH238260   7.886   6.764   5.455
12775TIP3    H138261   7.938   6.704   5.398
12775TIP3    H238262   7.862   6.835   5.392
12776TIP3   OH238263   7.936   6.535   5.219
12776TIP3    H138264   7.963   6.581   5.137
12776TIP3    H238265   7.839   6.526   5.207
12777TIP3   OH238266   8.067   6.320   5.322
12777TIP3    H138267   8.020   6.399   5.288
12777TIP3    H238268   8.001   6.250   5.301
12778TIP3   OH238269   7.637   6.655   5.714
12778TIP3    H138270   7.647   6.579   5.654
12778TIP3    H238271   7.708   6.636   5.777
12779TIP3   OH238272   8.160   6.318   5.583
12779TIP3    H138273   8.234   6.264   5.553
12779TIP3    H238274   8.112   6.328   5.497
12780TIP3   OH238275   7.443   7.775   3.822
12780TIP3    H138276   7.539   7.759   3.808
12780TIP3    H238277   7.422   7.820   3.737
12781TIP3   OH238278   6.928   7.155   4.028
12781TIP3    H138279   7.023   7.176   4.014
12781TIP3    H238280   6.923   7.066   3.986
12782TIP3   OH238281   6.845   7.767   4.444
12782TIP3    H138282   6.778   7.705   4.406
12782TIP3    H238283   6.890   7.708   4.508
12783TIP3   OH238284   6.979   7.612   4.628
12783TIP3    H138285   6.965   7.544   4.695
12783TIP3    H238286   7.030   7.677   4.680
12784TIP3   OH238287   8.495   6.690   3.725
12784TIP3    H138288   8.494   6.714   3.632
12784TIP3    H238289   8.485   6.593   3.720
12785TIP3   OH238290   8.534   6.944   4.245
12785TIP3    H138291   8.544   6.848   4.230
12785TIP3    H238292   8.537   6.949   4.343
12786TIP3   OH238293   7.163   7.018   5.002
12786TIP3    H138294   7.157   6.987   4.909
12786TIP3    H238295   7.260   7.023   5.012
12787TIP3   OH238296   8.466   6.416   3.720
12787TIP3    H138297   8.532   6.351   3.747
12787TIP3    H238298   8.389   6.360   3.699
12788TIP3   OH238299   8.533   6.670   4.152
12788TIP3    H138300   8.569   6.579   4.166
12788TIP3    H238301   8.581   6.695   4.072
12789TIP3   OH238302   7.370   6.697   5.661
12789TIP3    H138303   7.467   6.698   5.676
12789TIP3    H238304   7.346   6.614   5.707
12790TIP3   OH238305   8.623   6.419   4.199
12790TIP3    H138306   8.687   6.393   4.269
12790TIP3    H238307   8.568   6.338   4.194
12791TIP3   OH238308   7.343   6.405   5.010
12791TIP3    H138309   7.406   6.330   5.017
12791TIP3    H238310   7.406   6.479   4.999
12792TIP3   OH238311   7.143   6.677   5.076
12792TIP3    H138312   7.193   6.670   4.993
12792TIP3    H238313   7.175   6.761   5.111
12793TIP3   OH238314   7.130   6.179   4.580
12793TIP3    H138315   7.037   6.175   4.607
12793TIP3    H238316   7.126   6.238   4.502
12794TIP3   OH238317   7.350   6.258   5.393
12794TIP3    H138318   7.301   6.257   5.477
12794TIP3    H238319   7.284   6.297   5.333
12795TIP3   OH238320   7.157   7.766   4.788
12795TIP3    H138321   7.188   7.737   4.876
12795TIP3    H238322   7.227   7.725   4.732
12796TIP3   OH238323   7.341   7.636   4.641
12796TIP3    H138324   7.358   7.553   4.692
12796TIP3    H238325   7.433   7.671   4.632
12797TIP3   OH238326   7.600   7.715   4.643
12797TIP3    H138327   7.642   7.627   4.648
12797TIP3    H238328   7.643   7.763   4.714
12798TIP3   OH238329   8.185   6.383   4.731
12798TIP3    H138330   8.141   6.311   4.780
12798TIP3    H238331   8.260   6.336   4.688
12799TIP3   OH238332   8.719   6.281   4.633
12799TIP3    H138333   8.745   6.334   4.555
12799TIP3    H238334   8.625   6.304   4.643
12800TIP3   OH238335   8.823   6.372   4.389
12800TIP3    H138336   8.894   6.314   4.357
12800TIP3    H238337   8.864   6.460   4.385
12801TIP3   OH238338   7.440   6.101   4.750
12801TIP3    H138339   7.347   6.068   4.752
12801TIP3    H238340   7.489   6.016   4.746
12802TIP3   OH238341   7.230   5.973   4.401
12802TIP3    H138342   7.260   6.029   4.326
12802TIP3    H238343   7.202   6.040   4.466
12803TIP3   OH238344   7.887   6.133   4.633
12803TIP3    H138345   7.940   6.181   4.568
12803TIP3    H238346   7.918   6.171   4.716
12804TIP3   OH238347   8.422   6.278   4.616
12804TIP3    H138348   8.433   6.239   4.528
12804TIP3    H238349   8.417   6.197   4.673
12805TIP3   OH238350   8.456   6.202   4.178
12805TIP3    H138351   8.371   6.248   4.194
12805TIP3    H238352   8.440   6.117   4.223
12806TIP3   OH238353   6.943   7.547   4.176
12806TIP3    H138354   6.857   7.515   4.143
12806TIP3    H238355   6.936   7.641   4.154
12807TIP3   OH238356   7.347   6.129   4.163
12807TIP3    H138357   7.395   6.068   4.104
12807TIP3    H238358   7.421   6.184   4.197
12808TIP3   OH238359   7.855   6.308   4.261
12808TIP3    H138360   7.918   6.264   4.320
12808TIP3    H238361   7.875   6.402   4.284
12809TIP3   OH238362   7.709   7.717   3.781
12809TIP3    H138363   7.776   7.775   3.737
12809TIP3    H238364   7.698   7.648   3.712
12810TIP3   OH238365   7.642   6.371   5.631
12810TIP3    H138366   7.606   6.301   5.689
12810TIP3    H238367   7.735   6.373   5.664
12811TIP3   OH238368   7.893   6.359   5.740
12811TIP3    H138369   7.979   6.367   5.697
12811TIP3    H238370   7.910   6.282   5.798
12812TIP3   OH238371   7.019   7.564   3.815
12812TIP3    H138372   7.025   7.588   3.909
12812TIP3    H238373   7.107   7.522   3.799
12813TIP3   OH238374   1.388   7.429   6.419
12813TIP3    H138375   1.414   7.512   6.466
12813TIP3    H238376   1.426   7.445   6.331
12814TIP3   OH238377   0.826   7.339   6.088
12814TIP3    H138378   0.913   7.359   6.129
12814TIP3    H238379   0.836   7.386   6.002
12815TIP3   OH238380   1.458   7.631   6.591
12815TIP3    H138381   1.414   7.715   6.572
12815TIP3    H238382   1.447   7.625   6.688
12816TIP3   OH238383   1.045   7.378   6.254
12816TIP3    H138384   1.106   7.335   6.314
12816TIP3    H238385   1.079   7.470   6.256
12817TIP3   OH238386   1.182   7.331   6.579
12817TIP3    H138387   1.113   7.398   6.567
12817TIP3    H238388   1.253   7.362   6.519
12818TIP3   OH238389   1.124   6.931   5.687
12818TIP3    H138390   1.043   6.957   5.736
12818TIP3    H238391   1.140   7.012   5.634
12819TIP3   OH238392   1.157   7.555   5.585
12819TIP3    H138393   1.090   7.514   5.525
12819TIP3    H238394   1.151   7.646   5.548
12820TIP3   OH238395   1.274   7.530   6.808
12820TIP3    H138396   1.196   7.530   6.866
12820TIP3    H238397   1.234   7.519   6.721
12821TIP3   OH238398   0.926   7.740   6.206
12821TIP3    H138399   0.853   7.701   6.257
12821TIP3    H238400   1.005   7.705   6.253
12822TIP3   OH238401   0.929   7.828   5.256
12822TIP3    H138402   0.880   7.783   5.184
12822TIP3    H238403   0.912   7.921   5.236
12823TIP3   OH238404   1.053   8.004   5.592
12823TIP3    H138405   1.125   8.065   5.565
12823TIP3    H238406   1.091   7.964   5.673
12824TIP3   OH238407   1.182   7.879   5.794
12824TIP3    H138408   1.121   7.832   5.856
12824TIP3    H238409   1.251   7.914   5.854
12825TIP3   OH238410   1.119   7.786   5.443
12825TIP3    H138411   1.047   7.789   5.375
12825TIP3    H238412   1.090   7.862   5.499
12826TIP3   OH238413   0.983   7.466   5.395
12826TIP3    H138414   0.934   7.507   5.322
12826TIP3    H238415   0.966   7.371   5.378
12827TIP3   OH238416   1.017   7.731   5.949
12827TIP3    H138417   0.994   7.638   5.930
12827TIP3    H238418   0.981   7.742   6.039
12828TIP3   OH238419   0.944   7.197   5.381
12828TIP3    H138420   1.022   7.173   5.436
12828TIP3    H238421   0.875   7.136   5.416
12829TIP3   OH238422   0.987   7.456   5.866
12829TIP3    H138423   1.034   7.370   5.868
12829TIP3    H238424   1.020   7.492   5.782
12830TIP3   OH238425   1.147   7.631   6.334
12830TIP3    H138426   1.233   7.665   6.300
12830TIP3    H238427   1.147   7.664   6.425
12831TIP3   OH238428   1.738   7.386   7.113
12831TIP3    H138429   1.761   7.309   7.057
12831TIP3    H238430   1.678   7.434   7.052
12832TIP3   OH238431   1.103   7.203   5.874
12832TIP3    H138432   1.152   7.188   5.957
12832TIP3    H238433   1.038   7.130   5.877
12833TIP3   OH238434   1.619   7.449   6.866
12833TIP3    H138435   1.559   7.516   6.906
12833TIP3    H238436   1.553   7.385   6.832
12834TIP3   OH238437   1.181   7.138   5.512
12834TIP3    H138438   1.221   7.070   5.454
12834TIP3    H238439   1.246   7.211   5.508
12835TIP3   OH238440   1.439   7.257   6.776
12835TIP3    H138441   1.346   7.254   6.746
12835TIP3    H238442   1.465   7.163   6.768
12836TIP3   OH238443   1.166   7.054   6.324
12836TIP3    H138444   1.211   7.103   6.251
12836TIP3    H238445   1.082   7.101   6.329
12837TIP3   OH238446   1.261   7.160   6.096
12837TIP3    H138447   1.333   7.106   6.056
12837TIP3    H238448   1.298   7.250   6.079
12838TIP3   OH238449   0.829   7.089   6.253
12838TIP3    H138450   0.890   7.049   6.189
12838TIP3    H238451   0.844   7.026   6.328
12839TIP3   OH238452   0.914   6.990   5.867
12839TIP3    H138453   0.839   6.993   5.806
12839TIP3    H238454   0.897   6.906   5.915
12840TIP3   OH238455   2.382   8.144   5.508
12840TIP3    H138456   2.346   8.228   5.472
12840TIP3    H238457   2.314   8.083   5.473
12841TIP3   OH238458   2.383   8.161   5.879
12841TIP3    H138459   2.412   8.115   5.959
12841TIP3    H238460   2.348   8.087   5.826
12842TIP3   OH238461   1.717   8.085   6.272
12842TIP3    H138462   1.718   7.996   6.316
12842TIP3    H238463   1.785   8.072   6.201
12843TIP3   OH238464   2.600   8.457   5.569
12843TIP3    H138465   2.605   8.383   5.633
12843TIP3    H238466   2.664   8.520   5.605
12844TIP3   OH238467   1.721   8.372   6.059
12844TIP3    H138468   1.675   8.306   6.002
12844TIP3    H238469   1.796   8.399   6.001
12845TIP3   OH238470   1.358   7.656   5.750
12845TIP3    H138471   1.315   7.741   5.768
12845TIP3    H238472   1.284   7.610   5.705
12846TIP3   OH238473   1.415   7.947   5.920
12846TIP3    H138474   1.464   7.872   5.959
12846TIP3    H238475   1.486   7.999   5.881
12847TIP3   OH238476   2.187   8.362   5.921
12847TIP3    H138477   2.236   8.283   5.888
12847TIP3    H238478   2.258   8.424   5.933
12848TIP3   OH238479   3.194   7.699   5.923
12848TIP3    H138480   3.224   7.783   5.964
12848TIP3    H238481   3.219   7.714   5.830
12849TIP3   OH238482   2.590   7.885   5.957
12849TIP3    H138483   2.630   7.799   5.978
12849TIP3    H238484   2.556   7.868   5.867
12850TIP3   OH238485   1.931   7.541   5.921
12850TIP3    H138486   1.911   7.614   5.859
12850TIP3    H238487   1.887   7.467   5.873
12851TIP3   OH238488   2.624   7.635   5.544
12851TIP3    H138489   2.697   7.620   5.609
12851TIP3    H238490   2.676   7.668   5.468
12852TIP3   OH238491   1.563   7.742   6.034
12852TIP3    H138492   1.646   7.718   6.079
12852TIP3    H238493   1.573   7.690   5.951
12853TIP3   OH238494   2.000   7.944   5.840
12853TIP3    H138495   2.094   7.919   5.846
12853TIP3    H238496   1.959   7.861   5.805
12854TIP3   OH238497   3.270   7.909   6.093
12854TIP3    H138498   3.184   7.953   6.075
12854TIP3    H238499   3.286   7.939   6.184
12855TIP3   OH238500   1.927   7.526   6.360
12855TIP3    H138501   1.866   7.559   6.291
12855TIP3    H238502   1.873   7.540   6.440
12856TIP3   OH238503   2.270   8.342   5.359
12856TIP3    H138504   2.216   8.335   5.279
12856TIP3    H238505   2.279   8.438   5.369
12857TIP3   OH238506   2.032   8.305   6.151
12857TIP3    H138507   1.985   8.384   6.188
12857TIP3    H238508   2.065   8.344   6.067
12858TIP3   OH238509   2.831   7.640   5.718
12858TIP3    H138510   2.820   7.585   5.797
12858TIP3    H238511   2.884   7.715   5.751
12859TIP3   OH238512   1.799   7.637   6.141
12859TIP3    H138513   1.862   7.709   6.162
12859TIP3    H238514   1.845   7.596   6.064
12860TIP3   OH238515   1.259   8.155   5.494
12860TIP3    H138516   1.219   8.165   5.404
12860TIP3    H238517   1.269   8.249   5.516
12861TIP3   OH238518   2.986   7.601   6.090
12861TIP3    H138519   2.898   7.625   6.057
12861TIP3    H238520   3.045   7.632   6.018
12862TIP3   OH238521   2.279   7.242   6.075
12862TIP3    H138522   2.262   7.147   6.087
12862TIP3    H238523   2.200   7.280   6.120
12863TIP3   OH238524   2.627   8.467   5.285
12863TIP3    H138525   2.590   8.388   5.240
12863TIP3    H238526   2.632   8.439   5.378
12864TIP3   OH238527   2.883   8.610   6.084
12864TIP3    H138528   2.887   8.531   6.025
12864TIP3    H238529   2.926   8.678   6.026
12865TIP3   OH238530   2.216   8.005   5.334
12865TIP3    H138531   2.132   8.053   5.317
12865TIP3    H238532   2.256   8.003   5.245
12866TIP3   OH238533   2.167   7.795   5.040
12866TIP3    H138534   2.235   7.842   5.092
12866TIP3    H238535   2.223   7.730   4.993
12867TIP3   OH238536   3.112   8.252   5.916
12867TIP3    H138537   3.029   8.304   5.920
12867TIP3    H238538   3.144   8.276   5.826
12868TIP3   OH238539   2.559   8.083   5.306
12868TIP3    H138540   2.504   8.104   5.385
12868TIP3    H238541   2.643   8.056   5.349
12869TIP3   OH238542   2.798   8.119   6.219
12869TIP3    H138543   2.797   8.202   6.272
12869TIP3    H238544   2.708   8.123   6.178
12870TIP3   OH238545   1.799   8.088   5.706
12870TIP3    H138546   1.752   8.029   5.642
12870TIP3    H238547   1.871   8.031   5.738
12871TIP3   OH238548   1.926   8.462   5.909
12871TIP3    H138549   1.882   8.460   5.821
12871TIP3    H238550   2.020   8.444   5.887
12872TIP3   OH238551   1.907   8.063   6.074
12872TIP3    H138552   1.946   8.034   5.988
12872TIP3    H238553   1.953   8.150   6.089
12873TIP3   OH238554   2.397   7.944   5.127
12873TIP3    H138555   2.455   8.005   5.177
12873TIP3    H238556   2.425   7.962   5.034
12874TIP3   OH238557   2.912   7.186   5.173
12874TIP3    H138558   2.832   7.207   5.225
12874TIP3    H238559   2.926   7.270   5.125
12875TIP3   OH238560   1.658   7.934   5.525
12875TIP3    H138561   1.590   7.974   5.466
12875TIP3    H238562   1.626   7.843   5.532
12876TIP3   OH238563   3.046   8.086   6.391
12876TIP3    H138564   2.963   8.093   6.341
12876TIP3    H238565   3.063   7.990   6.384
12877TIP3   OH238566   2.042   7.319   6.205
12877TIP3    H138567   1.954   7.289   6.173
12877TIP3    H238568   2.014   7.401   6.251
12878TIP3   OH238569   2.576   7.436   6.396
12878TIP3    H138570   2.646   7.407   6.459
12878TIP3    H238571   2.493   7.414   6.443
12879TIP3   OH238572   2.816   7.859   6.312
12879TIP3    H138573   2.765   7.857   6.396
12879TIP3    H238574   2.794   7.947   6.276
12880TIP3   OH238575   2.474   7.971   4.869
12880TIP3    H138576   2.443   7.953   4.778
12880TIP3    H238577   2.530   8.049   4.853
12881TIP3   OH238578   2.184   7.373   5.181
12881TIP3    H138579   2.133   7.372   5.264
12881TIP3    H238580   2.152   7.290   5.140
12882TIP3   OH238581   1.977   7.838   6.218
12882TIP3    H138582   1.931   7.857   6.302
12882TIP3    H238583   1.956   7.919   6.166
12883TIP3   OH238584   1.858   7.731   5.740
12883TIP3    H138585   1.766   7.697   5.751
12883TIP3    H238586   1.876   7.704   5.647
12884TIP3   OH238587   2.358   7.818   5.470
12884TIP3    H138588   2.300   7.880   5.421
12884TIP3    H238589   2.406   7.774   5.397
12885TIP3   OH238590   2.523   8.083   6.534
12885TIP3    H138591   2.507   8.012   6.600
12885TIP3    H238592   2.615   8.106   6.554
12886TIP3   OH238593   2.507   7.837   5.700
12886TIP3    H138594   2.445   7.859   5.627
12886TIP3    H238595   2.543   7.754   5.660
12887TIP3   OH238596   1.795   7.857   6.429
12887TIP3    H138597   1.831   7.900   6.508
12887TIP3    H238598   1.770   7.769   6.466
12888TIP3   OH238599   1.837   7.343   5.133
12888TIP3    H138600   1.876   7.325   5.222
12888TIP3    H238601   1.771   7.409   5.158
12889TIP3   OH238602   1.389   7.379   6.016
12889TIP3    H138603   1.463   7.419   6.067
12889TIP3    H238604   1.427   7.365   5.928
12890TIP3   OH238605   1.352   7.365   5.525
12890TIP3    H138606   1.397   7.404   5.447
12890TIP3    H238607   1.292   7.439   5.548
12891TIP3   OH238608   2.529   8.084   6.127
12891TIP3    H138609   2.557   8.013   6.065
12891TIP3    H238610   2.492   8.030   6.200
12892TIP3   OH238611   2.190   7.546   5.797
12892TIP3    H138612   2.106   7.539   5.847
12892TIP3    H238613   2.257   7.535   5.867
12893TIP3   OH238614   1.620   7.600   5.804
12893TIP3    H138615   1.526   7.607   5.774
12893TIP3    H238616   1.645   7.511   5.773
12894TIP3   OH238617   1.900   7.639   5.490
12894TIP3    H138618   1.980   7.586   5.474
12894TIP3    H238619   1.843   7.611   5.416
12895TIP3   OH238620   2.673   7.622   6.002
12895TIP3    H138621   2.637   7.634   6.092
12895TIP3    H238622   2.609   7.556   5.967
12896TIP3   OH238623   1.726   7.615   5.260
12896TIP3    H138624   1.649   7.592   5.205
12896TIP3    H238625   1.784   7.661   5.197
12897TIP3   OH238626   2.268   7.875   5.896
12897TIP3    H138627   2.333   7.830   5.841
12897TIP3    H238628   2.273   7.825   5.979
12898TIP3   OH238629   1.799   7.363   5.759
12898TIP3    H138630   1.771   7.278   5.797
12898TIP3    H238631   1.842   7.336   5.675
12899TIP3   OH238632   2.243   7.769   6.178
12899TIP3    H138633   2.153   7.803   6.195
12899TIP3    H238634   2.300   7.829   6.230
12900TIP3   OH238635   1.983   8.144   5.286
12900TIP3    H138636   1.906   8.085   5.272
12900TIP3    H238637   1.959   8.188   5.370
12901TIP3   OH238638   2.874   8.396   5.910
12901TIP3    H138639   2.908   8.442   5.830
12901TIP3    H238640   2.796   8.348   5.874
12902TIP3   OH238641   2.430   7.479   5.124
12902TIP3    H138642   2.337   7.454   5.149
12902TIP3    H238643   2.442   7.566   5.167
12903TIP3   OH238644   2.448   8.495   6.278
12903TIP3    H138645   2.465   8.432   6.350
12903TIP3    H238646   2.358   8.526   6.307
12904TIP3   OH238647   2.506   7.717   5.248
12904TIP3    H138648   2.602   7.724   5.261
12904TIP3    H238649   2.485   7.798   5.197
12905TIP3   OH238650   1.652   8.129   5.933
12905TIP3    H138651   1.696   8.125   5.846
12905TIP3    H238652   1.722   8.096   5.991
12906TIP3   OH238653   2.090   8.327   5.115
12906TIP3    H138654   2.053   8.400   5.169
12906TIP3    H238655   2.053   8.251   5.164
12907TIP3   OH238656   2.278   8.207   6.594
12907TIP3    H138657   2.245   8.187   6.505
12907TIP3    H238658   2.370   8.175   6.585
12908TIP3   OH238659   2.947   7.813   5.078
12908TIP3    H138660   2.887   7.767   5.015
12908TIP3    H238661   2.942   7.903   5.037
12909TIP3   OH238662   3.166   8.651   6.167
12909TIP3    H138663   3.072   8.675   6.150
12909TIP3    H238664   3.195   8.636   6.074
12910TIP3   OH238665   2.647   8.262   5.808
12910TIP3    H138666   2.558   8.235   5.836
12910TIP3    H238667   2.680   8.177   5.771
12911TIP3   OH238668   1.342   7.788   5.284
12911TIP3    H138669   1.386   7.874   5.303
12911TIP3    H238670   1.263   7.794   5.344
12912TIP3   OH238671   1.912   8.266   5.525
12912TIP3    H138672   1.858   8.342   5.550
12912TIP3    H238673   1.884   8.202   5.594
12913TIP3   OH238674   2.438   8.286   4.857
12913TIP3    H138675   2.472   8.280   4.949
12913TIP3    H238676   2.358   8.341   4.869
12914TIP3   OH238677   1.764   7.603   6.577
12914TIP3    H138678   1.668   7.593   6.588
12914TIP3    H238679   1.797   7.544   6.648
12915TIP3   OH238680   2.565   8.264   5.103
12915TIP3    H138681   2.562   8.194   5.172
12915TIP3    H238682   2.662   8.268   5.085
12916TIP3   OH238683   1.759   8.288   4.932
12916TIP3    H138684   1.797   8.200   4.912
12916TIP3    H238685   1.784   8.301   5.024
12917TIP3   OH238686   1.460   8.030   5.358
12917TIP3    H138687   1.392   8.066   5.419
12917TIP3    H238688   1.464   8.103   5.293
12918TIP3   OH238689   2.597   7.679   6.263
12918TIP3    H138690   2.684   7.711   6.295
12918TIP3    H238691   2.587   7.594   6.312
12919TIP3   OH238692   2.499   7.415   5.419
12919TIP3    H138693   2.463   7.443   5.333
12919TIP3    H238694   2.527   7.499   5.459
12920TIP3   OH238695   2.200   7.595   5.525
12920TIP3    H138696   2.248   7.679   5.515
12920TIP3    H238697   2.182   7.591   5.621
12921TIP3   OH238698   2.436   7.917   6.324
12921TIP3    H138699   2.466   7.969   6.401
12921TIP3    H238700   2.492   7.838   6.328
12922TIP3   OH238701   2.339   7.334   5.645
12922TIP3    H138702   2.284   7.412   5.664
12922TIP3    H238703   2.381   7.364   5.561
12923TIP3   OH238704   3.081   7.820   6.313
12923TIP3    H138705   2.983   7.819   6.319
12923TIP3    H238706   3.092   7.774   6.228
12924TIP3   OH238707   2.730   8.016   5.703
12924TIP3    H138708   2.655   7.955   5.710
12924TIP3    H238709   2.801   7.967   5.750
12925TIP3   OH238710   1.451   8.247   5.174
12925TIP3    H138711   1.475   8.340   5.162
12925TIP3    H238712   1.504   8.202   5.106
12926TIP3   OH238713   1.384   7.516   5.297
12926TIP3    H138714   1.392   7.613   5.300
12926TIP3    H238715   1.294   7.505   5.265
12927TIP3   OH238716   1.775   7.242   6.175
12927TIP3    H138717   1.747   7.209   6.087
12927TIP3    H238718   1.764   7.162   6.231
12928TIP3   OH238719   1.576   8.048   5.027
12928TIP3    H138720   1.624   8.013   5.104
12928TIP3    H238721   1.650   8.050   4.961
12929TIP3   OH238722   2.036   8.227   4.839
12929TIP3    H138723   2.063   8.247   4.929
12929TIP3    H238724   2.063   8.134   4.828
12930TIP3   OH238725   1.782   7.958   5.242
12930TIP3    H138726   1.760   7.915   5.327
12930TIP3    H238727   1.821   7.884   5.191
12931TIP3   OH238728   2.068   8.006   6.467
12931TIP3    H138729   2.017   8.085   6.495
12931TIP3    H238730   2.124   8.046   6.396
12932TIP3   OH238731   1.887   7.756   5.083
12932TIP3    H138732   1.863   7.755   4.989
12932TIP3    H238733   1.984   7.760   5.078
12933TIP3   OH238734   2.597   8.416   6.554
12933TIP3    H138735   2.679   8.448   6.596
12933TIP3    H238736   2.558   8.368   6.629
12934TIP3   OH238737   2.713   8.092   4.745
12934TIP3    H138738   2.684   8.042   4.666
12934TIP3    H238739   2.692   8.183   4.715
12935TIP3   OH238740   2.175   7.810   6.616
12935TIP3    H138741   2.179   7.732   6.557
12935TIP3    H238742   2.140   7.878   6.552
12936TIP3   OH238743   2.185   7.606   6.410
12936TIP3    H138744   2.214   7.642   6.324
12936TIP3    H238745   2.092   7.580   6.390
12937TIP3   OH238746   2.209   8.152   6.291
12937TIP3    H138747   2.282   8.140   6.229
12937TIP3    H238748   2.149   8.210   6.239
12938TIP3   OH238749   2.805   8.094   6.631
12938TIP3    H138750   2.842   8.005   6.634
12938TIP3    H238751   2.885   8.148   6.635
12939TIP3   OH238752   2.834   8.351   6.359
12939TIP3    H138753   2.795   8.437   6.376
12939TIP3    H238754   2.924   8.374   6.325
12940TIP3   OH238755   2.016   7.955   6.810
12940TIP3    H138756   1.983   7.870   6.847
12940TIP3    H238757   2.080   7.919   6.745
12941TIP3   OH238758   2.315   7.366   6.478
12941TIP3    H138759   2.266   7.447   6.453
12941TIP3    H238760   2.247   7.297   6.463
12942TIP3   OH238761   2.446   7.864   6.677
12942TIP3    H138762   2.427   7.844   6.771
12942TIP3    H238763   2.357   7.847   6.641
12943TIP3   OH238764   2.683   7.816   6.540
12943TIP3    H138765   2.606   7.819   6.600
12943TIP3    H238766   2.754   7.782   6.599
12944TIP3   OH238767   2.908   7.753   6.691
12944TIP3    H138768   2.925   7.656   6.701
12944TIP3    H238769   2.907   7.782   6.784
12945TIP3   OH238770   1.912   7.713   6.885
12945TIP3    H138771   1.889   7.634   6.833
12945TIP3    H238772   1.950   7.671   6.964
12946TIP3   OH238773   2.407   7.368   6.736
12946TIP3    H138774   2.474   7.297   6.726
12946TIP3    H238775   2.368   7.367   6.646
12947TIP3   OH238776   2.486   7.582   6.890
12947TIP3    H138777   2.465   7.509   6.827
12947TIP3    H238778   2.406   7.639   6.881
12948TIP3   OH238779   1.189   8.149   5.213
12948TIP3    H138780   1.270   8.195   5.182
12948TIP3    H238781   1.181   8.076   5.148
12949TIP3   OH238782   2.838   8.263   5.086
12949TIP3    H138783   2.908   8.323   5.052
12949TIP3    H238784   2.885   8.224   5.164
12950TIP3   OH238785   2.974   8.135   5.285
12950TIP3    H138786   2.911   8.093   5.348
12950TIP3    H238787   3.044   8.171   5.344
12951TIP3   OH238788   3.014   8.525   5.715
12951TIP3    H138789   3.078   8.466   5.670
12951TIP3    H238790   3.017   8.605   5.661
12952TIP3   OH238791   2.908   8.046   4.929
12952TIP3    H138792   2.839   8.053   4.860
12952TIP3    H238793   2.882   8.122   4.985
12953TIP3   OH238794   2.786   7.715   4.882
12953TIP3    H138795   2.734   7.759   4.815
12953TIP3    H238796   2.762   7.621   4.867
12954TIP3   OH238797   2.787   7.994   5.434
12954TIP3    H138798   2.794   7.898   5.424
12954TIP3    H238799   2.773   8.005   5.530
12955TIP3   OH238800   1.428   8.031   6.189
12955TIP3    H138801   1.411   8.032   6.093
12955TIP3    H238802   1.512   8.079   6.195
12956TIP3   OH238803   3.083   8.422   6.292
12956TIP3    H138804   3.153   8.353   6.283
12956TIP3    H238805   3.113   8.489   6.227
12957TIP3   OH238806   3.262   8.223   6.304
12957TIP3    H138807   3.186   8.171   6.338
12957TIP3    H238808   3.335   8.159   6.321
12958TIP3   OH238809   2.731   7.445   4.855
12958TIP3    H138810   2.800   7.422   4.921
12958TIP3    H238811   2.652   7.396   4.887
12959TIP3   OH238812   2.785   7.715   5.322
12959TIP3    H138813   2.826   7.626   5.338
12959TIP3    H238814   2.843   7.747   5.251
12960TIP3   OH238815   2.945   7.885   5.820
12960TIP3    H138816   3.030   7.910   5.777
12960TIP3    H238817   2.961   7.920   5.909
12961TIP3   OH238818   3.020   8.029   6.051
12961TIP3    H138819   2.942   8.062   6.100
12961TIP3    H238820   3.050   8.110   6.004
12962TIP3   OH238821   3.466   7.624   6.606
12962TIP3    H138822   3.526   7.558   6.564
12962TIP3    H238823   3.436   7.676   6.529
12963TIP3   OH238824   2.893   7.464   5.362
12963TIP3    H138825   2.939   7.446   5.446
12963TIP3    H238826   2.831   7.388   5.359
12964TIP3   OH238827   1.591   7.450   6.195
12964TIP3    H138828   1.653   7.374   6.196
12964TIP3    H238829   1.652   7.523   6.179
12965TIP3   OH238830   1.388   7.747   6.259
12965TIP3    H138831   1.440   7.727   6.179
12965TIP3    H238832   1.396   7.845   6.259
12966TIP3   OH238833   3.335   7.758   6.410
12966TIP3    H138834   3.248   7.800   6.426
12966TIP3    H238835   3.306   7.684   6.353
12967TIP3   OH238836   2.969   7.397   4.997
12967TIP3    H138837   3.014   7.326   4.947
12967TIP3    H238838   3.036   7.468   4.996
12968TIP3   OH238839   1.378   7.222   5.753
12968TIP3    H138840   1.284   7.221   5.781
12968TIP3    H238841   1.375   7.283   5.676
12969TIP3   OH238842   1.603   7.303   6.553
12969TIP3    H138843   1.552   7.300   6.637
12969TIP3    H238844   1.535   7.340   6.493
12970TIP3   OH238845   3.235   7.521   6.292
12970TIP3    H138846   3.145   7.511   6.257
12970TIP3    H238847   3.270   7.430   6.282
12971TIP3   OH238848   2.445   7.445   5.931
12971TIP3    H138849   2.398   7.372   5.976
12971TIP3    H238850   2.480   7.401   5.853
12972TIP3   OH238851   2.965   7.322   5.818
12972TIP3    H138852   2.999   7.372   5.740
12972TIP3    H238853   2.868   7.333   5.807
12973TIP3   OH238854   3.057   7.417   5.579
12973TIP3    H138855   3.130   7.364   5.541
12973TIP3    H238856   3.091   7.508   5.564
12974TIP3   OH238857   1.688   7.146   5.931
12974TIP3    H138858   1.595   7.115   5.929
12974TIP3    H238859   1.736   7.060   5.924
12975TIP3   OH238860   1.478   7.016   5.579
12975TIP3    H138861   1.508   7.072   5.505
12975TIP3    H238862   1.449   7.084   5.644
12976TIP3   OH238863   2.137   7.171   5.818
12976TIP3    H138864   2.169   7.219   5.740
12976TIP3    H238865   2.177   7.220   5.890
12977TIP3   OH238866   2.691   7.327   5.786
12977TIP3    H138867   2.660   7.293   5.702
12977TIP3    H238868   2.670   7.252   5.847
12978TIP3   OH238869   2.712   7.251   5.354
12978TIP3    H138870   2.630   7.301   5.373
12978TIP3    H238871   2.692   7.166   5.398
12979TIP3   OH238872   1.596   7.176   5.336
12979TIP3    H138873   1.647   7.115   5.279
12979TIP3    H238874   1.669   7.228   5.376
12980TIP3   OH238875   1.907   7.441   6.792
12980TIP3    H138876   1.845   7.398   6.854
12980TIP3    H238877   1.994   7.425   6.835
12981TIP3   OH238878   2.152   7.416   6.929
12981TIP3    H138879   2.235   7.390   6.886
12981TIP3    H238880   2.140   7.342   6.993
12982TIP3   OH238881   2.974   7.486   6.723
12982TIP3    H138882   2.993   7.456   6.814
12982TIP3    H238883   3.064   7.481   6.682
12983TIP3   OH238884   4.175   8.415   4.983
12983TIP3    H138885   4.169   8.512   4.971
12983TIP3    H238886   4.081   8.394   4.997
12984TIP3   OH238887   4.198   8.381   5.354
12984TIP3    H138888   4.210   8.402   5.448
12984TIP3    H238889   4.138   8.304   5.355
12985TIP3   OH238890   3.470   8.308   5.737
12985TIP3    H138891   3.507   8.240   5.797
12985TIP3    H238892   3.549   8.360   5.717
12986TIP3   OH238893   4.432   8.694   5.042
12986TIP3    H138894   4.393   8.635   5.108
12986TIP3    H238895   4.410   8.778   5.086
12987TIP3   OH238896   3.513   8.643   5.548
12987TIP3    H138897   3.467   8.572   5.499
12987TIP3    H238898   3.587   8.663   5.485
12988TIP3   OH238899   3.154   7.914   5.235
12988TIP3    H138900   3.110   7.999   5.252
12988TIP3    H238901   3.081   7.866   5.191
12989TIP3   OH238902   3.207   8.206   5.416
12989TIP3    H138903   3.258   8.128   5.447
12989TIP3    H238904   3.279   8.263   5.381
12990TIP3   OH238905   4.002   8.628   5.423
12990TIP3    H138906   4.039   8.565   5.359
12990TIP3    H238907   4.063   8.703   5.401
12991TIP3   OH238908   4.994   7.957   5.399
12991TIP3    H138909   5.019   8.038   5.449
12991TIP3    H238910   5.035   7.979   5.313
12992TIP3   OH238911   4.405   8.129   5.399
12992TIP3    H138912   4.394   8.069   5.474
12992TIP3    H238913   4.313   8.157   5.380
12993TIP3   OH238914   3.730   7.798   5.408
12993TIP3    H138915   3.706   7.869   5.344
12993TIP3    H238916   3.681   7.723   5.366
12994TIP3   OH238917   3.358   7.999   5.518
12994TIP3    H138918   3.442   7.980   5.564
12994TIP3    H238919   3.371   7.946   5.437
12995TIP3   OH238920   3.794   8.198   5.314
12995TIP3    H138921   3.888   8.174   5.315
12995TIP3    H238922   3.753   8.116   5.280
12996TIP3   OH238923   5.058   8.163   5.571
12996TIP3    H138924   4.972   8.209   5.552
12996TIP3    H238925   5.059   8.176   5.667
12997TIP3   OH238926   3.722   7.783   5.845
12997TIP3    H138927   3.663   7.818   5.776
12997TIP3    H238928   3.668   7.801   5.925
12998TIP3   OH238929   4.114   8.662   4.887
12998TIP3    H138930   4.116   8.643   4.791
12998TIP3    H238931   4.019   8.680   4.896
12999TIP3   OH238932   3.828   8.560   5.636
12999TIP3    H138933   3.763   8.630   5.654
12999TIP3    H238934   3.875   8.599   5.559
13000TIP3   OH238935   3.595   7.896   5.627
13000TIP3    H138936   3.656   7.970   5.648
13000TIP3    H238937   3.643   7.855   5.551
13001TIP3   OH238938   3.654   8.782   5.746
13001TIP3    H138939   3.613   8.770   5.658
13001TIP3    H238940   3.574   8.774   5.801
13002TIP3   OH238941   3.045   8.407   4.978
13002TIP3    H138942   3.013   8.419   4.886
13002TIP3    H238943   3.061   8.500   5.001
13003TIP3   OH238944   4.773   7.929   5.573
13003TIP3    H138945   4.706   7.859   5.560
13003TIP3    H238946   4.847   7.900   5.516
13004TIP3   OH238947   4.074   7.499   5.558
13004TIP3    H138948   4.061   7.404   5.579
13004TIP3    H238949   3.996   7.538   5.603
13005TIP3   OH238950   4.431   8.720   4.768
13005TIP3    H138951   4.389   8.636   4.740
13005TIP3    H238952   4.443   8.706   4.865
13006TIP3   OH238953   4.712   8.868   5.561
13006TIP3    H138954   4.697   8.787   5.507
13006TIP3    H238955   4.708   8.937   5.493
13007TIP3   OH238956   3.967   8.201   4.804
13007TIP3    H138957   3.924   8.275   4.829
13007TIP3    H238958   4.044   8.254   4.724
13008TIP3   OH238959   3.964   8.064   4.523
13008TIP3    H138960   3.948   8.018   4.607
13008TIP3    H238961   4.040   8.013   4.485
13009TIP3   OH238962   4.916   8.512   5.403
13009TIP3    H138963   4.829   8.559   5.408
13009TIP3    H238964   4.941   8.533   5.310
13010TIP3   OH238965   4.357   8.350   4.792
13010TIP3    H138966   4.294   8.370   4.866
13010TIP3    H238967   4.436   8.323   4.841
13011TIP3   OH238968   4.586   8.385   5.704
13011TIP3    H138969   4.592   8.471   5.750
13011TIP3    H238970   4.503   8.400   5.654
13012TIP3   OH238971   3.587   8.345   5.197
13012TIP3    H138972   3.546   8.286   5.129
13012TIP3    H238973   3.664   8.291   5.226
13013TIP3   OH238974   3.728   8.704   5.400
13013TIP3    H138975   3.698   8.709   5.308
13013TIP3    H238976   3.821   8.733   5.394
13014TIP3   OH238977   3.713   8.321   5.557
13014TIP3    H138978   3.748   8.299   5.468
13014TIP3    H238979   3.758   8.406   5.576
13015TIP3   OH238980   3.902   8.774   5.882
13015TIP3    H138981   3.866   8.863   5.900
13015TIP3    H238982   3.830   8.741   5.825
13016TIP3   OH238983   4.223   8.185   4.617
13016TIP3    H138984   4.264   8.263   4.663
13016TIP3    H238985   4.224   8.212   4.524
13017TIP3   OH238986   3.620   8.422   5.992
13017TIP3    H138987   3.623   8.512   6.030
13017TIP3    H238988   3.524   8.405   5.995
13018TIP3   OH238989   4.710   7.442   4.663
13018TIP3    H138990   4.628   7.461   4.712
13018TIP3    H238991   4.723   7.525   4.612
13019TIP3   OH238992   3.453   8.184   5.011
13019TIP3    H138993   3.392   8.226   4.947
13019TIP3    H238994   3.411   8.099   5.023
13020TIP3   OH238995   3.246   8.572   5.920
13020TIP3    H138996   3.186   8.550   5.846
13020TIP3    H238997   3.283   8.484   5.944
13021TIP3   OH238998   4.847   8.347   5.874
13021TIP3    H138999   4.764   8.359   5.826
13021TIP3    H239000   4.864   8.252   5.860
13022TIP3   OH239001   3.440   8.773   5.919
13022TIP3    H139002   3.495   8.735   5.990
13022TIP3    H239003   3.369   8.706   5.910
13023TIP3   OH239004   3.838   7.576   5.691
13023TIP3    H139005   3.750   7.545   5.660
13023TIP3    H239006   3.809   7.656   5.740
13024TIP3   OH239007   4.370   7.696   5.881
13024TIP3    H139008   4.441   7.668   5.943
13024TIP3    H239009   4.289   7.674   5.931
13025TIP3   OH239010   4.606   8.126   5.803
13025TIP3    H139011   4.559   8.123   5.889
13025TIP3    H239012   4.589   8.217   5.771
13026TIP3   OH239013   4.270   8.226   4.349
13026TIP3    H139014   4.230   8.210   4.262
13026TIP3    H239015   4.312   8.313   4.337
13027TIP3   OH239016   3.978   7.626   4.659
13027TIP3    H139017   3.946   7.619   4.751
13027TIP3    H239018   3.945   7.540   4.624
13028TIP3   OH239019   3.771   8.096   5.702
13028TIP3    H139020   3.721   8.113   5.785
13028TIP3    H239021   3.751   8.178   5.651
13029TIP3   OH239022   3.654   7.979   5.221
13029TIP3    H139023   3.561   7.954   5.239
13029TIP3    H239024   3.665   7.940   5.131
13030TIP3   OH239025   4.148   8.036   4.946
13030TIP3    H139026   4.073   8.109   4.895
13030TIP3    H239027   4.205   8.032   4.868
13031TIP3   OH239028   4.322   8.336   6.029
13031TIP3    H139029   4.299   8.265   6.094
13031TIP3    H239030   4.415   8.352   6.053
13032TIP3   OH239031   3.592   8.121   5.914
13032TIP3    H139032   3.626   8.183   5.980
13032TIP3    H239033   3.579   8.040   5.967
13033TIP3   OH239034   3.632   7.594   4.625
13033TIP3    H139035   3.627   7.595   4.723
13033TIP3    H239036   3.560   7.656   4.603
13034TIP3   OH239037   3.184   7.640   5.498
13034TIP3    H139038   3.257   7.674   5.552
13034TIP3    H239039   3.227   7.613   5.415
13035TIP3   OH239040   3.146   7.622   5.014
13035TIP3    H139041   3.192   7.659   4.935
13035TIP3    H239042   3.087   7.697   5.035
13036TIP3   OH239043   4.310   8.331   5.609
13036TIP3    H139044   4.358   8.272   5.550
13036TIP3    H239045   4.283   8.273   5.682
13037TIP3   OH239046   3.996   7.832   5.297
13037TIP3    H139047   3.909   7.807   5.335
13037TIP3    H239048   4.058   7.783   5.354
13038TIP3   OH239049   3.416   7.857   5.290
13038TIP3    H139050   3.322   7.863   5.261
13038TIP3    H239051   3.441   7.767   5.264
13039TIP3   OH239052   3.681   7.853   4.980
13039TIP3    H139053   3.775   7.863   4.956
13039TIP3    H239054   3.634   7.870   4.896
13040TIP3   OH239055   4.460   7.874   5.460
13040TIP3    H139056   4.448   7.884   5.557
13040TIP3    H239057   4.392   7.806   5.439
13041TIP3   OH239058   3.533   7.876   4.754
13041TIP3    H139059   3.458   7.840   4.702
13041TIP3    H239060   3.584   7.920   4.683
13042TIP3   OH239061   3.598   8.673   6.127
13042TIP3    H139062   3.681   8.701   6.172
13042TIP3    H239063   3.538   8.672   6.204
13043TIP3   OH239064   4.094   8.108   5.393
13043TIP3    H139065   4.075   8.027   5.342
13043TIP3    H239066   4.067   8.080   5.483
13044TIP3   OH239067   3.585   7.616   5.261
13044TIP3    H139068   3.546   7.539   5.309
13044TIP3    H239069   3.646   7.572   5.201
13045TIP3   OH239070   4.040   8.038   5.659
13045TIP3    H139071   3.949   8.067   5.681
13045TIP3    H239072   4.095   8.093   5.718
13046TIP3   OH239073   3.698   8.409   4.749
13046TIP3    H139074   3.603   8.417   4.766
13046TIP3    H239075   3.736   8.446   4.835
13047TIP3   OH239076   4.679   8.649   5.399
13047TIP3    H139077   4.704   8.700   5.318
13047TIP3    H239078   4.596   8.604   5.369
13048TIP3   OH239079   4.232   7.719   4.630
13048TIP3    H139080   4.134   7.707   4.634
13048TIP3    H239081   4.245   7.814   4.650
13049TIP3   OH239082   4.199   8.761   5.779
13049TIP3    H139083   4.210   8.714   5.863
13049TIP3    H239084   4.104   8.782   5.780
13050TIP3   OH239085   4.315   7.965   4.736
13050TIP3    H139086   4.412   7.986   4.746
13050TIP3    H239087   4.285   8.043   4.683
13051TIP3   OH239088   3.444   8.385   5.427
13051TIP3    H139089   3.494   8.384   5.342
13051TIP3    H239090   3.512   8.355   5.489
13052TIP3   OH239091   3.960   8.505   4.708
13052TIP3    H139092   3.938   8.589   4.666
13052TIP3    H239093   3.883   8.452   4.682
13053TIP3   OH239094   3.352   8.355   6.055
13053TIP3    H139095   3.371   8.339   6.150
13053TIP3    H239096   3.285   8.287   6.037
13054TIP3   OH239097   4.082   8.462   6.079
13054TIP3    H139098   4.020   8.414   6.020
13054TIP3    H239099   4.169   8.429   6.046
13055TIP3   OH239100   4.745   8.069   4.565
13055TIP3    H139101   4.684   8.024   4.501
13055TIP3    H239102   4.738   8.159   4.525
13056TIP3   OH239103   4.968   8.910   5.649
13056TIP3    H139104   4.871   8.918   5.633
13056TIP3    H239105   4.997   8.895   5.556
13057TIP3   OH239106   4.461   8.504   5.319
13057TIP3    H139107   4.372   8.545   5.321
13057TIP3    H239108   4.437   8.411   5.305
13058TIP3   OH239109   3.137   8.044   4.771
13058TIP3    H139110   3.184   8.129   4.787
13058TIP3    H239111   3.059   8.054   4.830
13059TIP3   OH239112   3.728   8.506   5.015
13059TIP3    H139113   3.686   8.591   5.010
13059TIP3    H239114   3.690   8.468   5.097
13060TIP3   OH239115   4.220   8.555   4.349
13060TIP3    H139116   4.265   8.545   4.436
13060TIP3    H239117   4.128   8.570   4.378
13061TIP3   OH239118   3.560   7.865   6.058
13061TIP3    H139119   3.463   7.867   6.068
13061TIP3    H239120   3.586   7.806   6.131
13062TIP3   OH239121   4.364   8.514   4.575
13062TIP3    H139122   4.359   8.449   4.649
13062TIP3    H239123   4.462   8.524   4.567
13063TIP3   OH239124   3.505   8.532   4.528
13063TIP3    H139125   3.561   8.467   4.481
13063TIP3    H239126   3.569   8.572   4.589
13064TIP3   OH239127   3.255   8.286   4.847
13064TIP3    H139128   3.186   8.325   4.905
13064TIP3    H239129   3.260   8.353   4.776
13065TIP3   OH239130   4.419   7.921   5.722
13065TIP3    H139131   4.489   7.967   5.771
13065TIP3    H239132   4.396   7.848   5.784
13066TIP3   OH239133   4.282   7.696   4.903
13066TIP3    H139134   4.252   7.681   4.812
13066TIP3    H239135   4.311   7.789   4.895
13067TIP3   OH239136   3.966   7.851   5.018
13067TIP3    H139137   4.034   7.917   4.991
13067TIP3    H239138   3.971   7.859   5.115
13068TIP3   OH239139   4.241   8.169   5.818
13068TIP3    H139140   4.260   8.231   5.892
13068TIP3    H239141   4.296   8.094   5.842
13069TIP3   OH239142   4.116   7.600   5.121
13069TIP3    H139143   4.103   7.687   5.162
13069TIP3    H239144   4.179   7.622   5.048
13070TIP3   OH239145   3.622   7.585   4.901
13070TIP3    H139146   3.619   7.674   4.941
13070TIP3    H239147   3.718   7.566   4.909
13071TIP3   OH239148   4.874   8.071   5.793
13071TIP3    H139149   4.778   8.083   5.807
13071TIP3    H239150   4.867   8.014   5.714
13072TIP3   OH239151   3.252   8.500   4.657
13072TIP3    H139152   3.266   8.596   4.663
13072TIP3    H239153   3.325   8.476   4.596
13073TIP3   OH239154   3.181   7.773   4.788
13073TIP3    H139155   3.191   7.871   4.788
13073TIP3    H239156   3.093   7.764   4.750
13074TIP3   OH239157   3.572   7.497   5.661
13074TIP3    H139158   3.541   7.465   5.574
13074TIP3    H239159   3.561   7.418   5.717
13075TIP3   OH239160   3.394   8.651   6.319
13075TIP3    H139161   3.423   8.558   6.314
13075TIP3    H239162   3.312   8.648   6.264
13076TIP3   OH239163   3.370   8.265   4.506
13076TIP3    H139164   3.417   8.244   4.589
13076TIP3    H239165   3.446   8.283   4.448
13077TIP3   OH239166   4.019   8.725   6.121
13077TIP3    H139167   3.986   8.741   6.030
13077TIP3    H239168   4.055   8.635   6.111
13078TIP3   OH239169   3.902   8.411   4.402
13078TIP3    H139170   3.901   8.509   4.403
13078TIP3    H239171   3.828   8.391   4.344
13079TIP3   OH239172   4.498   8.746   5.707
13079TIP3    H139173   4.547   8.814   5.657
13079TIP3    H239174   4.405   8.765   5.683
13080TIP3   OH239175   3.518   8.401   6.296
13080TIP3    H139176   3.595   8.354   6.259
13080TIP3    H239177   3.553   8.428   6.384
13081TIP3   OH239178   3.536   8.184   4.720
13081TIP3    H139179   3.543   8.148   4.811
13081TIP3    H239180   3.609   8.141   4.676
13082TIP3   OH239181   3.853   8.279   5.954
13082TIP3    H139182   3.778   8.341   5.959
13082TIP3    H239183   3.904   8.317   5.878
13083TIP3   OH239184   3.691   8.000   4.569
13083TIP3    H139185   3.657   8.008   4.476
13083TIP3    H239186   3.784   8.019   4.553
13084TIP3   OH239187   4.375   8.674   6.092
13084TIP3    H139188   4.448   8.646   6.035
13084TIP3    H239189   4.378   8.609   6.164
13085TIP3   OH239190   4.522   8.346   4.220
13085TIP3    H139191   4.479   8.295   4.149
13085TIP3    H239192   4.489   8.436   4.199
13086TIP3   OH239193   3.976   8.073   6.084
13086TIP3    H139194   3.978   7.994   6.026
13086TIP3    H239195   3.933   8.140   6.026
13087TIP3   OH239196   3.981   7.861   5.890
13087TIP3    H139197   4.007   7.898   5.803
13087TIP3    H239198   3.887   7.837   5.873
13088TIP3   OH239199   4.005   8.397   5.765
13088TIP3    H139200   4.089   8.413   5.720
13088TIP3    H239201   3.946   8.462   5.721
13089TIP3   OH239202   4.588   8.359   6.144
13089TIP3    H139203   4.637   8.276   6.157
13089TIP3    H239204   4.657   8.418   6.112
13090TIP3   OH239205   4.632   8.606   5.886
13090TIP3    H139206   4.575   8.663   5.828
13090TIP3    H239207   4.720   8.629   5.847
13091TIP3   OH239208   3.854   8.179   6.317
13091TIP3    H139209   3.787   8.109   6.331
13091TIP3    H239210   3.889   8.155   6.229
13092TIP3   OH239211   4.111   7.622   5.963
13092TIP3    H139212   4.061   7.703   5.939
13092TIP3    H239213   4.042   7.553   5.951
13093TIP3   OH239214   4.237   8.123   6.176
13093TIP3    H139215   4.224   8.109   6.272
13093TIP3    H239216   4.147   8.100   6.145
13094TIP3   OH239217   4.473   8.072   6.030
13094TIP3    H139218   4.401   8.075   6.096
13094TIP3    H239219   4.549   8.043   6.085
13095TIP3   OH239220   4.701   8.013   6.178
13095TIP3    H139221   4.716   7.917   6.193
13095TIP3    H239222   4.700   8.049   6.269
13096TIP3   OH239223   3.694   7.958   6.372
13096TIP3    H139224   3.698   7.867   6.337
13096TIP3    H239225   3.732   7.946   6.461
13097TIP3   OH239226   4.202   7.629   6.222
13097TIP3    H139227   4.270   7.559   6.215
13097TIP3    H239228   4.164   7.625   6.132
13098TIP3   OH239229   4.270   7.844   6.379
13098TIP3    H139230   4.249   7.772   6.314
13098TIP3    H239231   4.192   7.902   6.371
13099TIP3   OH239232   2.985   8.407   4.705
13099TIP3    H139233   3.065   8.449   4.668
13099TIP3    H239234   2.971   8.333   4.642
13100TIP3   OH239235   4.859   9.047   5.940
13100TIP3    H139236   4.778   9.016   5.985
13100TIP3    H239237   4.903   9.095   6.014
13101TIP3   OH239238   4.639   8.519   4.570
13101TIP3    H139239   4.709   8.581   4.541
13101TIP3    H239240   4.682   8.480   4.649
13102TIP3   OH239241   4.774   8.392   4.767
13102TIP3    H139242   4.706   8.357   4.829
13102TIP3    H239243   4.841   8.430   4.827
13103TIP3   OH239244   4.826   8.790   5.214
13103TIP3    H139245   4.879   8.730   5.158
13103TIP3    H239246   4.801   8.862   5.154
13104TIP3   OH239247   4.707   8.302   4.415
13104TIP3    H139248   4.637   8.308   4.345
13104TIP3    H239249   4.678   8.377   4.472
13105TIP3   OH239250   4.585   7.973   4.369
13105TIP3    H139251   4.526   8.017   4.306
13105TIP3    H239252   4.560   7.879   4.357
13106TIP3   OH239253   4.587   8.255   4.917
13106TIP3    H139254   4.590   8.159   4.894
13106TIP3    H239255   4.610   8.256   5.012
13107TIP3   OH239256   3.208   8.331   5.667
13107TIP3    H139257   3.205   8.295   5.576
13107TIP3    H239258   3.305   8.332   5.683
13108TIP3   OH239259   4.875   8.678   5.787
13108TIP3    H139260   4.949   8.616   5.770
13108TIP3    H239261   4.891   8.746   5.719
13109TIP3   OH239262   5.069   8.486   5.791
13109TIP3    H139263   4.989   8.437   5.822
13109TIP3    H239264   5.135   8.413   5.801
13110TIP3   OH239265   4.520   7.707   4.352
13110TIP3    H139266   4.592   7.678   4.412
13110TIP3    H239267   4.445   7.652   4.378
13111TIP3   OH239268   4.599   7.987   4.815
13111TIP3    H139269   4.626   7.896   4.837
13111TIP3    H239270   4.656   8.005   4.738
13112TIP3   OH239271   4.752   8.213   5.302
13112TIP3    H139272   4.775   8.166   5.234
13112TIP3    H239273   4.750   8.155   5.366
13113TIP3   OH239274   4.820   8.296   5.557
13113TIP3    H139275   4.728   8.323   5.581
13113TIP3    H239276   4.837   8.359   5.484
13114TIP3   OH239277   3.427   8.012   6.341
13114TIP3    H139278   3.525   8.005   6.343
13114TIP3    H239279   3.404   7.925   6.380
13115TIP3   OH239280   5.264   7.877   6.087
13115TIP3    H139281   5.323   7.812   6.042
13115TIP3    H239282   5.230   7.928   6.009
13116TIP3   OH239283   4.682   7.720   4.852
13116TIP3    H139284   4.734   7.698   4.932
13116TIP3    H239285   4.621   7.644   4.848
13117TIP3   OH239286   3.388   7.706   5.675
13117TIP3    H139287   3.450   7.630   5.681
13117TIP3    H239288   3.451   7.780   5.663
13118TIP3   OH239289   3.190   7.979   5.741
13118TIP3    H139290   3.238   7.971   5.657
13118TIP3    H239291   3.223   8.064   5.773
13119TIP3   OH239292   5.131   8.015   5.896
13119TIP3    H139293   5.040   8.049   5.910
13119TIP3    H239294   5.113   7.952   5.824
13120TIP3   OH239295   4.766   7.651   4.485
13120TIP3    H139296   4.805   7.581   4.429
13120TIP3    H239297   4.831   7.723   4.479
13121TIP3   OH239298   3.175   7.478   5.242
13121TIP3    H139299   3.082   7.476   5.272
13121TIP3    H239300   3.169   7.538   5.165
13122TIP3   OH239301   3.396   7.563   6.059
13122TIP3    H139302   3.343   7.557   6.140
13122TIP3    H239303   3.330   7.600   5.997
13123TIP3   OH239304   4.236   7.694   5.405
13123TIP3    H139305   4.191   7.623   5.455
13123TIP3    H239306   4.296   7.642   5.348
13124TIP3   OH239307   4.759   7.569   5.301
13124TIP3    H139308   4.797   7.620   5.226
13124TIP3    H239309   4.664   7.588   5.293
13125TIP3   OH239310   4.851   7.679   5.067
13125TIP3    H139311   4.924   7.623   5.032
13125TIP3    H239312   4.890   7.768   5.049
13126TIP3   OH239313   3.479   7.408   5.414
13126TIP3    H139314   3.386   7.376   5.416
13126TIP3    H239315   3.526   7.322   5.413
13127TIP3   OH239316   3.267   7.275   5.061
13127TIP3    H139317   3.301   7.333   4.991
13127TIP3    H239318   3.242   7.340   5.130
13128TIP3   OH239319   3.917   7.469   5.281
13128TIP3    H139320   3.989   7.499   5.223
13128TIP3    H239321   3.960   7.467   5.368
13129TIP3   OH239322   4.475   7.584   5.272
13129TIP3    H139323   4.472   7.536   5.188
13129TIP3    H239324   4.465   7.508   5.335
13130TIP3   OH239325   4.504   7.500   4.845
13130TIP3    H139326   4.418   7.545   4.853
13130TIP3    H239327   4.484   7.417   4.893
13131TIP3   OH239328   3.392   7.435   4.824
13131TIP3    H139329   3.442   7.372   4.769
13131TIP3    H239330   3.465   7.490   4.861
13132TIP3   OH239331   3.900   7.603   4.922
13132TIP3    H139332   3.958   7.547   4.976
13132TIP3    H239333   3.925   7.692   4.956
13133TIP3   OH239334   3.692   7.684   6.306
13133TIP3    H139335   3.658   7.612   6.363
13133TIP3    H239336   3.786   7.684   6.333
13134TIP3   OH239337   3.942   7.682   6.423
13134TIP3    H139338   4.027   7.659   6.382
13134TIP3    H239339   3.932   7.610   6.488
13135TIP3   OH239340   4.765   7.744   6.209
13135TIP3    H139341   4.788   7.714   6.300
13135TIP3    H239342   4.852   7.740   6.164
13136TIP3   OH239343   5.976   8.652   4.477
13136TIP3    H139344   5.940   8.739   4.449
13136TIP3    H239345   5.903   8.595   4.445
13137TIP3   OH239346   5.961   8.664   4.858
13137TIP3    H139347   5.997   8.635   4.944
13137TIP3    H239348   5.922   8.581   4.827
13138TIP3   OH239349   5.270   8.559   5.215
13138TIP3    H139350   5.298   8.490   5.278
13138TIP3    H239351   5.346   8.619   5.219
13139TIP3   OH239352   6.188   8.964   4.547
13139TIP3    H139353   6.185   8.890   4.612
13139TIP3    H239354   6.247   9.025   4.594
13140TIP3   OH239355   5.291   8.918   5.007
13140TIP3    H139356   5.267   8.826   4.982
13140TIP3    H239357   5.379   8.926   4.962
13141TIP3   OH239358   4.950   8.170   4.721
13141TIP3    H139359   4.905   8.255   4.740
13141TIP3    H239360   4.877   8.123   4.676
13142TIP3   OH239361   5.006   8.462   4.898
13142TIP3    H139362   5.056   8.385   4.933
13142TIP3    H239363   5.078   8.516   4.862
13143TIP3   OH239364   5.784   8.886   4.883
13143TIP3    H139365   5.830   8.803   4.857
13143TIP3    H239366   5.860   8.943   4.901
13144TIP3   OH239367   6.782   8.209   4.904
13144TIP3    H139368   6.800   8.293   4.950
13144TIP3    H239369   6.811   8.229   4.814
13145TIP3   OH239370   6.181   8.398   4.928
13145TIP3    H139371   6.226   8.314   4.950
13145TIP3    H239372   6.150   8.378   4.838
13146TIP3   OH239373   5.526   8.055   4.894
13146TIP3    H139374   5.503   8.128   4.832
13146TIP3    H239375   5.475   7.982   4.852
13147TIP3   OH239376   6.218   8.146   4.516
13147TIP3    H139377   6.289   8.132   4.583
13147TIP3    H239378   6.271   8.181   4.442
13148TIP3   OH239379   5.156   8.260   5.001
13148TIP3    H139380   5.236   8.238   5.054
13148TIP3    H239381   5.170   8.201   4.924
13149TIP3   OH239382   5.596   8.454   4.796
13149TIP3    H139383   5.689   8.428   4.811
13149TIP3    H239384   5.556   8.369   4.767
13150TIP3   OH239385   5.518   8.039   5.331
13150TIP3    H139386   5.459   8.076   5.263
13150TIP3    H239387   5.465   8.055   5.412
13151TIP3   OH239388   5.859   8.855   4.336
13151TIP3    H139389   5.806   8.853   4.256
13151TIP3    H239390   5.879   8.950   4.348
13152TIP3   OH239391   5.620   8.819   5.124
13152TIP3    H139392   5.569   8.887   5.173
13152TIP3    H239393   5.659   8.873   5.053
13153TIP3   OH239394   6.422   8.152   4.695
13153TIP3    H139395   6.404   8.110   4.780
13153TIP3    H239396   6.475   8.230   4.722
13154TIP3   OH239397   5.390   8.152   5.113
13154TIP3    H139398   5.449   8.227   5.138
13154TIP3    H239399   5.442   8.113   5.039
13155TIP3   OH239400   5.450   9.027   5.229
13155TIP3    H139401   5.410   9.024   5.140
13155TIP3    H239402   5.368   9.026   5.284
13156TIP3   OH239403   4.848   8.665   4.467
13156TIP3    H139404   4.809   8.682   4.379
13156TIP3    H239405   4.860   8.757   4.496
13157TIP3   OH239406   6.561   8.101   5.056
13157TIP3    H139407   6.478   8.132   5.014
13157TIP3    H239408   6.630   8.138   4.997
13158TIP3   OH239409   5.871   7.754   5.048
13158TIP3    H139410   5.854   7.659   5.066
13158TIP3    H239411   5.794   7.794   5.094
13159TIP3   OH239412   6.215   8.982   4.260
13159TIP3    H139413   6.186   8.900   4.215
13159TIP3    H239414   6.227   8.953   4.352
13160TIP3   OH239415   5.805   8.513   4.307
13160TIP3    H139416   5.724   8.565   4.289
13160TIP3    H239417   5.849   8.514   4.220
13161TIP3   OH239418   5.761   8.309   4.013
13161TIP3    H139419   5.829   8.358   4.063
13161TIP3    H239420   5.818   8.244   3.966
13162TIP3   OH239421   6.152   8.595   4.277
13162TIP3    H139422   6.098   8.616   4.357
13162TIP3    H239423   6.236   8.569   4.319
13163TIP3   OH239424   5.391   8.597   4.679
13163TIP3    H139425   5.349   8.536   4.615
13163TIP3    H239426   5.466   8.544   4.713
13164TIP3   OH239427   5.521   8.973   4.880
13164TIP3    H139428   5.481   8.965   4.791
13164TIP3    H239429   5.616   8.952   4.864
13165TIP3   OH239430   5.515   8.575   5.038
13165TIP3    H139431   5.553   8.552   4.951
13165TIP3    H239432   5.558   8.661   5.060
13166TIP3   OH239433   5.583   9.038   5.492
13166TIP3    H139434   5.592   9.131   5.461
13166TIP3    H239435   5.566   8.996   5.405
13167TIP3   OH239436   5.986   8.461   4.101
13167TIP3    H139437   6.047   8.519   4.152
13167TIP3    H239438   6.016   8.480   4.008
13168TIP3   OH239439   5.407   8.670   5.466
13168TIP3    H139440   5.407   8.755   5.513
13168TIP3    H239441   5.312   8.646   5.477
13169TIP3   OH239442   6.506   7.700   4.148
13169TIP3    H139443   6.425   7.722   4.198
13169TIP3    H239444   6.520   7.782   4.098
13170TIP3   OH239445   5.256   8.440   4.487
13170TIP3    H139446   5.185   8.483   4.435
13170TIP3    H239447   5.214   8.357   4.512
13171TIP3   OH239448   5.046   8.830   5.400
13171TIP3    H139449   4.969   8.819   5.340
13171TIP3    H239450   5.072   8.738   5.420
13172TIP3   OH239451   5.234   9.029   5.402
13172TIP3    H139452   5.279   8.979   5.473
13172TIP3    H239453   5.156   8.969   5.388
13173TIP3   OH239454   5.634   7.833   5.177
13173TIP3    H139455   5.545   7.804   5.148
13173TIP3    H239456   5.608   7.914   5.226
13174TIP3   OH239457   6.163   7.947   5.373
13174TIP3    H139458   6.223   7.917   5.444
13174TIP3    H239459   6.075   7.930   5.412
13175TIP3   OH239460   6.069   8.492   3.845
13175TIP3    H139461   6.037   8.470   3.756
13175TIP3    H239462   6.142   8.553   3.824
13176TIP3   OH239463   5.779   7.880   4.146
13176TIP3    H139464   5.745   7.878   4.238
13176TIP3    H239465   5.739   7.798   4.112
13177TIP3   OH239466   5.565   8.351   5.188
13177TIP3    H139467   5.519   8.371   5.273
13177TIP3    H239468   5.547   8.434   5.138
13178TIP3   OH239469   5.449   8.236   4.707
13178TIP3    H139470   5.356   8.209   4.727
13178TIP3    H239471   5.460   8.194   4.618
13179TIP3   OH239472   5.942   8.316   4.438
13179TIP3    H139473   5.889   8.386   4.393
13179TIP3    H239474   5.998   8.283   4.364
13180TIP3   OH239475   6.096   8.345   4.672
13180TIP3    H139476   6.033   8.372   4.602
13180TIP3    H239477   6.132   8.265   4.628
13181TIP3   OH239478   5.384   8.374   5.398
13181TIP3    H139479   5.421   8.438   5.462
13181TIP3    H239480   5.370   8.294   5.454
13182TIP3   OH239481   5.436   7.857   4.111
13182TIP3    H139482   5.426   7.854   4.208
13182TIP3    H239483   5.357   7.908   4.086
13183TIP3   OH239484   4.976   7.902   4.984
13183TIP3    H139485   5.051   7.936   5.038
13183TIP3    H239486   5.017   7.876   4.901
13184TIP3   OH239487   4.943   7.879   4.500
13184TIP3    H139488   4.989   7.918   4.422
13184TIP3    H239489   4.883   7.953   4.522
13185TIP3   OH239490   6.078   8.588   5.095
13185TIP3    H139491   6.127   8.522   5.040
13185TIP3    H239492   6.052   8.531   5.170
13186TIP3   OH239493   5.781   8.055   4.767
13186TIP3    H139494   5.700   8.055   4.822
13186TIP3    H239495   5.851   8.051   4.835
13187TIP3   OH239496   5.212   8.115   4.775
13187TIP3    H139497   5.117   8.121   4.748
13187TIP3    H239498   5.235   8.022   4.753
13188TIP3   OH239499   5.476   8.106   4.467
13188TIP3    H139500   5.570   8.123   4.445
13188TIP3    H239501   5.429   8.130   4.384
13189TIP3   OH239502   6.270   8.133   4.964
13189TIP3    H139503   6.246   8.145   5.059
13189TIP3    H239504   6.198   8.075   4.934
13190TIP3   OH239505   5.326   8.144   4.243
13190TIP3    H139506   5.254   8.098   4.195
13190TIP3    H239507   5.377   8.180   4.167
13191TIP3   OH239508   5.376   8.907   5.601
13191TIP3    H139509   5.460   8.957   5.592
13191TIP3    H239510   5.347   8.922   5.693
13192TIP3   OH239511   5.859   8.388   4.865
13192TIP3    H139512   5.933   8.344   4.820
13192TIP3    H239513   5.861   8.344   4.953
13193TIP3   OH239514   5.378   7.872   4.749
13193TIP3    H139515   5.342   7.795   4.798
13193TIP3    H239516   5.425   7.828   4.677
13194TIP3   OH239517   5.830   8.281   5.145
13194TIP3    H139518   5.741   8.317   5.164
13194TIP3    H239519   5.889   8.336   5.201
13195TIP3   OH239520   5.574   8.659   4.258
13195TIP3    H139521   5.497   8.600   4.245
13195TIP3    H239522   5.550   8.705   4.342
13196TIP3   OH239523   6.030   7.983   4.116
13196TIP3    H139524   5.934   7.964   4.126
13196TIP3    H239525   6.037   8.077   4.141
13197TIP3   OH239526   6.099   8.232   4.219
13197TIP3    H139527   6.195   8.238   4.234
13197TIP3    H239528   6.081   8.313   4.167
13198TIP3   OH239529   5.251   8.653   4.914
13198TIP3    H139530   5.303   8.641   4.832
13198TIP3    H239531   5.306   8.608   4.981
13199TIP3   OH239532   5.678   8.843   4.085
13199TIP3    H139533   5.640   8.912   4.144
13199TIP3    H239534   5.645   8.763   4.133
13200TIP3   OH239535   5.146   8.600   5.540
13200TIP3    H139536   5.145   8.577   5.635
13200TIP3    H239537   5.072   8.545   5.507
13201TIP3   OH239538   6.537   8.326   4.050
13201TIP3    H139539   6.477   8.281   3.987
13201TIP3    H239540   6.531   8.416   4.011
13202TIP3   OH239541   6.200   8.782   4.768
13202TIP3    H139542   6.117   8.731   4.785
13202TIP3    H239543   6.263   8.709   4.752
13203TIP3   OH239544   4.929   8.301   4.252
13203TIP3    H139545   4.976   8.384   4.275
13203TIP3    H239546   4.852   8.306   4.313
13204TIP3   OH239547   5.498   8.782   4.497
13204TIP3    H139548   5.451   8.855   4.541
13204TIP3    H239549   5.476   8.712   4.562
13205TIP3   OH239550   6.042   8.964   4.978
13205TIP3    H139551   6.014   8.905   5.051
13205TIP3    H239552   6.101   8.906   4.926
13206TIP3   OH239553   6.027   8.817   3.832
13206TIP3    H139554   6.065   8.800   3.922
13206TIP3    H239555   5.941   8.855   3.854
13207TIP3   OH239556   5.353   8.119   5.541
13207TIP3    H139557   5.256   8.126   5.552
13207TIP3    H239558   5.376   8.061   5.615
13208TIP3   OH239559   6.155   8.777   4.075
13208TIP3    H139560   6.153   8.707   4.144
13208TIP3    H239561   6.253   8.781   4.058
13209TIP3   OH239562   5.374   8.804   3.905
13209TIP3    H139563   5.387   8.707   3.889
13209TIP3    H239564   5.361   8.807   4.001
13210TIP3   OH239565   5.050   8.542   4.333
13210TIP3    H139566   4.983   8.577   4.396
13210TIP3    H239567   5.056   8.617   4.270
13211TIP3   OH239568   6.211   8.178   5.225
13211TIP3    H139569   6.252   8.238   5.290
13211TIP3    H239570   6.186   8.101   5.280
13212TIP3   OH239571   6.078   7.932   4.398
13212TIP3    H139572   6.064   7.956   4.304
13212TIP3    H239573   6.118   8.014   4.434
13213TIP3   OH239574   5.760   8.117   4.498
13213TIP3    H139575   5.826   8.188   4.482
13213TIP3    H239576   5.766   8.108   4.596
13214TIP3   OH239577   6.008   8.423   5.305
13214TIP3    H139578   5.986   8.445   5.397
13214TIP3    H239579   6.097   8.387   5.319
13215TIP3   OH239580   5.906   7.837   4.598
13215TIP3    H139581   5.899   7.914   4.657
13215TIP3    H239582   5.968   7.872   4.530
13216TIP3   OH239583   5.420   7.841   4.387
13216TIP3    H139584   5.416   7.931   4.426
13216TIP3    H239585   5.516   7.825   4.395
13217TIP3   OH239586   6.323   8.529   4.673
13217TIP3    H139587   6.247   8.470   4.688
13217TIP3    H239588   6.394   8.484   4.724
13218TIP3   OH239589   5.040   8.759   4.149
13218TIP3    H139590   5.069   8.851   4.138
13218TIP3    H239591   5.095   8.711   4.084
13219TIP3   OH239592   4.981   8.031   4.274
13219TIP3    H139593   4.977   8.129   4.274
13219TIP3    H239594   4.899   8.007   4.230
13220TIP3   OH239595   5.370   7.754   5.146
13220TIP3    H139596   5.338   7.719   5.060
13220TIP3    H239597   5.359   7.676   5.205
13221TIP3   OH239598   5.191   8.893   5.813
13221TIP3    H139599   5.224   8.803   5.791
13221TIP3    H239600   5.108   8.898   5.761
13222TIP3   OH239601   5.173   8.567   4.003
13222TIP3    H139602   5.218   8.527   4.080
13222TIP3    H239603   5.243   8.558   3.935
13223TIP3   OH239604   5.651   8.755   3.775
13223TIP3    H139605   5.643   8.775   3.869
13223TIP3    H239606   5.670   8.659   3.778
13224TIP3   OH239607   5.330   8.657   5.801
13224TIP3    H139608   5.390   8.590   5.765
13224TIP3    H239609   5.306   8.617   5.885
13225TIP3   OH239610   5.370   8.474   4.211
13225TIP3    H139611   5.345   8.436   4.297
13225TIP3    H239612   5.411   8.398   4.166
13226TIP3   OH239613   5.643   8.526   5.437
13226TIP3    H139614   5.570   8.592   5.441
13226TIP3    H239615   5.704   8.570   5.374
13227TIP3   OH239616   5.484   8.271   4.058
13227TIP3    H139617   5.459   8.270   3.963
13227TIP3    H239618   5.582   8.275   4.050
13228TIP3   OH239619   6.295   8.607   3.720
13228TIP3    H139620   6.278   8.557   3.638
13228TIP3    H239621   6.277   8.698   3.687
13229TIP3   OH239622   5.757   8.321   5.573
13229TIP3    H139623   5.764   8.245   5.512
13229TIP3    H239624   5.717   8.390   5.514
13230TIP3   OH239625   5.777   8.114   5.376
13230TIP3    H139626   5.803   8.156   5.292
13230TIP3    H239627   5.683   8.092   5.359
13231TIP3   OH239628   5.794   8.646   5.248
13231TIP3    H139629   5.876   8.651   5.198
13231TIP3    H239630   5.739   8.716   5.207
13232TIP3   OH239631   5.644   8.437   5.797
13232TIP3    H139632   5.573   8.371   5.815
13232TIP3    H239633   5.675   8.405   5.709
13233TIP3   OH239634   5.905   7.877   5.445
13233TIP3    H139635   5.856   7.959   5.422
13233TIP3    H239636   5.835   7.809   5.435
13234TIP3   OH239637   6.030   8.382   5.592
13234TIP3    H139638   6.061   8.399   5.682
13234TIP3    H239639   5.937   8.356   5.606
13235TIP3   OH239640   5.492   8.211   5.845
13235TIP3    H139641   5.492   8.118   5.816
13235TIP3    H239642   5.521   8.202   5.938
13236TIP3   OH239643   5.998   7.877   5.704
13236TIP3    H139644   6.068   7.810   5.693
13236TIP3    H239645   5.959   7.877   5.614
13237TIP3   OH239646   6.033   8.082   5.883
13237TIP3    H139647   6.022   8.013   5.814
13237TIP3    H239648   5.965   8.148   5.860
13238TIP3   OH239649   4.777   8.675   4.181
13238TIP3    H139650   4.866   8.706   4.154
13238TIP3    H239651   4.765   8.595   4.125
13239TIP3   OH239652   6.428   8.776   4.059
13239TIP3    H139653   6.498   8.838   4.027
13239TIP3    H239654   6.474   8.738   4.137
13240TIP3   OH239655   6.561   8.649   4.257
13240TIP3    H139656   6.502   8.607   4.323
13240TIP3    H239657   6.635   8.683   4.312
13241TIP3   OH239658   6.496   8.559   3.903
13241TIP3    H139659   6.424   8.568   3.837
13241TIP3    H239660   6.474   8.636   3.960
13242TIP3   OH239661   6.376   8.232   3.854
13242TIP3    H139662   6.327   8.268   3.779
13242TIP3    H239663   6.353   8.137   3.848
13243TIP3   OH239664   6.378   8.507   4.405
13243TIP3    H139665   6.388   8.411   4.399
13243TIP3    H239666   6.364   8.520   4.502
13244TIP3   OH239667   5.006   8.582   5.151
13244TIP3    H139668   5.002   8.547   5.060
13244TIP3    H239669   5.103   8.582   5.167
13245TIP3   OH239670   6.318   7.966   3.840
13245TIP3    H139671   6.392   7.935   3.897
13245TIP3    H239672   6.244   7.908   3.864
13246TIP3   OH239673   6.376   8.226   4.295
13246TIP3    H139674   6.418   8.138   4.311
13246TIP3    H239675   6.435   8.260   4.225
13247TIP3   OH239676   6.538   8.401   4.793
13247TIP3    H139677   6.622   8.428   4.751
13247TIP3    H239678   6.555   8.440   4.882
13248TIP3   OH239679   5.223   8.267   5.826
13248TIP3    H139680   5.321   8.267   5.833
13248TIP3    H239681   5.202   8.180   5.865
13249TIP3   OH239682   6.485   7.977   4.336
13249TIP3    H139683   6.534   7.961   4.420
13249TIP3    H239684   6.424   7.900   4.335
13250TIP3   OH239685   5.185   7.962   5.153
13250TIP3    H139686   5.247   7.888   5.165
13250TIP3    H239687   5.247   8.038   5.147
13251TIP3   OH239688   5.010   8.217   5.223
13251TIP3    H139689   5.039   8.243   5.129
13251TIP3    H239690   4.996   8.307   5.263
13252TIP3   OH239691   6.562   7.908   3.970
13252TIP3    H139692   6.603   7.837   3.916
13252TIP3    H239693   6.630   7.979   3.968
13253TIP3   OH239694   4.971   7.738   4.729
13253TIP3    H139695   4.877   7.734   4.755
13253TIP3    H239696   4.968   7.797   4.651
13254TIP3   OH239697   5.185   7.812   5.553
13254TIP3    H139698   5.139   7.762   5.624
13254TIP3    H239699   5.111   7.852   5.504
13255TIP3   OH239700   6.814   8.019   5.238
13255TIP3    H139701   6.719   8.002   5.238
13255TIP3    H239702   6.851   7.929   5.235
13256TIP3   OH239703   6.031   7.950   4.885
13256TIP3    H139704   5.991   7.878   4.936
13256TIP3    H239705   6.107   7.905   4.842
13257TIP3   OH239706   6.553   7.827   4.786
13257TIP3    H139707   6.590   7.881   4.713
13257TIP3    H239708   6.459   7.853   4.783
13258TIP3   OH239709   6.650   7.931   4.552
13258TIP3    H139710   6.724   7.879   4.515
13258TIP3    H239711   6.685   8.022   4.539
13259TIP3   OH239712   5.280   7.659   4.899
13259TIP3    H139713   5.188   7.626   4.903
13259TIP3    H239714   5.329   7.574   4.896
13260TIP3   OH239715   5.072   7.531   4.551
13260TIP3    H139716   5.099   7.588   4.477
13260TIP3    H239717   5.042   7.598   4.617
13261TIP3   OH239718   5.727   7.690   4.781
13261TIP3    H139719   5.784   7.740   4.720
13261TIP3    H239720   5.751   7.730   4.866
13262TIP3   OH239721   6.267   7.840   4.766
13262TIP3    H139722   6.272   7.800   4.678
13262TIP3    H239723   6.257   7.760   4.823
13263TIP3   OH239724   6.302   7.764   4.328
13263TIP3    H139725   6.217   7.808   4.346
13263TIP3    H239726   6.288   7.678   4.373
13264TIP3   OH239727   5.188   7.687   4.312
13264TIP3    H139728   5.235   7.625   4.254
13264TIP3    H239729   5.261   7.741   4.347
13265TIP3   OH239730   5.697   7.867   4.410
13265TIP3    H139731   5.756   7.820   4.471
13265TIP3    H239732   5.717   7.959   4.436
13266TIP3   OH239733   5.486   7.938   5.797
13266TIP3    H139734   5.452   7.862   5.848
13266TIP3    H239735   5.580   7.937   5.825
13267TIP3   OH239736   5.735   7.944   5.921
13267TIP3    H139737   5.822   7.922   5.882
13267TIP3    H239738   5.722   7.869   5.983
13268TIP3   OH239739   6.740   8.427   4.207
13268TIP3    H139740   6.699   8.512   4.228
13268TIP3    H239741   6.666   8.381   4.163
13269TIP3   OH239742   6.801   8.707   4.372
13269TIP3    H139743   6.850   8.642   4.426
13269TIP3    H239744   6.873   8.755   4.329
13270TIP3   OH239745   7.290   8.312   4.402
13270TIP3    H139746   7.288   8.383   4.336
13270TIP3    H239747   7.251   8.239   4.350
13271TIP3   OH239748   6.957   8.514   4.497
13271TIP3    H139749   7.052   8.519   4.518
13271TIP3    H239750   6.959   8.452   4.421
13272TIP3   OH239751   6.638   8.923   3.968
13272TIP3    H139752   6.619   8.943   3.874
13272TIP3    H239753   6.679   9.006   3.995
13273TIP3   OH239754   7.018   8.680   3.911
13273TIP3    H139755   7.025   8.770   3.950
13273TIP3    H239756   6.988   8.629   3.989
13274TIP3   OH239757   7.229   8.466   4.178
13274TIP3    H139758   7.143   8.440   4.215
13274TIP3    H239759   7.203   8.519   4.101
13275TIP3   OH239760   7.210   8.078   3.594
13275TIP3    H139761   7.207   8.081   3.692
13275TIP3    H239762   7.138   8.138   3.571
13276TIP3   OH239763   6.776   8.155   4.470
13276TIP3    H139764   6.850   8.190   4.524
13276TIP3    H239765   6.820   8.124   4.389
13277TIP3   OH239766   6.739   8.135   3.985
13277TIP3    H139767   6.787   8.171   3.907
13277TIP3    H239768   6.682   8.211   4.007
13278TIP3   OH239769   6.996   8.364   4.271
13278TIP3    H139770   6.902   8.371   4.240
13278TIP3    H239771   7.021   8.273   4.246
13279TIP3   OH239772   7.079   8.374   3.762
13279TIP3    H139773   7.008   8.335   3.707
13279TIP3    H239774   7.075   8.469   3.735
13280TIP3   OH239775   7.173   8.127   4.229
13280TIP3    H139776   7.137   8.051   4.281
13280TIP3    H239777   7.236   8.082   4.171
13281TIP3   OH239778   6.722   8.553   3.750
13281TIP3    H139779   6.764   8.637   3.771
13281TIP3    H239780   6.641   8.558   3.806
13282TIP3   OH239781   7.188   8.094   3.870
13282TIP3    H139782   7.170   8.186   3.895
13282TIP3    H239783   7.282   8.085   3.899
13283TIP3   OH239784   6.770   8.284   3.752
13283TIP3    H139785   6.767   8.381   3.760
13283TIP3    H239786   6.680   8.263   3.724
13284TIP3   OH239787   7.137   8.010   4.643
13284TIP3    H139788   7.134   7.975   4.552
13284TIP3    H239789   7.152   7.930   4.697
13285TIP3   OH239790   6.567   8.912   3.675
13285TIP3    H139791   6.623   8.976   3.628
13285TIP3    H239792   6.554   8.843   3.606
13286TIP3   OH239793   6.977   8.227   4.646
13286TIP3    H139794   7.031   8.145   4.650
13286TIP3    H239795   7.047   8.293   4.653
13287TIP3   OH239796   6.786   8.501   4.719
13287TIP3    H139797   6.837   8.478   4.639
13287TIP3    H239798   6.817   8.591   4.735
13288TIP3   OH239799   6.767   7.992   4.214
13288TIP3    H139800   6.675   7.990   4.245
13288TIP3    H239801   6.762   8.053   4.137
13289TIP3   OH239802   6.995   8.067   5.042
13289TIP3    H139803   6.931   8.069   5.117
13289TIP3    H239804   6.939   8.108   4.974
13290TIP3   OH239805   7.079   7.916   4.381
13290TIP3    H139806   6.987   7.884   4.388
13290TIP3    H239807   7.128   7.831   4.379
13291TIP3   OH239808   6.863   7.787   4.037
13291TIP3    H139809   6.893   7.842   3.963
13291TIP3    H239810   6.838   7.854   4.104
13292TIP3   OH239811   7.508   7.940   4.292
13292TIP3    H139812   7.585   7.984   4.252
13292TIP3    H239813   7.494   7.990   4.373
13293TIP3   OH239814   6.973   7.937   3.795
13293TIP3    H139815   7.023   7.876   3.739
13293TIP3    H239816   7.045   7.993   3.831
13294TIP3   OH239817   7.457   8.105   3.926
13294TIP3    H139818   7.500   8.029   3.882
13294TIP3    H239819   7.502   8.178   3.879
13295TIP3   OH239820   4.608   1.758   7.950
13295TIP3    H139821   4.629   1.851   7.924
13295TIP3    H239822   4.692   1.712   7.929
13296TIP3   OH239823   4.167   1.970   8.032
13296TIP3    H139824   4.220   1.890   8.016
13296TIP3    H239825   4.134   1.956   8.123
13297TIP3   OH239826   4.529   1.789   8.208
13297TIP3    H139827   4.510   1.692   8.212
13297TIP3    H239828   4.563   1.791   8.116
13298TIP3   OH239829   4.651   2.027   7.931
13298TIP3    H139830   4.688   2.103   7.882
13298TIP3    H239831   4.566   2.069   7.960
13299TIP3   OH239832   3.811   1.716   7.998
13299TIP3    H139833   3.828   1.632   8.046
13299TIP3    H239834   3.895   1.723   7.950
13300TIP3   OH239835   4.291   1.735   7.938
13300TIP3    H139836   4.365   1.692   7.985
13300TIP3    H239837   4.334   1.752   7.851
13301TIP3   OH239838   4.798   1.296   8.116
13301TIP3    H139839   4.706   1.288   8.087
13301TIP3    H239840   4.787   1.342   8.200
13302TIP3   OH239841   4.571   2.081   8.254
13302TIP3    H139842   4.567   1.984   8.241
13302TIP3    H239843   4.530   2.114   8.171
13303TIP3   OH239844   6.045   1.612   8.228
13303TIP3    H139845   6.021   1.700   8.192
13303TIP3    H239846   5.988   1.557   8.170
13304TIP3   OH239847   6.273   1.876   8.267
13304TIP3    H139848   6.201   1.842   8.323
13304TIP3    H239849   6.294   1.962   8.310
13305TIP3   OH239850   5.995   2.398   8.266
13305TIP3    H139851   6.036   2.316   8.232
13305TIP3    H239852   5.977   2.375   8.358
13306TIP3   OH239853   5.963   1.823   8.075
13306TIP3    H139854   5.922   1.804   7.989
13306TIP3    H239855   5.916   1.907   8.099
13307TIP3   OH239856   4.945   1.632   8.183
13307TIP3    H139857   4.884   1.630   8.107
13307TIP3    H239858   4.961   1.728   8.193
13308TIP3   OH239859   6.347   2.111   8.381
13308TIP3    H139860   6.266   2.125   8.434
13308TIP3    H239861   6.377   2.204   8.371
13309TIP3   OH239862   6.094   2.188   8.115
13309TIP3    H139863   6.142   2.106   8.087
13309TIP3    H239864   6.139   2.252   8.056
13310TIP3   OH239865   6.229   1.971   8.012
13310TIP3    H139866   6.191   1.899   7.959
13310TIP3    H239867   6.244   1.926   8.097
13311TIP3   OH239868   5.905   1.480   8.035
13311TIP3    H139869   5.819   1.522   8.014
13311TIP3    H239870   5.942   1.467   7.945
13312TIP3   OH239871   5.860   1.232   7.766
13312TIP3    H139872   5.931   1.289   7.800
13312TIP3    H239873   5.912   1.176   7.705
13313TIP3   OH239874   6.231   1.557   8.020
13313TIP3    H139875   6.168   1.590   8.086
13313TIP3    H239876   6.288   1.504   8.080
13314TIP3   OH239877   6.138   2.152   8.546
13314TIP3    H139878   6.190   2.216   8.598
13314TIP3    H239879   6.137   2.074   8.603
13315TIP3   OH239880   6.086   1.401   7.836
13315TIP3    H139881   6.144   1.464   7.883
13315TIP3    H239882   6.112   1.420   7.742
13316TIP3   OH239883   5.837   2.069   8.114
13316TIP3    H139884   5.914   2.125   8.134
13316TIP3    H239885   5.777   2.131   8.070
13317TIP3   OH239886   5.361   1.350   8.191
13317TIP3    H139887   5.285   1.401   8.155
13317TIP3    H239888   5.319   1.292   8.256
13318TIP3   OH239889   6.408   1.998   7.442
13318TIP3    H139890   6.416   2.095   7.424
13318TIP3    H239891   6.500   1.968   7.426
13319TIP3   OH239892   5.711   2.313   7.922
13319TIP3    H139893   5.664   2.301   7.837
13319TIP3    H239894   5.684   2.404   7.947
13320TIP3   OH239895   5.137   2.156   8.276
13320TIP3    H139896   5.136   2.088   8.345
13320TIP3    H239897   5.057   2.130   8.226
13321TIP3   OH239898   5.915   2.219   7.550
13321TIP3    H139899   5.974   2.148   7.517
13321TIP3    H239900   5.944   2.226   7.644
13322TIP3   OH239901   5.955   2.260   7.817
13322TIP3    H139902   5.869   2.269   7.862
13322TIP3    H239903   6.013   2.234   7.890
13323TIP3   OH239904   6.167   1.446   7.585
13323TIP3    H139905   6.128   1.413   7.501
13323TIP3    H239906   6.253   1.478   7.553
13324TIP3   OH239907   6.000   1.250   8.149
13324TIP3    H139908   5.964   1.335   8.113
13324TIP3    H239909   6.064   1.226   8.078
13325TIP3   OH239910   5.560   1.059   8.218
13325TIP3    H139911   5.648   1.041   8.179
13325TIP3    H239912   5.503   1.058   8.137
13326TIP3   OH239913   5.411   1.048   7.981
13326TIP3    H139914   5.350   1.023   7.908
13326TIP3    H239915   5.476   1.098   7.927
13327TIP3   OH239916   5.664   1.601   7.977
13327TIP3    H139917   5.593   1.535   7.962
13327TIP3    H239918   5.637   1.638   8.065
13328TIP3   OH239919   6.114   0.955   7.791
13328TIP3    H139920   6.045   0.903   7.838
13328TIP3    H239921   6.125   1.030   7.854
13329TIP3   OH239922   6.169   1.169   7.950
13329TIP3    H139923   6.266   1.172   7.963
13329TIP3    H239924   6.153   1.250   7.898
13330TIP3   OH239925   5.824   1.756   7.821
13330TIP3    H139926   5.773   1.841   7.822
13330TIP3    H239927   5.763   1.698   7.872
13331TIP3   OH239928   6.352   2.067   7.706
13331TIP3    H139929   6.307   2.000   7.760
13331TIP3    H239930   6.357   2.026   7.618
13332TIP3   OH239931   5.435   1.936   8.268
13332TIP3    H139932   5.494   2.010   8.243
13332TIP3    H239933   5.354   1.966   8.225
13333TIP3   OH239934   5.036   1.228   7.999
13333TIP3    H139935   5.085   1.311   8.018
13333TIP3    H239936   4.950   1.249   8.042
13334TIP3   OH239937   5.593   1.714   8.210
13334TIP3    H139938   5.546   1.795   8.237
13334TIP3    H239939   5.637   1.689   8.294
13335TIP3   OH239940   5.377   2.182   8.132
13335TIP3    H139941   5.289   2.190   8.175
13335TIP3    H239942   5.405   2.276   8.132
13336TIP3   OH239943   6.095   1.807   7.598
13336TIP3    H139944   6.144   1.781   7.680
13336TIP3    H239945   6.007   1.772   7.619
13337TIP3   OH239946   6.439   2.273   7.422
13337TIP3    H139947   6.476   2.345   7.369
13337TIP3    H239948   6.357   2.318   7.453
13338TIP3   OH239949   6.244   1.747   7.821
13338TIP3    H139950   6.235   1.678   7.890
13338TIP3    H239951   6.340   1.741   7.804
13339TIP3   OH239952   5.464   1.780   7.606
13339TIP3    H139953   5.475   1.687   7.577
13339TIP3    H239954   5.442   1.769   7.700
13340TIP3   OH239955   5.405   1.786   7.878
13340TIP3    H139956   5.478   1.757   7.935
13340TIP3    H239957   5.411   1.884   7.885
13341TIP3   OH239958   5.145   1.478   8.080
13341TIP3    H139959   5.073   1.524   8.129
13341TIP3    H239960   5.161   1.545   8.011
13342TIP3   OH239961   5.676   1.983   7.825
13342TIP3    H139962   5.588   2.007   7.859
13342TIP3    H239963   5.692   2.057   7.764
13343TIP3   OH239964   5.836   1.029   8.164
13343TIP3    H139965   5.880   1.113   8.138
13343TIP3    H239966   5.865   1.023   8.256
13344TIP3   OH239967   5.422   2.058   7.893
13344TIP3    H139968   5.393   2.126   7.828
13344TIP3    H239969   5.407   2.106   7.977
13345TIP3   OH239970   5.137   1.683   7.883
13345TIP3    H139971   5.209   1.748   7.891
13345TIP3    H239972   5.179   1.623   7.817
13346TIP3   OH239973   5.063   0.949   7.982
13346TIP3    H139974   5.069   1.046   7.982
13346TIP3    H239975   4.973   0.935   8.015
13347TIP3   OH239976   6.429   2.373   8.365
13347TIP3    H139977   6.381   2.409   8.286
13347TIP3    H239978   6.499   2.441   8.370
13348TIP3   OH239979   5.002   1.890   8.251
13348TIP3    H139980   4.967   1.935   8.331
13348TIP3    H239981   4.962   1.944   8.179
13349TIP3   OH239982   5.627   1.982   7.515
13349TIP3    H139983   5.571   1.911   7.554
13349TIP3    H239984   5.701   1.931   7.480
13350TIP3   OH239985   6.064   2.024   7.429
13350TIP3    H139986   6.098   1.953   7.487
13350TIP3    H239987   6.121   2.017   7.349
13351TIP3   OH239988   5.275   1.497   7.741
13351TIP3    H139989   5.333   1.465   7.813
13351TIP3    H239990   5.340   1.502   7.668
13352TIP3   OH239991   5.794   1.703   7.549
13352TIP3    H139992   5.790   1.713   7.647
13352TIP3    H239993   5.795   1.605   7.542
13353TIP3   OH239994   5.472   1.409   7.946
13353TIP3    H139995   5.447   1.379   8.037
13353TIP3    H239996   5.510   1.327   7.908
13354TIP3   OH239997   5.580   1.194   7.810
13354TIP3    H139998   5.553   1.200   7.716
13354TIP3    H239999   5.678   1.197   7.800
13355TIP3   OH240000   6.395   1.525   7.457
13355TIP3    H140001   6.373   1.481   7.373
13355TIP3    H240002   6.363   1.616   7.436
13356TIP3   OH240003   5.391   2.261   7.707
13356TIP3    H140004   5.486   2.254   7.685
13356TIP3    H240005   5.361   2.312   7.629
13357TIP3   OH240006   4.863   1.644   7.904
13357TIP3    H140007   4.959   1.663   7.899
13357TIP3    H240008   4.859   1.553   7.867
13358TIP3   OH240009   4.800   2.239   8.311
13358TIP3    H140010   4.716   2.200   8.280
13358TIP3    H240011   4.824   2.177   8.381
13359TIP3   OH240012   6.632   2.556   8.309
13359TIP3    H140013   6.644   2.636   8.364
13359TIP3    H240014   6.665   2.590   8.224
13360TIP3   OH240015   6.513   1.722   7.792
13360TIP3    H140016   6.574   1.787   7.751
13360TIP3    H240017   6.573   1.649   7.813
13361TIP3   OH240018   6.588   1.510   7.641
13361TIP3    H140019   6.527   1.478   7.570
13361TIP3    H240020   6.537   1.589   7.665
13362TIP3   OH240021   6.408   1.161   7.602
13362TIP3    H140022   6.440   1.222   7.535
13362TIP3    H240023   6.430   1.075   7.562
13363TIP3   OH240024   6.206   2.358   7.939
13363TIP3    H140025   6.257   2.352   7.857
13363TIP3    H240026   6.272   2.401   7.999
13364TIP3   OH240027   5.880   2.469   8.521
13364TIP3    H140028   5.794   2.488   8.481
13364TIP3    H240029   5.907   2.562   8.544
13365TIP3   OH240030   6.114   2.449   8.658
13365TIP3    H140031   6.049   2.452   8.585
13365TIP3    H240032   6.187   2.501   8.618
13366TIP3   OH240033   6.285   2.607   8.497
13366TIP3    H140034   6.336   2.680   8.536
13366TIP3    H240035   6.350   2.535   8.504
13367TIP3   OH240036   4.890   2.050   8.067
13367TIP3    H140037   4.807   2.011   8.032
13367TIP3    H240038   4.876   2.142   8.038
13368TIP3   OH240039   5.657   2.216   7.652
13368TIP3    H140040   5.743   2.241   7.613
13368TIP3    H240041   5.635   2.141   7.593
13369TIP3   OH240042   6.385   2.336   7.734
13369TIP3    H140043   6.378   2.238   7.725
13369TIP3    H240044   6.339   2.366   7.653
13370TIP3   OH240045   4.962   2.055   7.707
13370TIP3    H140046   4.965   2.076   7.801
13370TIP3    H240047   5.049   2.011   7.692
13371TIP3   OH240048   6.718   1.880   7.718
13371TIP3    H140049   6.701   1.897   7.624
13371TIP3    H240050   6.743   1.971   7.749
13372TIP3   OH240051   7.490   2.592   7.396
13372TIP3    H140052   7.456   2.557   7.311
13372TIP3    H240053   7.447   2.679   7.403
13373TIP3   OH240054   6.915   2.449   7.787
13373TIP3    H140055   6.981   2.381   7.816
13373TIP3    H240056   6.835   2.394   7.782
13374TIP3   OH240057   7.691   2.459   7.020
13374TIP3    H140058   7.729   2.377   6.982
13374TIP3    H240059   7.760   2.480   7.087
13375TIP3   OH240060   6.802   1.489   7.477
13375TIP3    H140061   6.841   1.579   7.488
13375TIP3    H240062   6.730   1.494   7.545
13376TIP3   OH240063   7.190   2.441   7.610
13376TIP3    H140064   7.119   2.420   7.674
13376TIP3    H240065   7.198   2.539   7.620
13377TIP3   OH240066   7.266   2.031   7.071
13377TIP3    H140067   7.271   1.936   7.049
13377TIP3    H240068   7.242   2.027   7.166
13378TIP3   OH240069   7.194   2.052   7.333
13378TIP3    H140070   7.223   2.019   7.420
13378TIP3    H240071   7.205   2.149   7.347
13379TIP3   OH240072   6.892   1.740   7.539
13379TIP3    H140073   6.870   1.788   7.620
13379TIP3    H240074   6.932   1.810   7.483
13380TIP3   OH240075   7.470   2.234   7.303
13380TIP3    H140076   7.385   2.266   7.339
13380TIP3    H240077   7.492   2.308   7.244
13381TIP3   OH240078   7.217   2.319   7.369
13381TIP3    H140079   7.183   2.391   7.311
13381TIP3    H240080   7.206   2.360   7.458
13382TIP3   OH240081   6.930   1.959   7.357
13382TIP3    H140082   7.000   2.027   7.361
13382TIP3    H240083   6.974   1.898   7.293
13383TIP3   OH240084   6.880   1.223   7.442
13383TIP3    H140085   6.854   1.311   7.475
13383TIP3    H240086   6.861   1.164   7.517
13384TIP3   OH240087   6.780   2.135   7.773
13384TIP3    H140088   6.706   2.196   7.788
13384TIP3    H240089   6.817   2.175   7.693
13385TIP3   OH240090   7.416   2.246   6.996
13385TIP3    H140091   7.363   2.170   7.030
13385TIP3    H240092   7.493   2.199   6.961
13386TIP3   OH240093   7.829   2.241   6.896
13386TIP3    H140094   7.906   2.266   6.953
13386TIP3    H240095   7.872   2.252   6.808
13387TIP3   OH240096   7.066   1.762   7.219
13387TIP3    H140097   7.114   1.724   7.295
13387TIP3    H240098   7.139   1.766   7.154
13388TIP3   OH240099   7.563   1.951   7.038
13388TIP3    H140100   7.552   1.984   7.128
13388TIP3    H240101   7.531   1.861   7.046
13389TIP3   OH240102   7.176   2.527   7.194
13389TIP3    H140103   7.272   2.516   7.176
13389TIP3    H240104   7.150   2.575   7.114
13390TIP3   OH240105   6.665   1.901   7.410
13390TIP3    H140106   6.759   1.927   7.392
13390TIP3    H240107   6.661   1.813   7.367
13391TIP3   OH240108   6.574   2.516   7.822
13391TIP3    H140109   6.512   2.455   7.776
13391TIP3    H240110   6.617   2.454   7.884
13392TIP3   OH240111   6.709   2.360   7.999
13392TIP3    H140112   6.733   2.293   8.064
13392TIP3    H240113   6.739   2.441   8.044
13393TIP3   OH240114   6.681   2.305   7.569
13393TIP3    H140115   6.600   2.262   7.536
13393TIP3    H240116   6.668   2.394   7.531
13394TIP3   OH240117   7.443   2.478   7.139
13394TIP3    H140118   7.531   2.498   7.100
13394TIP3    H240119   7.418   2.403   7.080
13395TIP3   OH240120   6.755   2.311   7.195
13395TIP3    H140121   6.761   2.333   7.289
13395TIP3    H240122   6.842   2.269   7.178
13396TIP3   OH240123   2.450   3.292   8.023
13396TIP3    H140124   2.457   3.389   8.019
13396TIP3    H240125   2.544   3.265   8.026
13397TIP3   OH240126   2.496   3.589   8.070
13397TIP3    H140127   2.539   3.673   8.040
13397TIP3    H240128   2.404   3.610   8.044
13398TIP3   OH240129   3.916   3.160   8.362
13398TIP3    H140130   3.866   3.242   8.345
13398TIP3    H240131   3.860   3.098   8.310
13399TIP3   OH240132   4.065   3.479   8.433
13399TIP3    H140133   4.110   3.394   8.454
13399TIP3    H240134   4.134   3.540   8.466
13400TIP3   OH240135   3.788   3.905   8.416
13400TIP3    H140136   3.852   3.840   8.379
13400TIP3    H240137   3.789   3.879   8.510
13401TIP3   OH240138   3.798   3.384   8.230
13401TIP3    H140139   3.771   3.350   8.142
13401TIP3    H240140   3.716   3.432   8.255
13402TIP3   OH240141   3.973   3.743   8.286
13402TIP3    H140142   4.016   3.682   8.223
13402TIP3    H240143   4.001   3.827   8.242
13403TIP3   OH240144   4.059   3.522   8.154
13403TIP3    H140145   4.052   3.457   8.080
13403TIP3    H240146   4.153   3.546   8.143
13404TIP3   OH240147   3.750   3.021   8.199
13404TIP3    H140148   3.660   3.055   8.178
13404TIP3    H240149   3.781   2.996   8.110
13405TIP3   OH240150   3.717   2.810   7.904
13405TIP3    H140151   3.795   2.853   7.944
13405TIP3    H240152   3.758   2.732   7.863
13406TIP3   OH240153   4.088   3.104   8.149
13406TIP3    H140154   4.037   3.104   8.232
13406TIP3    H240155   4.172   3.061   8.176
13407TIP3   OH240156   3.938   2.944   7.988
13407TIP3    H140157   3.991   3.011   8.037
13407TIP3    H240158   3.962   2.967   7.895
13408TIP3   OH240159   3.698   3.642   8.260
13408TIP3    H140160   3.691   3.726   8.307
13408TIP3    H240161   3.614   3.640   8.211
13409TIP3   OH240162   4.450   2.185   8.030
13409TIP3    H140163   4.361   2.200   8.070
13409TIP3    H240164   4.462   2.269   7.981
13410TIP3   OH240165   4.251   3.562   7.591
13410TIP3    H140166   4.262   3.658   7.573
13410TIP3    H240167   4.343   3.529   7.576
13411TIP3   OH240168   3.557   3.876   8.069
13411TIP3    H140169   3.507   3.851   7.989
13411TIP3    H240170   3.523   3.964   8.089
13412TIP3   OH240171   3.757   3.776   7.705
13412TIP3    H140172   3.814   3.704   7.670
13412TIP3    H240173   3.794   3.787   7.795
13413TIP3   OH240174   3.806   3.830   7.973
13413TIP3    H140175   3.717   3.838   8.015
13413TIP3    H240176   3.851   3.772   8.036
13414TIP3   OH240177   4.013   2.991   7.735
13414TIP3    H140178   3.972   2.970   7.648
13414TIP3    H240179   4.093   3.038   7.707
13415TIP3   OH240180   3.730   2.368   8.041
13415TIP3    H140181   3.664   2.397   8.106
13415TIP3    H240182   3.687   2.286   8.008
13416TIP3   OH240183   3.962   2.857   8.305
13416TIP3    H140184   3.870   2.871   8.277
13416TIP3    H240185   3.987   2.787   8.242
13417TIP3   OH240186   3.412   2.389   8.009
13417TIP3    H140187   3.383   2.352   8.092
13417TIP3    H240188   3.353   2.467   8.000
13418TIP3   OH240189   3.501   3.152   8.155
13418TIP3    H140190   3.428   3.087   8.152
13418TIP3    H240191   3.478   3.200   8.235
13419TIP3   OH240192   3.976   2.467   7.996
13419TIP3    H140193   3.880   2.447   8.012
13419TIP3    H240194   3.984   2.561   8.021
13420TIP3   OH240195   4.053   2.711   8.090
13420TIP3    H140196   4.150   2.716   8.101
13420TIP3    H240197   4.032   2.794   8.042
13421TIP3   OH240198   3.661   3.309   7.986
13421TIP3    H140199   3.613   3.394   7.981
13421TIP3    H240200   3.596   3.251   8.030
13422TIP3   OH240201   4.483   2.812   7.940
13422TIP3    H140202   4.421   2.769   7.876
13422TIP3    H240203   4.477   2.903   7.904
13423TIP3   OH240204   4.123   3.591   7.842
13423TIP3    H140205   4.193   3.634   7.898
13423TIP3    H240206   4.171   3.577   7.758
13424TIP3   OH240207   3.185   3.747   8.233
13424TIP3    H140208   3.172   3.689   8.310
13424TIP3    H240209   3.245   3.815   8.266
13425TIP3   OH240210   3.939   3.351   7.750
13425TIP3    H140211   3.991   3.351   7.833
13425TIP3    H240212   3.853   3.318   7.780
13426TIP3   OH240213   4.278   3.839   7.569
13426TIP3    H140214   4.259   3.888   7.487
13426TIP3    H240215   4.209   3.879   7.626
13427TIP3   OH240216   4.098   3.314   7.981
13427TIP3    H140217   4.092   3.236   8.040
13427TIP3    H240218   4.192   3.309   7.955
13428TIP3   OH240219   3.307   3.336   7.757
13428TIP3    H140220   3.314   3.242   7.729
13428TIP3    H240221   3.286   3.325   7.852
13429TIP3   OH240222   3.248   3.343   8.027
13429TIP3    H140223   3.281   3.323   8.116
13429TIP3    H240224   3.251   3.441   8.027
13430TIP3   OH240225   4.055   2.444   8.263
13430TIP3    H140226   4.026   2.455   8.170
13430TIP3    H240227   3.984   2.495   8.309
13431TIP3   OH240228   3.526   3.546   7.987
13431TIP3    H140229   3.432   3.562   8.008
13431TIP3    H240230   3.536   3.608   7.913
13432TIP3   OH240231   3.262   3.611   8.017
13432TIP3    H140232   3.234   3.683   7.955
13432TIP3    H240233   3.228   3.652   8.100
13433TIP3   OH240234   2.976   3.258   8.036
13433TIP3    H140235   3.055   3.315   8.042
13433TIP3    H240236   3.016   3.185   7.982
13434TIP3   OH240237   4.226   4.002   8.537
13434TIP3    H140238   4.194   4.046   8.456
13434TIP3    H240239   4.321   3.995   8.516
13435TIP3   OH240240   3.468   3.539   7.668
13435TIP3    H140241   3.412   3.466   7.704
13435TIP3    H240242   3.543   3.488   7.633
13436TIP3   OH240243   3.904   3.581   7.580
13436TIP3    H140244   3.951   3.527   7.647
13436TIP3    H240245   3.962   3.573   7.502
13437TIP3   OH240246   3.106   3.055   7.890
13437TIP3    H140247   3.140   2.984   7.948
13437TIP3    H240248   3.181   3.064   7.827
13438TIP3   OH240249   3.635   3.260   7.703
13438TIP3    H140250   3.627   3.266   7.800
13438TIP3    H240251   3.635   3.162   7.691
13439TIP3   OH240252   4.245   3.088   7.616
13439TIP3    H140253   4.223   3.043   7.532
13439TIP3    H240254   4.212   3.178   7.594
13440TIP3   OH240255   3.234   3.827   7.851
13440TIP3    H140256   3.329   3.817   7.832
13440TIP3    H240257   3.206   3.877   7.771
13441TIP3   OH240258   2.708   3.212   8.038
13441TIP3    H140259   2.805   3.227   8.044
13441TIP3    H240260   2.706   3.115   8.023
13442TIP3   OH240261   4.504   4.061   8.489
13442TIP3    H140262   4.521   4.128   8.556
13442TIP3    H240263   4.557   4.093   8.414
13443TIP3   OH240264   4.377   3.277   7.943
13443TIP3    H140265   4.443   3.342   7.910
13443TIP3    H240266   4.427   3.238   8.018
13444TIP3   OH240267   4.519   3.144   8.134
13444TIP3    H140268   4.448   3.096   8.182
13444TIP3    H240269   4.577   3.176   8.206
13445TIP3   OH240270   4.548   3.519   8.576
13445TIP3    H140271   4.624   3.463   8.547
13445TIP3    H240272   4.569   3.602   8.528
13446TIP3   OH240273   4.444   3.049   7.798
13446TIP3    H140274   4.373   3.051   7.730
13446TIP3    H240275   4.416   3.126   7.852
13447TIP3   OH240276   4.318   2.720   7.747
13447TIP3    H140277   4.268   2.757   7.674
13447TIP3    H240278   4.295   2.625   7.738
13448TIP3   OH240279   4.316   2.982   8.228
13448TIP3    H140280   4.319   2.885   8.206
13448TIP3    H240281   4.330   2.979   8.325
13449TIP3   OH240282   4.259   2.455   7.732
13449TIP3    H140283   4.327   2.421   7.792
13449TIP3    H240284   4.181   2.399   7.750
13450TIP3   OH240285   4.325   2.717   8.154
13450TIP3    H140286   4.353   2.627   8.184
13450TIP3    H240287   4.390   2.733   8.083
13451TIP3   OH240288   4.420   2.462   8.207
13451TIP3    H140289   4.453   2.450   8.299
13451TIP3    H240290   4.359   2.385   8.198
13452TIP3   OH240291   4.506   2.397   7.863
13452TIP3    H140292   4.543   2.328   7.804
13452TIP3    H240293   4.571   2.470   7.852
13453TIP3   OH240294   4.077   3.929   8.127
13453TIP3    H140295   4.147   3.877   8.081
13453TIP3    H240296   4.130   4.002   8.163
13454TIP3   OH240297   4.234   2.248   8.187
13454TIP3    H140298   4.156   2.308   8.199
13454TIP3    H240299   4.195   2.163   8.212
13455TIP3   OH240300   2.769   3.635   8.194
13455TIP3    H140301   2.686   3.598   8.162
13455TIP3    H240302   2.736   3.702   8.257
13456TIP3   OH240303   3.499   3.775   7.803
13456TIP3    H140304   3.587   3.797   7.765
13456TIP3    H240305   3.475   3.699   7.744
13457TIP3   OH240306   2.805   3.616   7.871
13457TIP3    H140307   2.813   3.626   7.967
13457TIP3    H240308   2.891   3.572   7.849
13458TIP3   OH240309   5.716   3.416   7.845
13458TIP3    H140310   5.684   3.507   7.825
13458TIP3    H240311   5.641   3.365   7.811
13459TIP3   OH240312   5.712   3.419   8.237
13459TIP3    H140313   5.748   3.396   8.325
13459TIP3    H240314   5.665   3.336   8.215
13460TIP3   OH240315   5.028   3.352   8.583
13460TIP3    H140316   5.041   3.280   8.648
13460TIP3    H240317   5.112   3.348   8.533
13461TIP3   OH240318   5.954   3.718   7.918
13461TIP3    H140319   5.931   3.655   7.987
13461TIP3    H240320   5.987   3.794   7.969
13462TIP3   OH240321   4.977   3.727   8.322
13462TIP3    H140322   4.965   3.630   8.314
13462TIP3    H240323   5.074   3.731   8.316
13463TIP3   OH240324   4.689   2.916   8.099
13463TIP3    H140325   4.649   3.004   8.110
13463TIP3    H240326   4.614   2.869   8.057
13464TIP3   OH240327   4.744   3.206   8.279
13464TIP3    H140328   4.794   3.131   8.319
13464TIP3    H240329   4.807   3.237   8.212
13465TIP3   OH240330   5.605   4.177   7.932
13465TIP3    H140331   5.648   4.106   7.880
13465TIP3    H240332   5.592   4.134   8.017
13466TIP3   OH240333   5.508   3.641   8.278
13466TIP3    H140334   5.545   3.563   8.233
13466TIP3    H240335   5.593   3.685   8.303
13467TIP3   OH240336   6.519   2.978   8.261
13467TIP3    H140337   6.549   3.061   8.306
13467TIP3    H240338   6.534   3.001   8.168
13468TIP3   OH240339   5.918   3.150   8.304
13468TIP3    H140340   5.928   3.078   8.368
13468TIP3    H240341   5.878   3.107   8.227
13469TIP3   OH240342   5.266   2.785   8.274
13469TIP3    H140343   5.244   2.866   8.224
13469TIP3    H240344   5.212   2.720   8.223
13470TIP3   OH240345   5.916   2.885   7.912
13470TIP3    H140346   5.957   2.839   7.987
13470TIP3    H240347   5.988   2.946   7.889
13471TIP3   OH240348   4.900   3.010   8.375
13471TIP3    H140349   4.951   2.967   8.447
13471TIP3    H240350   4.924   2.952   8.300
13472TIP3   OH240351   5.317   3.207   8.183
13472TIP3    H140352   5.413   3.192   8.197
13472TIP3    H240353   5.286   3.118   8.156
13473TIP3   OH240354   6.581   3.175   8.443
13473TIP3    H140355   6.498   3.225   8.431
13473TIP3    H240356   6.572   3.149   8.535
13474TIP3   OH240357   5.601   3.635   7.717
13474TIP3    H140358   5.558   3.614   7.633
13474TIP3    H240359   5.553   3.717   7.743
13475TIP3   OH240360   5.367   3.574   8.503
13475TIP3    H140361   5.300   3.641   8.531
13475TIP3    H240362   5.409   3.618   8.426
13476TIP3   OH240363   6.150   2.984   8.018
13476TIP3    H140364   6.166   2.898   8.061
13476TIP3    H240365   6.202   3.045   8.078
13477TIP3   OH240366   5.114   2.877   8.495
13477TIP3    H140367   5.176   2.953   8.497
13477TIP3    H240368   5.153   2.827   8.421
13478TIP3   OH240369   5.181   3.751   8.606
13478TIP3    H140370   5.149   3.838   8.571
13478TIP3    H240371   5.118   3.738   8.680
13479TIP3   OH240372   4.581   3.445   7.837
13479TIP3    H140373   4.538   3.473   7.754
13479TIP3    H240374   4.606   3.530   7.877
13480TIP3   OH240375   6.022   3.961   8.076
13480TIP3    H140376   5.932   3.951   8.117
13480TIP3    H240377   6.013   4.048   8.032
13481TIP3   OH240378   6.377   2.885   8.485
13481TIP3    H140379   6.283   2.872   8.465
13481TIP3    H240380   6.412   2.911   8.397
13482TIP3   OH240381   5.616   2.534   8.468
13482TIP3    H140382   5.596   2.443   8.500
13482TIP3    H240383   5.535   2.582   8.496
13483TIP3   OH240384   5.721   4.004   7.751
13483TIP3    H140385   5.772   3.922   7.733
13483TIP3    H240386   5.782   4.069   7.709
13484TIP3   OH240387   5.867   3.790   7.665
13484TIP3    H140388   5.827   3.710   7.627
13484TIP3    H240389   5.904   3.755   7.749
13485TIP3   OH240390   6.239   3.874   8.422
13485TIP3    H140391   6.235   3.793   8.366
13485TIP3    H240392   6.227   3.945   8.356
13486TIP3   OH240393   5.543   3.279   7.678
13486TIP3    H140394   5.455   3.323   7.654
13486TIP3    H240395   5.584   3.274   7.590
13487TIP3   OH240396   5.498   3.052   7.394
13487TIP3    H140397   5.567   3.104   7.441
13487TIP3    H240398   5.555   2.988   7.347
13488TIP3   OH240399   6.447   3.517   8.268
13488TIP3    H140400   6.361   3.565   8.274
13488TIP3    H240401   6.470   3.535   8.174
13489TIP3   OH240402   5.890   3.348   7.647
13489TIP3    H140403   5.835   3.373   7.725
13489TIP3    H240404   5.971   3.315   7.691
13490TIP3   OH240405   6.117   3.378   8.575
13490TIP3    H140406   6.121   3.459   8.631
13490TIP3    H240407   6.031   3.391   8.531
13491TIP3   OH240408   5.118   3.346   8.062
13491TIP3    H140409   5.078   3.285   7.997
13491TIP3    H240410   5.192   3.291   8.097
13492TIP3   OH240411   5.250   3.760   8.214
13492TIP3    H140412   5.226   3.721   8.129
13492TIP3    H240413   5.339   3.722   8.230
13493TIP3   OH240414   5.248   3.340   8.422
13493TIP3    H140415   5.276   3.311   8.332
13493TIP3    H240416   5.297   3.424   8.434
13494TIP3   OH240417   5.783   3.956   8.200
13494TIP3    H140418   5.766   4.032   8.259
13494TIP3    H240419   5.767   3.879   8.259
13495TIP3   OH240420   5.395   3.900   8.698
13495TIP3    H140421   5.348   3.943   8.770
13495TIP3    H240422   5.327   3.838   8.665
13496TIP3   OH240423   5.724   3.208   7.476
13496TIP3    H140424   5.785   3.266   7.527
13496TIP3    H240425   5.751   3.230   7.383
13497TIP3   OH240426   5.473   3.882   7.755
13497TIP3    H140427   5.555   3.935   7.763
13497TIP3    H240428   5.413   3.942   7.710
13498TIP3   OH240429   6.243   2.443   7.525
13498TIP3    H140430   6.161   2.465   7.575
13498TIP3    H240431   6.257   2.527   7.475
13499TIP3   OH240432   4.987   3.187   7.871
13499TIP3    H140433   4.918   3.232   7.818
13499TIP3    H240434   4.947   3.100   7.884
13500TIP3   OH240435   6.044   3.811   7.078
13500TIP3    H140436   6.052   3.908   7.061
13500TIP3    H240437   6.137   3.782   7.064
13501TIP3   OH240438   4.635   3.761   8.444
13501TIP3    H140439   4.713   3.758   8.388
13501TIP3    H240440   4.619   3.856   8.456
13502TIP3   OH240441   6.489   4.221   8.468
13502TIP3    H140442   6.490   4.123   8.482
13502TIP3    H240443   6.402   4.241   8.510
13503TIP3   OH240444   5.610   4.007   8.587
13503TIP3    H140445   5.606   4.097   8.625
13503TIP3    H240446   5.528   3.967   8.626
13504TIP3   OH240447   5.355   4.129   7.557
13504TIP3    H140448   5.307   4.108   7.474
13504TIP3    H240449   5.320   4.218   7.579
13505TIP3   OH240450   4.793   3.975   7.939
13505TIP3    H140451   4.835   3.968   8.028
13505TIP3    H240452   4.736   3.896   7.941
13506TIP3   OH240453   5.553   4.033   7.195
13506TIP3    H140454   5.611   3.962   7.159
13506TIP3    H240455   5.587   4.042   7.287
13507TIP3   OH240456   5.606   4.082   7.464
13507TIP3    H140457   5.517   4.090   7.506
13507TIP3    H240458   5.656   4.040   7.536
13508TIP3   OH240459   6.389   3.357   8.719
13508TIP3    H140460   6.294   3.368   8.699
13508TIP3    H240461   6.400   3.260   8.717
13509TIP3   OH240462   6.144   3.128   8.689
13509TIP3    H140463   6.120   3.145   8.781
13509TIP3    H240464   6.123   3.214   8.645
13510TIP3   OH240465   5.806   3.251   7.223
13510TIP3    H140466   5.769   3.227   7.136
13510TIP3    H240467   5.891   3.293   7.196
13511TIP3   OH240468   5.516   2.624   7.525
13511TIP3    H140469   5.479   2.621   7.616
13511TIP3    H240470   5.475   2.542   7.490
13512TIP3   OH240471   5.284   3.083   8.502
13512TIP3    H140472   5.322   3.078   8.592
13512TIP3    H240473   5.277   3.180   8.484
13513TIP3   OH240474   5.190   2.976   8.093
13513TIP3    H140475   5.097   2.951   8.112
13513TIP3    H240476   5.200   2.937   8.003
13514TIP3   OH240477   5.658   3.060   7.792
13514TIP3    H140478   5.621   3.137   7.758
13514TIP3    H240479   5.722   3.035   7.708
13515TIP3   OH240480   5.740   3.042   8.060
13515TIP3    H140481   5.701   3.084   7.981
13515TIP3    H240482   5.797   2.976   8.013
13516TIP3   OH240483   5.175   2.602   7.491
13516TIP3    H140484   5.162   2.599   7.588
13516TIP3    H240485   5.096   2.652   7.464
13517TIP3   OH240486   4.714   2.662   8.307
13517TIP3    H140487   4.753   2.745   8.274
13517TIP3    H240488   4.722   2.603   8.229
13518TIP3   OH240489   4.683   2.626   7.879
13518TIP3    H140490   4.727   2.664   7.800
13518TIP3    H240491   4.621   2.699   7.900
13519TIP3   OH240492   5.842   3.347   8.474
13519TIP3    H140493   5.875   3.274   8.417
13519TIP3    H240494   5.817   3.298   8.556
13520TIP3   OH240495   5.519   2.796   8.146
13520TIP3    H140496   5.430   2.778   8.182
13520TIP3    H240497   5.562   2.836   8.222
13521TIP3   OH240498   4.949   2.854   8.155
13521TIP3    H140499   4.858   2.866   8.119
13521TIP3    H240500   4.976   2.765   8.124
13522TIP3   OH240501   5.213   2.855   7.847
13522TIP3    H140502   5.306   2.866   7.823
13522TIP3    H240503   5.165   2.876   7.764
13523TIP3   OH240504   5.967   2.730   8.472
13523TIP3    H140505   5.961   2.823   8.501
13523TIP3    H240506   6.009   2.739   8.385
13524TIP3   OH240507   5.063   2.889   7.622
13524TIP3    H140508   4.993   2.841   7.574
13524TIP3    H240509   5.115   2.925   7.547
13525TIP3   OH240510   6.189   4.560   8.555
13525TIP3    H140511   6.191   4.583   8.461
13525TIP3    H240512   6.224   4.641   8.596
13526TIP3   OH240513   5.580   3.170   8.244
13526TIP3    H140514   5.637   3.110   8.193
13526TIP3    H240515   5.585   3.132   8.336
13527TIP3   OH240516   5.115   2.623   8.113
13527TIP3    H140517   5.073   2.546   8.160
13527TIP3    H240518   5.167   2.576   8.047
13528TIP3   OH240519   5.580   3.062   8.496
13528TIP3    H140520   5.491   3.035   8.524
13528TIP3    H240521   5.634   3.014   8.562
13529TIP3   OH240522   5.302   3.421   7.626
13529TIP3    H140523   5.232   3.353   7.617
13529TIP3    H240524   5.286   3.453   7.719
13530TIP3   OH240525   6.212   3.658   8.258
13530TIP3    H140526   6.235   3.705   8.176
13530TIP3    H240527   6.121   3.625   8.239
13531TIP3   OH240528   5.766   2.725   7.493
13531TIP3    H140529   5.669   2.708   7.503
13531TIP3    H240530   5.775   2.820   7.514
13532TIP3   OH240531   5.724   3.742   8.619
13532TIP3    H140532   5.703   3.685   8.694
13532TIP3    H240533   5.669   3.820   8.634
13533TIP3   OH240534   5.842   2.976   7.584
13533TIP3    H140535   5.937   2.980   7.606
13533TIP3    H240536   5.827   3.057   7.533
13534TIP3   OH240537   4.999   3.457   8.286
13534TIP3    H140538   5.040   3.418   8.207
13534TIP3    H240539   5.026   3.396   8.356
13535TIP3   OH240540   5.456   3.567   7.455
13535TIP3    H140541   5.409   3.653   7.459
13535TIP3    H240542   5.398   3.512   7.513
13536TIP3   OH240543   5.875   4.004   8.518
13536TIP3    H140544   5.779   3.985   8.527
13536TIP3    H240545   5.887   4.065   8.592
13537TIP3   OH240546   6.278   3.069   7.429
13537TIP3    H140547   6.216   3.026   7.365
13537TIP3    H240548   6.274   3.160   7.390
13538TIP3   OH240549   6.487   3.942   8.506
13538TIP3    H140550   6.392   3.921   8.491
13538TIP3    H240551   6.525   3.903   8.425
13539TIP3   OH240552   5.985   3.889   7.344
13539TIP3    H140553   5.953   3.820   7.404
13539TIP3    H240554   5.994   3.842   7.259
13540TIP3   OH240555   5.963   3.544   8.199
13540TIP3    H140556   5.876   3.500   8.201
13540TIP3    H240557   6.017   3.474   8.155
13541TIP3   OH240558   5.104   3.745   7.934
13541TIP3    H140559   5.099   3.824   7.877
13541TIP3    H240560   5.010   3.723   7.944
13542TIP3   OH240561   4.670   3.047   7.640
13542TIP3    H140562   4.713   3.133   7.660
13542TIP3    H240563   4.591   3.052   7.698
13543TIP3   OH240564   5.239   3.510   7.874
13543TIP3    H140565   5.204   3.599   7.894
13543TIP3    H240566   5.202   3.457   7.946
13544TIP3   OH240567   5.372   4.090   8.395
13544TIP3    H140568   5.413   4.163   8.344
13544TIP3    H240569   5.450   4.049   8.435
13545TIP3   OH240570   5.021   3.985   7.781
13545TIP3    H140571   4.936   3.986   7.830
13545TIP3    H240572   5.047   4.079   7.788
13546TIP3   OH240573   5.762   3.724   8.351
13546TIP3    H140574   5.761   3.721   8.450
13546TIP3    H240575   5.836   3.664   8.331
13547TIP3   OH240576   5.737   3.620   7.241
13547TIP3    H140577   5.790   3.594   7.320
13547TIP3    H240578   5.650   3.586   7.266
13548TIP3   OH240579   6.001   4.256   8.411
13548TIP3    H140580   5.924   4.199   8.392
13548TIP3    H240581   5.994   4.320   8.336
13549TIP3   OH240582   6.073   4.087   7.058
13549TIP3    H140583   6.106   4.158   7.001
13549TIP3    H240584   5.994   4.131   7.096
13550TIP3   OH240585   5.898   3.551   7.456
13550TIP3    H140586   5.887   3.483   7.525
13550TIP3    H240587   5.995   3.547   7.443
13551TIP3   OH240588   4.829   3.965   8.552
13551TIP3    H140589   4.859   3.873   8.553
13551TIP3    H240590   4.795   3.976   8.642
13552TIP3   OH240591   5.100   3.595   7.242
13552TIP3    H140592   5.111   3.503   7.213
13552TIP3    H240593   5.079   3.583   7.337
13553TIP3   OH240594   5.044   3.600   7.514
13553TIP3    H140595   5.119   3.570   7.568
13553TIP3    H240596   5.050   3.698   7.523
13554TIP3   OH240597   4.780   3.293   7.719
13554TIP3    H140598   4.712   3.337   7.774
13554TIP3    H240599   4.792   3.362   7.650
13555TIP3   OH240600   5.930   2.986   8.552
13555TIP3    H140601   5.990   3.012   8.624
13555TIP3    H240602   5.850   2.954   8.600
13556TIP3   OH240603   5.817   2.674   7.764
13556TIP3    H140604   5.800   2.694   7.670
13556TIP3    H240605   5.845   2.763   7.798
13557TIP3   OH240606   5.315   3.798   7.463
13557TIP3    H140607   5.228   3.822   7.499
13557TIP3    H240608   5.327   3.867   7.396
13558TIP3   OH240609   5.495   2.857   7.873
13558TIP3    H140610   5.559   2.927   7.844
13558TIP3    H240611   5.510   2.855   7.969
13559TIP3   OH240612   5.781   3.228   8.711
13559TIP3    H140613   5.806   3.281   8.790
13559TIP3    H240614   5.811   3.140   8.737
13560TIP3   OH240615   5.634   2.583   7.955
13560TIP3    H140616   5.621   2.654   8.020
13560TIP3    H240617   5.701   2.622   7.895
13561TIP3   OH240618   5.061   3.874   7.531
13561TIP3    H140619   5.028   3.944   7.470
13561TIP3    H240620   5.043   3.915   7.618
13562TIP3   OH240621   5.153   2.586   7.767
13562TIP3    H140622   5.150   2.675   7.807
13562TIP3    H240623   5.250   2.569   7.773
13563TIP3   OH240624   6.414   3.083   8.666
13563TIP3    H140625   6.316   3.092   8.673
13563TIP3    H240626   6.417   3.005   8.606
13564TIP3   OH240627   6.095   3.355   8.049
13564TIP3    H140628   6.018   3.328   7.996
13564TIP3    H240629   6.125   3.273   8.092
13565TIP3   OH240630   4.778   3.498   7.522
13565TIP3    H140631   4.852   3.561   7.530
13565TIP3    H240632   4.817   3.438   7.454
13566TIP3   OH240633   4.717   2.776   7.655
13566TIP3    H140634   4.716   2.874   7.654
13566TIP3    H240635   4.636   2.755   7.607
13567TIP3   OH240636   6.031   4.232   8.000
13567TIP3    H140637   5.988   4.278   7.924
13567TIP3    H240638   6.125   4.249   7.978
13568TIP3   OH240639   4.628   3.725   7.912
13568TIP3    H140640   4.546   3.730   7.966
13568TIP3    H240641   4.596   3.762   7.827
13569TIP3   OH240642   5.264   3.797   7.154
13569TIP3    H140643   5.208   3.725   7.191
13569TIP3    H240644   5.339   3.745   7.118
13570TIP3   OH240645   5.940   4.111   8.775
13570TIP3    H140646   5.983   4.024   8.763
13570TIP3    H240647   6.013   4.172   8.760
13571TIP3   OH240648   5.700   3.837   7.068
13571TIP3    H140649   5.737   3.768   7.127
13571TIP3    H240650   5.757   3.831   6.989
13572TIP3   OH240651   4.911   3.312   7.376
13572TIP3    H140652   4.967   3.279   7.449
13572TIP3    H240653   4.978   3.317   7.304
13573TIP3   OH240654   5.429   3.515   7.185
13573TIP3    H140655   5.427   3.526   7.282
13573TIP3    H240656   5.428   3.417   7.178
13574TIP3   OH240657   6.036   3.769   8.576
13574TIP3    H140658   6.110   3.806   8.523
13574TIP3    H240659   5.962   3.824   8.547
13575TIP3   OH240660   5.116   3.220   7.596
13575TIP3    H140661   5.088   3.178   7.679
13575TIP3    H240662   5.153   3.143   7.547
13576TIP3   OH240663   5.220   3.016   7.436
13576TIP3    H140664   5.194   3.021   7.342
13576TIP3    H240665   5.318   3.018   7.428
13577TIP3   OH240666   6.039   3.343   7.103
13577TIP3    H140667   6.019   3.298   7.019
13577TIP3    H240668   6.006   3.433   7.081
13578TIP3   OH240669   5.537   3.421   8.665
13578TIP3    H140670   5.610   3.374   8.622
13578TIP3    H240671   5.499   3.475   8.591
13579TIP3   OH240672   6.165   3.593   8.741
13579TIP3    H140673   6.107   3.656   8.692
13579TIP3    H240674   6.253   3.626   8.712
13580TIP3   OH240675   5.028   4.086   7.349
13580TIP3    H140676   5.122   4.072   7.327
13580TIP3    H240677   4.998   4.127   7.266
13581TIP3   OH240678   4.508   3.460   7.553
13581TIP3    H140679   4.604   3.477   7.541
13581TIP3    H240680   4.500   3.370   7.514
13582TIP3   OH240681   4.418   4.064   7.956
13582TIP3    H140682   4.359   3.986   7.951
13582TIP3    H240683   4.480   4.029   8.024
13583TIP3   OH240684   4.570   3.951   8.142
13583TIP3    H140685   4.508   3.876   8.151
13583TIP3    H240686   4.609   3.960   8.230
13584TIP3   OH240687   6.287   4.318   7.960
13584TIP3    H140688   6.305   4.341   8.053
13584TIP3    H240689   6.347   4.377   7.913
13585TIP3   OH240690   6.311   4.337   8.236
13585TIP3    H140691   6.268   4.248   8.239
13585TIP3    H240692   6.384   4.322   8.297
13586TIP3   OH240693   6.176   3.530   7.433
13586TIP3    H140694   6.244   3.594   7.403
13586TIP3    H240695   6.221   3.491   7.512
13587TIP3   OH240696   6.304   3.398   7.635
13587TIP3    H140697   6.237   3.354   7.692
13587TIP3    H240698   6.368   3.432   7.701
13588TIP3   OH240699   6.361   3.793   8.069
13588TIP3    H140700   6.414   3.723   8.025
13588TIP3    H240701   6.353   3.861   8.000
13589TIP3   OH240702   6.186   4.092   8.260
13589TIP3    H140703   6.113   4.127   8.314
13589TIP3    H240704   6.137   4.044   8.189
13590TIP3   OH240705   6.241   3.306   7.284
13590TIP3    H140706   6.169   3.307   7.217
13590TIP3    H240707   6.212   3.381   7.339
13591TIP3   OH240708   6.113   2.977   7.235
13591TIP3    H140709   6.066   3.011   7.158
13591TIP3    H240710   6.090   2.882   7.229
13592TIP3   OH240711   6.120   3.243   7.775
13592TIP3    H140712   6.124   3.146   7.758
13592TIP3    H240713   6.154   3.249   7.865
13593TIP3   OH240714   4.760   3.372   8.503
13593TIP3    H140715   4.751   3.313   8.426
13593TIP3    H240716   4.854   3.358   8.529
13594TIP3   OH240717   6.403   3.691   8.643
13594TIP3    H140718   6.474   3.625   8.635
13594TIP3    H240719   6.447   3.770   8.607
13595TIP3   OH240720   6.604   3.499   8.642
13595TIP3    H140721   6.529   3.440   8.666
13595TIP3    H240722   6.648   3.506   8.730
13596TIP3   OH240723   6.055   2.712   7.221
13596TIP3    H140724   6.126   2.678   7.280
13596TIP3    H240725   5.979   2.654   7.242
13597TIP3   OH240726   6.118   2.979   7.657
13597TIP3    H140727   6.154   2.890   7.685
13597TIP3    H240728   6.176   3.000   7.583
13598TIP3   OH240729   6.280   3.161   8.176
13598TIP3    H140730   6.369   3.184   8.140
13598TIP3    H240731   6.289   3.196   8.267
13599TIP3   OH240732   6.339   3.302   8.408
13599TIP3    H140733   6.264   3.335   8.462
13599TIP3    H240734   6.375   3.384   8.370
13600TIP3   OH240735   6.224   2.722   7.714
13600TIP3    H140736   6.270   2.704   7.798
13600TIP3    H240737   6.161   2.648   7.710
13601TIP3   OH240738   6.301   2.652   7.352
13601TIP3    H140739   6.339   2.582   7.294
13601TIP3    H240740   6.367   2.723   7.345
13602TIP3   OH240741   4.698   2.479   8.103
13602TIP3    H140742   4.603   2.464   8.119
13602TIP3    H240743   4.696   2.535   8.022
13603TIP3   OH240744   5.867   4.187   7.614
13603TIP3    H140745   5.923   4.177   7.535
13603TIP3    H240746   5.916   4.253   7.666
13604TIP3   OH240747   5.149   4.018   8.548
13604TIP3    H140748   5.093   4.090   8.513
13604TIP3    H240749   5.232   4.040   8.502
13605TIP3   OH240750   5.614   4.259   8.692
13605TIP3    H140751   5.665   4.274   8.773
13605TIP3    H240752   5.665   4.315   8.630
13606TIP3   OH240753   5.782   4.416   8.549
13606TIP3    H140754   5.842   4.363   8.494
13606TIP3    H240755   5.839   4.491   8.572
13607TIP3   OH240756   4.830   4.310   8.565
13607TIP3    H140757   4.743   4.343   8.534
13607TIP3    H240758   4.811   4.288   8.657
13608TIP3   OH240759   5.063   4.260   8.431
13608TIP3    H140760   4.978   4.279   8.477
13608TIP3    H240761   5.042   4.289   8.340
13609TIP3   OH240762   5.484   4.285   8.228
13609TIP3    H140763   5.415   4.305   8.162
13609TIP3    H240764   5.495   4.373   8.270
13610TIP3   OH240765   5.752   4.229   8.286
13610TIP3    H140766   5.658   4.244   8.263
13610TIP3    H240767   5.796   4.299   8.235
13611TIP3   OH240768   5.958   4.415   8.194
13611TIP3    H140769   5.944   4.500   8.148
13611TIP3    H240770   5.985   4.357   8.120
13612TIP3   OH240771   4.743   4.085   8.325
13612TIP3    H140772   4.781   4.060   8.412
13612TIP3    H240773   4.808   4.042   8.266
13613TIP3   OH240774   4.928   3.952   8.177
13613TIP3    H140775   4.941   3.867   8.226
13613TIP3    H240776   5.021   3.984   8.173
13614TIP3   OH240777   5.197   4.040   8.179
13614TIP3    H140778   5.225   3.947   8.169
13614TIP3    H240779   5.243   4.061   8.263
13615TIP3   OH240780   5.719   2.479   8.219
13615TIP3    H140781   5.701   2.515   8.307
13615TIP3    H240782   5.815   2.458   8.222
13616TIP3   OH240783   6.323   2.499   8.145
13616TIP3    H140784   6.347   2.572   8.085
13616TIP3    H240785   6.234   2.524   8.173
13617TIP3   OH240786   6.379   2.671   7.940
13617TIP3    H140787   6.452   2.619   7.898
13617TIP3    H240788   6.416   2.762   7.927
13618TIP3   OH240789   5.012   2.407   8.236
13618TIP3    H140790   4.922   2.377   8.260
13618TIP3    H240791   5.062   2.326   8.256
13619TIP3   OH240792   4.811   2.278   7.930
13619TIP3    H140793   4.839   2.335   7.856
13619TIP3    H240794   4.782   2.344   7.997
13620TIP3   OH240795   5.444   2.444   8.149
13620TIP3    H140796   5.516   2.471   8.089
13620TIP3    H240797   5.488   2.462   8.233
13621TIP3   OH240798   6.048   2.702   8.087
13621TIP3    H140799   6.054   2.658   8.001
13621TIP3    H240800   6.030   2.626   8.146
13622TIP3   OH240801   6.040   2.509   7.709
13622TIP3    H140802   5.953   2.554   7.720
13622TIP3    H240803   6.021   2.423   7.752
13623TIP3   OH240804   4.521   3.858   7.697
13623TIP3    H140805   4.440   3.834   7.647
13623TIP3    H240806   4.485   3.922   7.759
13624TIP3   OH240807   4.924   2.432   7.693
13624TIP3    H140808   4.971   2.369   7.634
13624TIP3    H240809   4.998   2.486   7.727
13625TIP3   OH240810   5.426   2.608   7.785
13625TIP3    H140811   5.489   2.561   7.843
13625TIP3    H240812   5.448   2.700   7.812
13626TIP3   OH240813   5.292   4.032   7.291
13626TIP3    H140814   5.380   4.055   7.253
13626TIP3    H240815   5.270   3.957   7.230
13627TIP3   OH240816   6.021   4.157   7.385
13627TIP3    H140817   6.012   4.059   7.375
13627TIP3    H240818   5.971   4.186   7.306
13628TIP3   OH240819   4.618   3.884   7.364
13628TIP3    H140820   4.609   3.854   7.456
13628TIP3    H240821   4.700   3.837   7.336
13629TIP3   OH240822   6.238   4.289   8.557
13629TIP3    H140823   6.155   4.269   8.509
13629TIP3    H240824   6.226   4.385   8.572
13630TIP3   OH240825   7.500   3.661   7.339
13630TIP3    H140826   7.479   3.755   7.323
13630TIP3    H240827   7.425   3.619   7.293
13631TIP3   OH240828   7.479   3.656   7.734
13631TIP3    H140829   7.570   3.626   7.752
13631TIP3    H240830   7.463   3.617   7.647
13632TIP3   OH240831   6.799   3.569   8.074
13632TIP3    H140832   6.827   3.501   8.139
13632TIP3    H240833   6.884   3.614   8.059
13633TIP3   OH240834   7.743   3.975   7.393
13633TIP3    H140835   7.737   3.896   7.451
13633TIP3    H240836   7.785   4.039   7.453
13634TIP3   OH240837   6.777   3.975   7.803
13634TIP3    H140838   6.768   3.877   7.804
13634TIP3    H240839   6.874   3.983   7.800
13635TIP3   OH240840   6.481   3.175   7.588
13635TIP3    H140841   6.434   3.259   7.605
13635TIP3    H240842   6.411   3.123   7.546
13636TIP3   OH240843   6.540   3.464   7.767
13636TIP3    H140844   6.590   3.387   7.802
13636TIP3    H240845   6.600   3.498   7.700
13637TIP3   OH240846   7.400   4.429   7.422
13637TIP3    H140847   7.440   4.359   7.366
13637TIP3    H240848   7.409   4.389   7.510
13638TIP3   OH240849   7.302   3.897   7.763
13638TIP3    H140850   7.343   3.811   7.743
13638TIP3    H240851   7.384   3.950   7.776
13639TIP3   OH240852   7.059   3.062   7.753
13639TIP3    H140853   7.033   3.133   7.691
13639TIP3    H240854   7.008   2.987   7.715
13640TIP3   OH240855   7.726   3.192   7.362
13640TIP3    H140856   7.789   3.125   7.402
13640TIP3    H240857   7.781   3.225   7.288
13641TIP3   OH240858   6.690   3.259   7.867
13641TIP3    H140859   6.774   3.240   7.913
13641TIP3    H240860   6.702   3.203   7.787
13642TIP3   OH240861   7.127   3.453   7.667
13642TIP3    H140862   7.219   3.422   7.679
13642TIP3    H240863   7.084   3.372   7.633
13643TIP3   OH240864   6.975   3.014   8.204
13643TIP3    H140865   6.968   3.080   8.133
13643TIP3    H240866   7.058   3.040   8.251
13644TIP3   OH240867   7.394   3.887   7.204
13644TIP3    H140868   7.354   3.874   7.117
13644TIP3    H240869   7.348   3.969   7.233
13645TIP3   OH240870   7.141   3.822   7.976
13645TIP3    H140871   7.088   3.894   8.016
13645TIP3    H240872   7.197   3.871   7.911
13646TIP3   OH240873   6.927   3.159   7.971
13646TIP3    H140874   6.989   3.231   7.996
13646TIP3    H240875   6.977   3.119   7.897
13647TIP3   OH240876   6.986   4.019   8.095
13647TIP3    H140877   6.961   4.108   8.061
13647TIP3    H240878   6.906   4.000   8.148
13648TIP3   OH240879   6.377   3.700   7.324
13648TIP3    H140880   6.336   3.724   7.239
13648TIP3    H240881   6.409   3.786   7.357
13649TIP3   OH240882   7.818   4.220   7.560
13649TIP3    H140883   7.731   4.200   7.602
13649TIP3    H240884   7.797   4.308   7.524
13650TIP3   OH240885   7.511   4.261   7.231
13650TIP3    H140886   7.563   4.179   7.216
13650TIP3    H240887   7.574   4.327   7.193
13651TIP3   OH240888   7.660   4.048   7.147
13651TIP3    H140889   7.625   3.965   7.113
13651TIP3    H240890   7.697   4.018   7.234
13652TIP3   OH240891   7.333   3.529   7.162
13652TIP3    H140892   7.253   3.580   7.140
13652TIP3    H240893   7.379   3.525   7.076
13653TIP3   OH240894   7.294   3.309   6.880
13653TIP3    H140895   7.362   3.359   6.928
13653TIP3    H240896   7.352   3.245   6.832
13654TIP3   OH240897   7.681   3.607   7.138
13654TIP3    H140898   7.627   3.629   7.218
13654TIP3    H240899   7.765   3.582   7.181
13655TIP3   OH240900   6.917   3.601   7.556
13655TIP3    H140901   6.876   3.541   7.489
13655TIP3    H240902   6.993   3.547   7.587
13656TIP3   OH240903   7.048   4.019   7.701
13656TIP3    H140904   7.027   3.977   7.615
13656TIP3    H240905   7.136   3.981   7.720
13657TIP3   OH240906   7.044   3.574   7.908
13657TIP3    H140907   7.081   3.545   7.821
13657TIP3    H240908   7.084   3.663   7.919
13658TIP3   OH240909   7.572   4.220   7.675
13658TIP3    H140910   7.568   4.298   7.734
13658TIP3    H240911   7.563   4.144   7.736
13659TIP3   OH240912   7.191   4.145   8.236
13659TIP3    H140913   7.121   4.200   8.278
13659TIP3    H240914   7.135   4.081   8.188
13660TIP3   OH240915   7.521   3.465   6.964
13660TIP3    H140916   7.581   3.524   7.015
13660TIP3    H240917   7.548   3.486   6.871
13661TIP3   OH240918   6.926   3.696   8.336
13661TIP3    H140919   6.920   3.783   8.380
13661TIP3    H240920   6.834   3.664   8.347
13662TIP3   OH240921   7.265   4.141   7.241
13662TIP3    H140922   7.351   4.188   7.250
13662TIP3    H240923   7.212   4.206   7.192
13663TIP3   OH240924   6.980   4.291   8.324
13663TIP3    H140925   6.941   4.300   8.235
13663TIP3    H240926   6.901   4.278   8.380
13664TIP3   OH240927   7.937   2.690   6.931
13664TIP3    H140928   7.901   2.708   7.020
13664TIP3    H240929   8.001   2.762   6.920
13665TIP3   OH240930   6.783   3.445   7.360
13665TIP3    H140931   6.713   3.487   7.305
13665TIP3    H240932   6.747   3.356   7.372
13666TIP3   OH240933   7.841   4.067   6.564
13666TIP3    H140934   7.849   4.164   6.548
13666TIP3    H240935   7.934   4.038   6.550
13667TIP3   OH240936   6.563   3.829   8.268
13667TIP3    H140937   6.494   3.808   8.202
13667TIP3    H240938   6.598   3.741   8.292
13668TIP3   OH240939   6.418   4.025   7.893
13668TIP3    H140940   6.514   4.015   7.894
13668TIP3    H240941   6.406   4.100   7.953
13669TIP3   OH240942   7.366   4.284   8.086
13669TIP3    H140943   7.414   4.326   8.159
13669TIP3    H240944   7.302   4.228   8.136
13670TIP3   OH240945   7.146   4.380   7.048
13670TIP3    H140946   7.104   4.365   6.962
13670TIP3    H240947   7.118   4.472   7.069
13671TIP3   OH240948   6.590   4.238   7.430
13671TIP3    H140949   6.631   4.222   7.518
13671TIP3    H240950   6.542   4.153   7.419
13672TIP3   OH240951   7.350   4.289   6.682
13672TIP3    H140952   7.408   4.218   6.646
13672TIP3    H240953   7.385   4.298   6.773
13673TIP3   OH240954   7.399   4.339   6.952
13673TIP3    H140955   7.311   4.345   6.996
13673TIP3    H240956   7.453   4.301   7.024
13674TIP3   OH240957   6.763   4.014   8.256
13674TIP3    H140958   6.804   3.997   8.343
13674TIP3    H240959   6.689   3.950   8.258
13675TIP3   OH240960   0.757   6.286   1.475
13675TIP3    H140961   0.789   6.198   1.506
13675TIP3    H240962   0.664   6.265   1.455
13676TIP3   OH240963   7.600   3.507   6.710
13676TIP3    H140964   7.566   3.483   6.622
13676TIP3    H240965   7.685   3.548   6.686
13677TIP3   OH240966   7.311   2.882   7.010
13677TIP3    H140967   7.274   2.880   7.100
13677TIP3    H240968   7.272   2.799   6.975
13678TIP3   OH240969   7.093   3.350   8.062
13678TIP3    H140970   7.039   3.376   8.139
13678TIP3    H240971   7.091   3.432   8.009
13679TIP3   OH240972   6.978   3.241   7.568
13679TIP3    H140973   6.886   3.213   7.588
13679TIP3    H240974   6.990   3.199   7.480
13680TIP3   OH240975   7.455   3.322   7.294
13680TIP3    H140976   7.411   3.396   7.247
13680TIP3    H240977   7.524   3.295   7.230
13681TIP3   OH240978   7.597   3.371   7.537
13681TIP3    H140979   7.543   3.403   7.463
13681TIP3    H240980   7.644   3.298   7.491
13682TIP3   OH240981   6.903   3.394   8.259
13682TIP3    H140982   6.940   3.451   8.328
13682TIP3    H240983   6.873   3.318   8.312
13683TIP3   OH240984   6.969   2.858   6.978
13683TIP3    H140985   6.957   2.855   7.075
13683TIP3    H240986   6.890   2.909   6.951
13684TIP3   OH240987   6.509   2.889   7.857
13684TIP3    H140988   6.588   2.925   7.903
13684TIP3    H240989   6.544   2.865   7.770
13685TIP3   OH240990   6.477   2.880   7.368
13685TIP3    H140991   6.522   2.917   7.289
13685TIP3    H240992   6.416   2.953   7.388
13686TIP3   OH240993   7.308   3.044   7.642
13686TIP3    H140994   7.218   3.043   7.682
13686TIP3    H240995   7.356   3.090   7.712
13687TIP3   OH240996   6.744   3.117   7.638
13687TIP3    H140997   6.650   3.121   7.611
13687TIP3    H240998   6.769   3.025   7.616
13688TIP3   OH240999   7.009   3.110   7.331
13688TIP3    H141000   7.102   3.125   7.307
13688TIP3    H241001   6.961   3.131   7.247
13689TIP3   OH241002   6.858   3.147   7.108
13689TIP3    H141003   6.788   3.099   7.059
13689TIP3    H241004   6.911   3.182   7.033
13690TIP3   OH241005   6.900   3.923   8.493
13690TIP3    H141006   6.976   3.970   8.528
13690TIP3    H241007   6.862   3.882   8.573
13691TIP3   OH241008   7.385   3.352   7.717
13691TIP3    H141009   7.463   3.357   7.657
13691TIP3    H241010   7.425   3.369   7.803
13692TIP3   OH241011   6.913   2.880   7.607
13692TIP3    H141012   6.875   2.809   7.664
13692TIP3    H241013   6.954   2.829   7.536
13693TIP3   OH241014   7.100   3.676   7.112
13693TIP3    H141015   7.030   3.608   7.103
13693TIP3    H241016   7.083   3.708   7.204
13694TIP3   OH241017   7.563   2.982   6.989
13694TIP3    H141018   7.467   2.964   6.993
13694TIP3    H241019   7.570   3.078   7.006
13695TIP3   OH241020   7.445   3.987   8.070
13695TIP3    H141021   7.459   3.935   8.151
13695TIP3    H241022   7.444   4.078   8.103
13696TIP3   OH241023   7.633   3.238   7.075
13696TIP3    H141024   7.730   3.249   7.076
13696TIP3    H241025   7.604   3.318   7.026
13697TIP3   OH241026   6.798   3.700   7.787
13697TIP3    H141027   6.838   3.670   7.703
13697TIP3    H241028   6.842   3.640   7.851
13698TIP3   OH241029   7.252   3.823   6.939
13698TIP3    H141030   7.204   3.909   6.944
13698TIP3    H241031   7.196   3.768   6.999
13699TIP3   OH241032   6.673   3.605   8.398
13699TIP3    H141033   6.663   3.572   8.490
13699TIP3    H241034   6.601   3.553   8.355
13700TIP3   OH241035   7.644   4.279   8.021
13700TIP3    H141036   7.550   4.284   7.997
13700TIP3    H241037   7.650   4.346   8.091
13701TIP3   OH241038   8.073   3.326   6.924
13701TIP3    H141039   8.014   3.284   6.857
13701TIP3    H241040   8.074   3.416   6.884
13702TIP3   OH241041   7.777   4.145   6.829
13702TIP3    H141042   7.750   4.075   6.891
13702TIP3    H241043   7.789   4.096   6.745
13703TIP3   OH241044   7.744   3.768   7.569
13703TIP3    H141045   7.696   3.781   7.652
13703TIP3    H241046   7.813   3.707   7.596
13704TIP3   OH241047   6.901   3.997   7.424
13704TIP3    H141048   6.897   4.071   7.360
13704TIP3    H241049   6.808   3.972   7.430
13705TIP3   OH241050   6.466   3.303   7.125
13705TIP3    H141051   6.510   3.388   7.146
13705TIP3    H241052   6.387   3.308   7.184
13706TIP3   OH241053   7.032   3.763   7.359
13706TIP3    H141054   7.002   3.853   7.382
13706TIP3    H241055   6.999   3.711   7.434
13707TIP3   OH241056   7.168   4.343   7.883
13707TIP3    H141057   7.213   4.409   7.827
13707TIP3    H241058   7.243   4.311   7.937
13708TIP3   OH241059   6.815   4.223   7.267
13708TIP3    H141060   6.731   4.235   7.317
13708TIP3    H241061   6.866   4.301   7.292
13709TIP3   OH241062   7.558   3.989   7.825
13709TIP3    H141063   7.523   3.985   7.918
13709TIP3    H241064   7.638   3.933   7.834
13710TIP3   OH241065   7.534   3.876   6.729
13710TIP3    H141066   7.588   3.850   6.807
13710TIP3    H241067   7.447   3.843   6.757
13711TIP3   OH241068   7.870   4.344   6.546
13711TIP3    H141069   7.906   4.417   6.493
13711TIP3    H241070   7.790   4.387   6.582
13712TIP3   OH241071   7.692   3.806   6.942
13712TIP3    H141072   7.682   3.740   7.014
13712TIP3    H241073   7.790   3.803   6.930
13713TIP3   OH241074   6.607   4.206   8.044
13713TIP3    H141075   6.663   4.136   8.082
13713TIP3    H241076   6.626   4.279   8.105
13714TIP3   OH241077   6.895   3.852   6.729
13714TIP3    H141078   6.909   3.760   6.701
13714TIP3    H241079   6.874   3.839   6.824
13715TIP3   OH241080   6.840   3.854   7.002
13715TIP3    H141081   6.917   3.826   7.053
13715TIP3    H241082   6.846   3.952   7.008
13716TIP3   OH241083   6.576   3.548   7.205
13716TIP3    H141084   6.508   3.592   7.260
13716TIP3    H241085   6.590   3.616   7.137
13717TIP3   OH241086   7.608   2.948   7.264
13717TIP3    H141087   7.597   2.952   7.166
13717TIP3    H241088   7.636   3.040   7.283
13718TIP3   OH241089   7.110   4.053   6.948
13718TIP3    H141090   7.022   4.078   6.983
13718TIP3    H241091   7.126   4.125   6.886
13719TIP3   OH241092   7.292   3.117   7.369
13719TIP3    H141093   7.352   3.191   7.343
13719TIP3    H241094   7.294   3.124   7.466
13720TIP3   OH241095   7.434   2.862   7.461
13720TIP3    H141096   7.401   2.946   7.500
13720TIP3    H241097   7.500   2.896   7.395
13721TIP3   OH241098   6.854   4.127   7.012
13721TIP3    H141099   6.825   4.198   6.951
13721TIP3    H241100   6.834   4.167   7.099
13722TIP3   OH241101   6.949   2.843   7.255
13722TIP3    H141102   6.947   2.933   7.293
13722TIP3    H241103   7.046   2.826   7.260
13723TIP3   OH241104   7.873   3.485   7.533
13723TIP3    H141105   7.781   3.467   7.563
13723TIP3    H241106   7.910   3.527   7.612
13724TIP3   OH241107   6.573   3.754   7.008
13724TIP3    H141108   6.647   3.818   7.017
13724TIP3    H241109   6.613   3.694   6.941
13725TIP3   OH241110   6.513   3.032   7.143
13725TIP3    H141111   6.512   3.130   7.141
13725TIP3    H241112   6.433   3.011   7.094
13726TIP3   OH241113   7.810   4.496   7.493
13726TIP3    H141114   7.785   4.544   7.410
13726TIP3    H241115   7.904   4.479   7.481
13727TIP3   OH241116   7.044   2.799   7.931
13727TIP3    H141117   6.958   2.776   7.892
13727TIP3    H241118   7.033   2.781   8.025
13728TIP3   OH241119   6.447   3.990   7.393
13728TIP3    H141120   6.379   4.007   7.460
13728TIP3    H241121   6.404   4.026   7.312
13729TIP3   OH241122   6.596   4.504   8.438
13729TIP3    H141123   6.664   4.502   8.506
13729TIP3    H241124   6.560   4.414   8.445
13730TIP3   OH241125   7.060   4.054   6.639
13730TIP3    H141126   7.005   3.982   6.678
13730TIP3    H241127   7.135   4.002   6.605
13731TIP3   OH241128   7.495   4.092   6.554
13731TIP3    H141129   7.534   4.026   6.614
13731TIP3    H241130   7.554   4.088   6.476
13732TIP3   OH241131   6.707   3.568   6.864
13732TIP3    H141132   6.763   3.536   6.937
13732TIP3    H241133   6.773   3.573   6.792
13733TIP3   OH241134   7.221   3.771   6.670
13733TIP3    H141135   7.222   3.782   6.767
13733TIP3    H241136   7.222   3.672   6.664
13734TIP3   OH241137   6.911   3.477   7.081
13734TIP3    H141138   6.885   3.436   7.165
13734TIP3    H241139   6.949   3.401   7.031
13735TIP3   OH241140   7.160   3.560   8.326
13735TIP3    H141141   7.077   3.612   8.323
13735TIP3    H241142   7.204   3.591   8.243
13736TIP3   OH241143   7.017   3.273   6.923
13736TIP3    H141144   6.991   3.278   6.828
13736TIP3    H241145   7.115   3.275   6.915
13737TIP3   OH241146   7.833   3.599   6.591
13737TIP3    H141147   7.814   3.554   6.506
13737TIP3    H241148   7.800   3.689   6.568
13738TIP3   OH241149   7.296   3.640   8.104
13738TIP3    H141150   7.379   3.641   8.052
13738TIP3    H241151   7.244   3.710   8.058
13739TIP3   OH241152   6.825   4.335   6.833
13739TIP3    H141153   6.920   4.327   6.812
13739TIP3    H241154   6.796   4.385   6.753
13740TIP3   OH241155   6.303   3.714   7.045
13740TIP3    H141156   6.398   3.734   7.029
13740TIP3    H241157   6.295   3.625   7.003
13741TIP3   OH241158   6.224   4.331   7.460
13741TIP3    H141159   6.157   4.269   7.422
13741TIP3    H241160   6.266   4.272   7.526
13742TIP3   OH241161   6.353   4.180   7.653
13742TIP3    H141162   6.340   4.103   7.711
13742TIP3    H241163   6.401   4.239   7.714
13743TIP3   OH241164   7.970   3.788   6.919
13743TIP3    H141165   8.034   3.855   6.889
13743TIP3    H241166   8.017   3.750   6.996
13744TIP3   OH241167   8.096   3.660   7.131
13744TIP3    H141168   8.025   3.608   7.174
13744TIP3    H241169   8.123   3.719   7.202
13745TIP3   OH241170   8.075   3.997   7.478
13745TIP3    H141171   8.165   3.986   7.511
13745TIP3    H241172   8.057   4.090   7.497
13746TIP3   OH241173   7.996   4.384   7.708
13746TIP3    H141174   7.974   4.370   7.801
13746TIP3    H241175   7.943   4.313   7.666
13747TIP3   OH241176   8.033   3.559   6.776
13747TIP3    H141177   7.963   3.562   6.706
13747TIP3    H241178   8.007   3.639   6.826
13748TIP3   OH241179   7.905   3.233   6.731
13748TIP3    H141180   7.870   3.269   6.649
13748TIP3    H241181   7.885   3.138   6.720
13749TIP3   OH241182   7.910   3.509   7.261
13749TIP3    H141183   7.918   3.413   7.241
13749TIP3    H241184   7.896   3.508   7.359
13750TIP3   OH241185   6.535   3.586   8.016
13750TIP3    H141186   6.533   3.550   7.924
13750TIP3    H241187   6.633   3.589   8.031
13751TIP3   OH241188   7.854   2.966   6.715
13751TIP3    H141189   7.923   2.929   6.773
13751TIP3    H241190   7.777   2.910   6.733
13752TIP3   OH241191   7.914   3.240   7.145
13752TIP3    H141192   7.940   3.148   7.153
13752TIP3    H241193   7.975   3.271   7.074
13753TIP3   OH241194   6.725   2.964   8.009
13753TIP3    H141195   6.774   2.899   8.061
13753TIP3    H241196   6.788   3.038   8.007
13754TIP3   OH241197   6.530   3.240   8.094
13754TIP3    H141198   6.578   3.237   8.009
13754TIP3    H241199   6.559   3.325   8.129
13755TIP3   OH241200   8.109   2.901   6.842
13755TIP3    H141201   8.148   2.850   6.768
13755TIP3    H241202   8.167   2.981   6.844
13756TIP3   OH241203   6.505   2.742   7.599
13756TIP3    H141204   6.412   2.735   7.625
13756TIP3    H241205   6.500   2.799   7.519
13757TIP3   OH241206   7.659   4.445   7.100
13757TIP3    H141207   7.716   4.435   7.021
13757TIP3    H241208   7.710   4.510   7.153
13758TIP3   OH241209   6.661   2.804   8.410
13758TIP3    H141210   6.623   2.821   8.498
13758TIP3    H241211   6.610   2.867   8.355
13759TIP3   OH241212   6.766   4.244   8.496
13759TIP3    H141213   6.676   4.225   8.465
13759TIP3    H241214   6.760   4.215   8.588
13760TIP3   OH241215   6.942   4.289   8.034
13760TIP3    H141216   6.894   4.362   7.991
13760TIP3    H241217   7.029   4.300   7.990
13761TIP3   OH241218   6.621   4.539   8.069
13761TIP3    H141219   6.528   4.565   8.048
13761TIP3    H241220   6.636   4.595   8.147
13762TIP3   OH241221   6.845   4.527   7.915
13762TIP3    H141222   6.770   4.532   7.979
13762TIP3    H241223   6.803   4.567   7.838
13763TIP3   OH241224   7.273   4.532   7.711
13763TIP3    H141225   7.226   4.563   7.632
13763TIP3    H241226   7.294   4.617   7.757
13764TIP3   OH241227   7.538   4.480   7.771
13764TIP3    H141228   7.446   4.499   7.744
13764TIP3    H241229   7.585   4.560   7.742
13765TIP3   OH241230   7.681   4.693   7.649
13765TIP3    H141231   7.767   4.731   7.676
13765TIP3    H241232   7.713   4.616   7.597
13766TIP3   OH241233   6.541   4.334   7.812
13766TIP3    H141234   6.560   4.301   7.902
13766TIP3    H241235   6.607   4.282   7.761
13767TIP3   OH241236   6.727   4.202   7.665
13767TIP3    H141237   6.737   4.116   7.712
13767TIP3    H241238   6.820   4.233   7.665
13768TIP3   OH241239   6.994   4.296   7.666
13768TIP3    H141240   7.023   4.202   7.656
13768TIP3    H241241   7.044   4.318   7.747
13769TIP3   OH241242   6.809   2.695   7.785
13769TIP3    H141243   6.716   2.667   7.776
13769TIP3    H241244   6.854   2.608   7.772
13770TIP3   OH241245   6.607   2.533   7.420
13770TIP3    H141246   6.633   2.588   7.344
13770TIP3    H241247   6.575   2.600   7.484
13771TIP3   OH241248   7.228   2.711   7.651
13771TIP3    H141249   7.274   2.785   7.609
13771TIP3    H241250   7.214   2.745   7.741
13772TIP3   OH241251   7.841   2.769   7.183
13772TIP3    H141252   7.766   2.817   7.224
13772TIP3    H241253   7.841   2.686   7.235
13773TIP3   OH241254   6.316   4.108   7.188
13773TIP3    H141255   6.231   4.070   7.158
13773TIP3    H241256   6.305   4.200   7.157
13774TIP3   OH241257   6.720   2.689   7.178
13774TIP3    H141258   6.768   2.626   7.121
13774TIP3    H241259   6.794   2.743   7.213
13775TIP3   OH241260   7.224   2.871   7.272
13775TIP3    H141261   7.282   2.822   7.332
13775TIP3    H241262   7.246   2.963   7.299
13776TIP3   OH241263   7.091   4.288   6.778
13776TIP3    H141264   7.179   4.311   6.741
13776TIP3    H241265   7.068   4.213   6.717
13777TIP3   OH241266   7.812   4.411   6.871
13777TIP3    H141267   7.804   4.313   6.861
13777TIP3    H241268   7.764   4.442   6.791
13778TIP3   OH241269   6.396   4.127   6.832
13778TIP3    H141270   6.399   4.141   6.927
13778TIP3    H241271   6.482   4.082   6.815
13779TIP3   OH241272   8.260   3.422   7.133
13779TIP3    H141273   8.223   3.512   7.121
13779TIP3    H241274   8.219   3.377   7.057
13780TIP3   OH241275   8.159   3.969   6.817
13780TIP3    H141276   8.123   3.995   6.730
13780TIP3    H241277   8.199   4.053   6.849
13781TIP3   OH241278   8.509   3.632   6.788
13781TIP3    H141279   8.470   3.717   6.768
13781TIP3    H241280   8.582   3.656   6.855
13782TIP3   OH241281   8.189   4.299   7.402
13782TIP3    H141282   8.282   4.278   7.381
13782TIP3    H241283   8.186   4.268   7.495
13783TIP3   OH241284   8.875   4.679   6.531
13783TIP3    H141285   8.867   4.605   6.470
13783TIP3    H241286   8.945   4.730   6.488
13784TIP3   OH241287   8.384   4.493   6.925
13784TIP3    H141288   8.412   4.469   7.014
13784TIP3    H241289   8.332   4.414   6.901
13785TIP3   OH241290   8.722   3.210   6.469
13785TIP3    H141291   8.738   3.119   6.501
13785TIP3    H241292   8.649   3.198   6.406
13786TIP3   OH241293   8.270   3.127   6.857
13786TIP3    H141294   8.315   3.166   6.778
13786TIP3    H241295   8.214   3.203   6.881
13787TIP3   OH241296   8.611   3.445   6.574
13787TIP3    H141297   8.568   3.362   6.552
13787TIP3    H241298   8.694   3.436   6.525
13788TIP3   OH241299   8.849   3.955   6.598
13788TIP3    H141300   8.800   3.870   6.588
13788TIP3    H241301   8.855   3.963   6.695
13789TIP3   OH241302   8.998   4.083   6.396
13789TIP3    H141303   8.983   4.172   6.435
13789TIP3    H241304   8.970   4.026   6.471
13790TIP3   OH241305   8.699   4.266   6.865
13790TIP3    H141306   8.670   4.347   6.820
13790TIP3    H241307   8.636   4.258   6.939
13791TIP3   OH241308   8.249   3.561   6.598
13791TIP3    H141309   8.313   3.628   6.629
13791TIP3    H241310   8.183   3.563   6.671
13792TIP3   OH241311   8.823   4.024   6.883
13792TIP3    H141312   8.785   4.114   6.867
13792TIP3    H241313   8.774   3.999   6.963
13793TIP3   OH241314   8.600   4.507   6.752
13793TIP3    H141315   8.516   4.512   6.801
13793TIP3    H241316   8.648   4.584   6.787
13794TIP3   OH241317   8.685   4.108   6.216
13794TIP3    H141318   8.692   4.014   6.190
13794TIP3    H241319   8.671   4.100   6.312
13795TIP3   OH241320   8.641   4.113   6.484
13795TIP3    H141321   8.716   4.071   6.532
13795TIP3    H241322   8.650   4.207   6.508
13796TIP3   OH241323   8.352   3.825   6.676
13796TIP3    H141324   8.285   3.863   6.736
13796TIP3    H241325   8.366   3.899   6.613
13797TIP3   OH241326   8.913   4.335   6.465
13797TIP3    H141327   8.818   4.348   6.487
13797TIP3    H241328   8.920   4.390   6.385
13798TIP3   OH241329   8.648   4.391   6.503
13798TIP3    H141330   8.612   4.457   6.440
13798TIP3    H241331   8.628   4.435   6.589
13799TIP3   OH241332   8.370   4.025   6.480
13799TIP3    H141333   8.449   4.081   6.494
13799TIP3    H241334   8.410   3.960   6.418
13800TIP3   OH241335   8.307   3.284   6.634
13800TIP3    H141336   8.334   3.378   6.631
13800TIP3    H241337   8.227   3.286   6.580
13801TIP3   OH241338   8.238   4.240   6.880
13801TIP3    H141339   8.173   4.268   6.947
13801TIP3    H241340   8.199   4.279   6.798
13802TIP3   OH241341   8.856   4.303   6.132
13802TIP3    H141342   8.788   4.238   6.163
13802TIP3    H241343   8.936   4.249   6.146
13803TIP3   OH241344   8.506   3.828   6.347
13803TIP3    H141345   8.548   3.788   6.426
13803TIP3    H241346   8.583   3.830   6.286
13804TIP3   OH241347   8.993   4.008   6.140
13804TIP3    H141348   9.009   4.039   6.233
13804TIP3    H241349   8.920   3.946   6.157
13805TIP3   OH241350   8.697   3.723   6.568
13805TIP3    H141351   8.643   3.668   6.629
13805TIP3    H241352   8.743   3.649   6.520
13806TIP3   OH241353   8.825   3.529   6.413
13806TIP3    H141354   8.785   3.527   6.325
13806TIP3    H241355   8.918   3.509   6.390
13807TIP3   OH241356   8.608   4.599   6.320
13807TIP3    H141357   8.705   4.593   6.310
13807TIP3    H241358   8.586   4.644   6.236
13808TIP3   OH241359   8.101   3.974   6.531
13808TIP3    H141360   8.195   3.998   6.513
13808TIP3    H241361   8.097   3.884   6.493
13809TIP3   OH241362   8.015   4.584   6.944
13809TIP3    H141363   7.948   4.522   6.906
13809TIP3    H241364   8.062   4.522   7.005
13810TIP3   OH241365   8.148   4.420   7.120
13810TIP3    H141366   8.122   4.353   7.186
13810TIP3    H241367   8.197   4.482   7.178
13811TIP3   OH241368   8.113   4.365   6.677
13811TIP3    H141369   8.028   4.329   6.646
13811TIP3    H241370   8.101   4.458   6.649
13812TIP3   OH241371   8.503   2.988   6.647
13812TIP3    H141372   8.579   2.928   6.648
13812TIP3    H241373   8.516   3.038   6.730
13813TIP3   OH241374   8.874   4.539   6.274
13813TIP3    H141375   8.961   4.559   6.232
13813TIP3    H241376   8.846   4.467   6.214
13814TIP3   OH241377   8.192   4.384   6.319
13814TIP3    H141378   8.192   4.399   6.415
13814TIP3    H241379   8.279   4.340   6.305
13815TIP3   OH241380   1.872   5.076   8.296
13815TIP3    H141381   1.897   5.024   8.217
13815TIP3    H241382   1.955   5.125   8.318
13816TIP3   OH241383   1.570   4.353   8.065
13816TIP3    H141384   1.645   4.409   8.093
13816TIP3    H241385   1.617   4.285   8.012
13817TIP3   OH241386   1.784   4.508   8.132
13817TIP3    H141387   1.781   4.602   8.153
13817TIP3    H241388   1.809   4.513   8.036
13818TIP3   OH241389   2.090   5.115   7.741
13818TIP3    H141390   2.099   5.210   7.719
13818TIP3    H241391   2.182   5.084   7.725
13819TIP3   OH241392   1.400   5.436   8.207
13819TIP3    H141393   1.351   5.430   8.123
13819TIP3    H241394   1.366   5.521   8.243
13820TIP3   OH241395   1.602   5.335   7.856
13820TIP3    H141396   1.659   5.263   7.822
13820TIP3    H241397   1.636   5.345   7.948
13821TIP3   OH241398   1.657   5.388   8.126
13821TIP3    H141399   1.566   5.397   8.163
13821TIP3    H241400   1.700   5.333   8.193
13822TIP3   OH241401   1.847   4.554   7.878
13822TIP3    H141402   1.811   4.528   7.791
13822TIP3    H241403   1.933   4.592   7.852
13823TIP3   OH241404   1.517   4.866   8.065
13823TIP3    H141405   1.486   4.958   8.083
13823TIP3    H241406   1.488   4.824   8.148
13824TIP3   OH241407   2.336   4.372   8.075
13824TIP3    H141408   2.263   4.327   8.027
13824TIP3    H241409   2.326   4.461   8.034
13825TIP3   OH241410   2.028   5.183   8.000
13825TIP3    H141411   2.011   5.098   8.041
13825TIP3    H241412   2.045   5.158   7.908
13826TIP3   OH241413   1.774   4.918   7.906
13826TIP3    H141414   1.830   4.898   7.984
13826TIP3    H241415   1.686   4.893   7.940
13827TIP3   OH241416   2.117   5.390   7.723
13827TIP3    H141417   2.155   5.462   7.671
13827TIP3    H241418   2.038   5.436   7.757
13828TIP3   OH241419   1.941   4.872   8.120
13828TIP3    H141420   1.934   4.809   8.193
13828TIP3    H241421   2.038   4.865   8.099
13829TIP3   OH241422   1.147   4.894   7.908
13829TIP3    H141423   1.174   4.805   7.880
13829TIP3    H241424   1.106   4.876   7.995
13830TIP3   OH241425   1.410   5.110   8.112
13830TIP3    H141426   1.343   5.107   8.185
13830TIP3    H241427   1.382   5.191   8.066
13831TIP3   OH241428   0.980   5.204   8.162
13831TIP3    H141429   0.995   5.267   8.087
13831TIP3    H241430   1.013   5.257   8.235
13832TIP3   OH241431   1.303   5.096   7.808
13832TIP3    H141432   1.248   5.028   7.854
13832TIP3    H241433   1.381   5.042   7.784
13833TIP3   OH241434   1.746   5.138   7.730
13833TIP3    H141435   1.785   5.071   7.788
13833TIP3    H241436   1.801   5.133   7.649
13834TIP3   OH241437   0.925   4.649   7.972
13834TIP3    H141438   0.957   4.711   8.042
13834TIP3    H241439   1.010   4.627   7.929
13835TIP3   OH241440   1.450   4.803   7.811
13835TIP3    H141441   1.465   4.825   7.906
13835TIP3    H241442   1.459   4.705   7.816
13836TIP3   OH241443   1.210   4.371   8.080
13836TIP3    H141444   1.216   4.357   7.982
13836TIP3    H241445   1.303   4.370   8.107
13837TIP3   OH241446   2.078   4.647   7.765
13837TIP3    H141447   2.062   4.601   7.681
13837TIP3    H241448   2.045   4.737   7.741
13838TIP3   OH241449   1.073   5.386   7.984
13838TIP3    H141450   1.170   5.372   7.975
13838TIP3    H241451   1.058   5.449   7.911
13839TIP3   OH241452   2.206   4.868   8.084
13839TIP3    H141453   2.278   4.920   8.042
13839TIP3    H241454   2.261   4.813   8.145
13840TIP3   OH241455   2.370   4.684   8.193
13840TIP3    H141456   2.355   4.660   8.285
13840TIP3    H241457   2.456   4.641   8.176
13841TIP3   OH241458   2.287   4.605   7.932
13841TIP3    H141459   2.208   4.617   7.874
13841TIP3    H241460   2.272   4.673   8.000
13842TIP3   OH241461   2.144   4.280   7.902
13842TIP3    H141462   2.111   4.309   7.816
13842TIP3    H241463   2.127   4.183   7.895
13843TIP3   OH241464   2.096   4.013   7.885
13843TIP3    H141465   2.176   3.986   7.935
13843TIP3    H241466   2.025   3.960   7.925
13844TIP3   OH241467   2.341   3.969   8.006
13844TIP3    H141468   2.385   3.890   7.970
13844TIP3    H241469   2.416   4.032   8.010
13845TIP3   OH241470   1.947   5.458   8.295
13845TIP3    H141471   1.974   5.450   8.201
13845TIP3    H241472   1.985   5.544   8.317
13846TIP3   OH241473   1.339   5.333   7.940
13846TIP3    H141474   1.429   5.353   7.907
13846TIP3    H241475   1.318   5.255   7.884
13847TIP3   OH241476   2.058   5.453   8.044
13847TIP3    H141477   2.050   5.355   8.029
13847TIP3    H241478   2.011   5.488   7.966
13848TIP3   OH241479   3.554   4.967   7.995
13848TIP3    H141480   3.527   5.060   7.983
13848TIP3    H241481   3.473   4.922   7.965
13849TIP3   OH241482   3.513   4.979   8.379
13849TIP3    H141483   3.578   4.962   8.450
13849TIP3    H241484   3.486   4.888   8.355
13850TIP3   OH241485   3.797   5.267   8.064
13850TIP3    H141486   3.795   5.203   8.138
13850TIP3    H241487   3.819   5.349   8.111
13851TIP3   OH241488   2.822   5.287   8.462
13851TIP3    H141489   2.811   5.189   8.464
13851TIP3    H241490   2.920   5.291   8.456
13852TIP3   OH241491   2.563   4.487   8.207
13852TIP3    H141492   2.549   4.494   8.305
13852TIP3    H241493   2.487   4.431   8.181
13853TIP3   OH241494   2.680   4.730   8.411
13853TIP3    H141495   2.642   4.744   8.499
13853TIP3    H241496   2.640   4.807   8.364
13854TIP3   OH241497   3.450   5.735   8.085
13854TIP3    H141498   3.488   5.666   8.025
13854TIP3    H241499   3.447   5.685   8.168
13855TIP3   OH241500   3.334   5.193   8.408
13855TIP3    H141501   3.384   5.113   8.382
13855TIP3    H241502   3.407   5.251   8.433
13856TIP3   OH241503   4.365   4.529   8.409
13856TIP3    H141504   4.386   4.614   8.452
13856TIP3    H241505   4.381   4.549   8.316
13857TIP3   OH241506   3.751   4.676   8.462
13857TIP3    H141507   3.797   4.592   8.480
13857TIP3    H241508   3.725   4.663   8.368
13858TIP3   OH241509   3.143   4.341   8.383
13858TIP3    H141510   3.101   4.425   8.353
13858TIP3    H241511   3.076   4.278   8.351
13859TIP3   OH241512   3.795   4.449   8.045
13859TIP3    H141513   3.866   4.436   8.112
13859TIP3    H241514   3.847   4.483   7.971
13860TIP3   OH241515   3.172   4.758   8.331
13860TIP3    H141516   3.266   4.733   8.336
13860TIP3    H241517   3.131   4.676   8.295
13861TIP3   OH241518   4.433   4.731   8.595
13861TIP3    H141519   4.348   4.775   8.571
13861TIP3    H241520   4.421   4.721   8.690
13862TIP3   OH241521   3.444   5.194   7.863
13862TIP3    H141522   3.397   5.173   7.781
13862TIP3    H241523   3.394   5.273   7.893
13863TIP3   OH241524   4.000   4.455   8.223
13863TIP3    H141525   3.997   4.399   8.301
13863TIP3    H241526   4.053   4.531   8.254
13864TIP3   OH241527   2.419   5.007   7.980
13864TIP3    H141528   2.388   5.040   7.893
13864TIP3    H241529   2.456   5.088   8.021
13865TIP3   OH241530   3.861   5.508   8.203
13865TIP3    H141531   3.812   5.491   8.285
13865TIP3    H241532   3.842   5.602   8.186
13866TIP3   OH241533   4.139   4.454   8.573
13866TIP3    H141534   4.050   4.474   8.539
13866TIP3    H241535   4.199   4.486   8.503
13867TIP3   OH241536   3.557   5.567   7.892
13867TIP3    H141537   3.609   5.483   7.881
13867TIP3    H241538   3.622   5.631   7.856
13868TIP3   OH241539   3.706   5.349   7.818
13868TIP3    H141540   3.657   5.270   7.788
13868TIP3    H241541   3.747   5.314   7.901
13869TIP3   OH241542   3.379   4.821   7.831
13869TIP3    H141543   3.298   4.873   7.810
13869TIP3    H241544   3.425   4.820   7.745
13870TIP3   OH241545   3.338   4.611   7.543
13870TIP3    H141546   3.406   4.661   7.593
13870TIP3    H241547   3.396   4.547   7.495
13871TIP3   OH241548   4.267   5.075   8.417
13871TIP3    H141549   4.192   5.137   8.414
13871TIP3    H241550   4.307   5.092   8.328
13872TIP3   OH241551   3.731   4.907   7.798
13872TIP3    H141552   3.674   4.930   7.876
13872TIP3    H241553   3.814   4.882   7.844
13873TIP3   OH241554   3.958   4.964   8.683
13873TIP3    H141555   3.952   5.058   8.702
13873TIP3    H241556   3.875   4.951   8.632
13874TIP3   OH241557   2.968   4.913   8.216
13874TIP3    H141558   2.928   4.851   8.152
13874TIP3    H241559   3.040   4.858   8.254
13875TIP3   OH241560   3.089   5.319   8.364
13875TIP3    H141561   3.072   5.276   8.279
13875TIP3    H241562   3.175   5.276   8.389
13876TIP3   OH241563   3.092   4.888   8.559
13876TIP3    H141564   3.113   4.835   8.479
13876TIP3    H241565   3.180   4.904   8.593
13877TIP3   OH241566   3.589   5.503   8.375
13877TIP3    H141567   3.596   5.598   8.396
13877TIP3    H241568   3.657   5.470   8.437
13878TIP3   OH241569   3.567   4.764   7.629
13878TIP3    H141570   3.627   4.824   7.679
13878TIP3    H241571   3.593   4.786   7.536
13879TIP3   OH241572   3.313   5.439   7.903
13879TIP3    H141573   3.396   5.490   7.911
13879TIP3    H241574   3.253   5.502   7.861
13880TIP3   OH241575   4.087   4.003   7.674
13880TIP3    H141576   4.011   4.014   7.735
13880TIP3    H241577   4.092   4.090   7.632
13881TIP3   OH241578   2.846   4.753   8.005
13881TIP3    H141579   2.768   4.792   7.961
13881TIP3    H241580   2.810   4.670   8.038
13882TIP3   OH241581   3.885   5.370   7.228
13882TIP3    H141582   3.893   5.466   7.212
13882TIP3    H241583   3.977   5.340   7.213
13883TIP3   OH241584   4.328   5.775   8.618
13883TIP3    H141585   4.319   5.677   8.626
13883TIP3    H241586   4.240   5.800   8.656
13884TIP3   OH241587   3.196   5.688   7.706
13884TIP3    H141588   3.148   5.666   7.624
13884TIP3    H241589   3.160   5.775   7.729
13885TIP3   OH241590   2.629   5.538   8.085
13885TIP3    H141591   2.681   5.527   8.168
13885TIP3    H241592   2.582   5.452   8.082
13886TIP3   OH241593   3.396   5.591   7.346
13886TIP3    H141594   3.452   5.520   7.309
13886TIP3    H241595   3.431   5.598   7.437
13887TIP3   OH241596   3.448   5.639   7.617
13887TIP3    H141597   3.358   5.648   7.656
13887TIP3    H241598   3.495   5.594   7.690
13888TIP3   OH241599   3.646   4.808   7.373
13888TIP3    H141600   3.610   4.784   7.285
13888TIP3    H241601   3.730   4.851   7.348
13889TIP3   OH241602   3.357   4.183   7.675
13889TIP3    H141603   3.321   4.180   7.766
13889TIP3    H241604   3.317   4.101   7.640
13890TIP3   OH241605   3.030   4.548   8.235
13890TIP3    H141606   2.940   4.519   8.259
13890TIP3    H241607   3.039   4.505   8.146
13891TIP3   OH241608   3.520   4.626   7.964
13891TIP3    H141609   3.468   4.697   7.921
13891TIP3    H241610   3.574   4.593   7.890
13892TIP3   OH241611   3.672   4.646   8.199
13892TIP3    H141612   3.612   4.679   8.129
13892TIP3    H241613   3.705   4.566   8.153
13893TIP3   OH241614   3.013   4.160   7.638
13893TIP3    H141615   3.004   4.156   7.736
13893TIP3    H241616   2.934   4.212   7.615
13894TIP3   OH241617   2.534   4.188   8.031
13894TIP3    H141618   2.576   4.224   7.949
13894TIP3    H241619   2.467   4.258   8.045
13895TIP3   OH241620   3.703   4.919   8.571
13895TIP3    H141621   3.718   4.825   8.542
13895TIP3    H241622   3.665   4.909   8.660
13896TIP3   OH241623   3.388   4.375   8.273
13896TIP3    H141624   3.297   4.365   8.309
13896TIP3    H241625   3.439   4.373   8.356
13897TIP3   OH241626   2.807   4.395   8.281
13897TIP3    H141627   2.723   4.429   8.242
13897TIP3    H241628   2.834   4.327   8.217
13898TIP3   OH241629   3.054   4.415   7.996
13898TIP3    H141630   3.148   4.426   7.970
13898TIP3    H241631   3.006   4.432   7.912
13899TIP3   OH241632   3.852   4.427   8.518
13899TIP3    H141633   3.825   4.430   8.611
13899TIP3    H241634   3.781   4.371   8.479
13900TIP3   OH241635   2.903   4.445   7.771
13900TIP3    H141636   2.832   4.400   7.722
13900TIP3    H241637   2.955   4.483   7.697
13901TIP3   OH241638   4.036   6.123   8.706
13901TIP3    H141639   4.028   6.136   8.611
13901TIP3    H241640   4.079   6.203   8.736
13902TIP3   OH241641   3.443   4.693   8.379
13902TIP3    H141642   3.510   4.652   8.321
13902TIP3    H241643   3.468   4.659   8.466
13903TIP3   OH241644   2.981   4.173   8.221
13903TIP3    H141645   2.942   4.108   8.280
13903TIP3    H241646   3.042   4.120   8.168
13904TIP3   OH241647   3.151   4.975   7.776
13904TIP3    H141648   3.078   4.910   7.764
13904TIP3    H241649   3.131   5.009   7.867
13905TIP3   OH241650   3.608   4.284   7.650
13905TIP3    H141651   3.511   4.265   7.656
13905TIP3    H241652   3.613   4.379   7.671
13906TIP3   OH241653   3.675   4.536   7.749
13906TIP3    H141654   3.772   4.542   7.762
13906TIP3    H241655   3.656   4.616   7.695
13907TIP3   OH241656   2.847   5.014   8.445
13907TIP3    H141657   2.883   4.992   8.357
13907TIP3    H241658   2.873   4.935   8.493
13908TIP3   OH241659   3.296   5.124   7.602
13908TIP3    H141660   3.248   5.210   7.608
13908TIP3    H241661   3.242   5.068   7.661
13909TIP3   OH241662   4.131   4.620   7.576
13909TIP3    H141663   4.065   4.577   7.516
13909TIP3    H241664   4.123   4.711   7.538
13910TIP3   OH241665   4.292   5.494   8.652
13910TIP3    H141666   4.198   5.484   8.629
13910TIP3    H241667   4.336   5.458   8.572
13911TIP3   OH241668   3.823   5.445   7.494
13911TIP3    H141669   3.793   5.375   7.555
13911TIP3    H241670   3.833   5.397   7.409
13912TIP3   OH241671   3.816   5.077   8.282
13912TIP3    H141672   3.737   5.059   8.334
13912TIP3    H241673   3.844   4.988   8.254
13913TIP3   OH241674   2.944   5.304   8.081
13913TIP3    H141675   2.940   5.384   8.026
13913TIP3    H241676   2.851   5.281   8.090
13914TIP3   OH241677   2.513   4.605   7.783
13914TIP3    H141678   2.559   4.688   7.810
13914TIP3    H241679   2.434   4.608   7.841
13915TIP3   OH241680   3.079   5.070   8.017
13915TIP3    H141681   3.046   5.159   8.041
13915TIP3    H241682   3.049   5.018   8.094
13916TIP3   OH241683   3.214   5.645   8.537
13916TIP3    H141684   3.279   5.705   8.497
13916TIP3    H241685   3.272   5.577   8.577
13917TIP3   OH241686   2.860   5.543   7.930
13917TIP3    H141687   2.775   5.550   7.977
13917TIP3    H241688   2.892   5.636   7.934
13918TIP3   OH241689   3.578   5.177   7.392
13918TIP3    H141690   3.633   5.150   7.470
13918TIP3    H241691   3.491   5.145   7.420
13919TIP3   OH241692   3.827   5.836   8.587
13919TIP3    H141693   3.808   5.739   8.574
13919TIP3    H241694   3.830   5.867   8.495
13920TIP3   OH241695   3.915   5.646   7.210
13920TIP3    H141696   3.950   5.718   7.156
13920TIP3    H241697   3.835   5.689   7.245
13921TIP3   OH241698   3.740   5.105   7.602
13921TIP3    H141699   3.728   5.041   7.676
13921TIP3    H241700   3.837   5.102   7.593
13922TIP3   OH241701   2.940   5.153   7.393
13922TIP3    H141702   2.954   5.060   7.365
13922TIP3    H241703   2.920   5.142   7.488
13923TIP3   OH241704   2.884   5.158   7.665
13923TIP3    H141705   2.958   5.128   7.720
13923TIP3    H241706   2.890   5.256   7.674
13924TIP3   OH241707   2.620   4.848   7.871
13924TIP3    H141708   2.553   4.891   7.927
13924TIP3    H241709   2.634   4.918   7.804
13925TIP3   OH241710   3.656   4.236   7.926
13925TIP3    H141711   3.640   4.257   7.832
13925TIP3    H241712   3.695   4.320   7.959
13926TIP3   OH241713   3.154   5.354   7.612
13926TIP3    H141714   3.067   5.380   7.649
13926TIP3    H241715   3.167   5.426   7.548
13927TIP3   OH241716   3.341   4.422   8.010
13927TIP3    H141717   3.403   4.495   7.989
13927TIP3    H241718   3.353   4.417   8.107
13928TIP3   OH241719   3.488   4.151   8.126
13928TIP3    H141720   3.470   4.236   8.172
13928TIP3    H241721   3.552   4.182   8.056
13929TIP3   OH241722   2.900   5.431   7.681
13929TIP3    H141723   2.870   5.502   7.620
13929TIP3    H241724   2.883   5.474   7.768
13930TIP3   OH241725   2.997   4.143   7.912
13930TIP3    H141726   2.991   4.228   7.959
13930TIP3    H241727   3.094   4.128   7.919
13931TIP3   OH241728   3.902   4.817   8.199
13931TIP3    H141729   3.824   4.760   8.212
13931TIP3    H241730   3.971   4.772   8.252
13932TIP3   OH241731   2.617   5.055   7.673
13932TIP3    H141732   2.690   5.120   7.681
13932TIP3    H241733   2.658   4.995   7.607
13933TIP3   OH241734   2.560   4.334   7.801
13933TIP3    H141735   2.561   4.432   7.802
13933TIP3    H241736   2.478   4.315   7.756
13934TIP3   OH241737   3.864   5.800   8.153
13934TIP3    H141738   3.826   5.853   8.080
13934TIP3    H241739   3.960   5.811   8.134
13935TIP3   OH241740   2.488   5.284   8.057
13935TIP3    H141741   2.418   5.306   8.120
13935TIP3    H241742   2.451   5.323   7.974
13936TIP3   OH241743   3.105   5.355   7.303
13936TIP3    H141744   3.049   5.283   7.342
13936TIP3    H241745   3.180   5.303   7.269
13937TIP3   OH241746   3.540   5.395   7.218
13937TIP3    H141747   3.578   5.327   7.277
13937TIP3    H241748   3.598   5.389   7.139
13938TIP3   OH241749   2.753   4.869   7.529
13938TIP3    H141750   2.810   4.838   7.602
13938TIP3    H241751   2.819   4.874   7.457
13939TIP3   OH241752   3.266   5.071   7.333
13939TIP3    H141753   3.267   5.084   7.430
13939TIP3    H241754   3.267   4.973   7.328
13940TIP3   OH241755   2.953   4.784   7.737
13940TIP3    H141756   2.931   4.752   7.827
13940TIP3    H241757   2.991   4.703   7.696
13941TIP3   OH241758   3.061   4.572   7.587
13941TIP3    H141759   3.036   4.578   7.492
13941TIP3    H241760   3.159   4.576   7.579
13942TIP3   OH241761   3.880   4.900   7.254
13942TIP3    H141762   3.860   4.855   7.170
13942TIP3    H241763   3.847   4.990   7.232
13943TIP3   OH241764   2.870   5.638   7.496
13943TIP3    H141765   2.965   5.627   7.474
13943TIP3    H241766   2.841   5.685   7.416
13944TIP3   OH241767   2.347   5.018   7.701
13944TIP3    H141768   2.443   5.037   7.689
13944TIP3    H241769   2.341   4.927   7.664
13945TIP3   OH241770   2.263   5.628   8.115
13945TIP3    H141771   2.197   5.564   8.080
13945TIP3    H241772   2.308   5.572   8.182
13946TIP3   OH241773   2.393   5.486   8.309
13946TIP3    H141774   2.396   5.410   8.367
13946TIP3    H241775   2.445   5.552   8.359
13947TIP3   OH241776   4.121   5.886   8.109
13947TIP3    H141777   4.152   5.908   8.199
13947TIP3    H241778   4.197   5.913   8.054
13948TIP3   OH241779   4.159   5.905   8.387
13948TIP3    H141780   4.103   5.823   8.384
13948TIP3    H241781   4.228   5.871   8.446
13949TIP3   OH241782   4.019   5.086   7.584
13949TIP3    H141783   4.085   5.151   7.556
13949TIP3    H241784   4.062   5.047   7.663
13950TIP3   OH241785   4.147   4.951   7.787
13950TIP3    H141786   4.078   4.911   7.845
13950TIP3    H241787   4.209   4.991   7.851
13951TIP3   OH241788   4.225   5.358   8.229
13951TIP3    H141789   4.253   5.281   8.176
13951TIP3    H241790   4.157   5.399   8.172
13952TIP3   OH241791   4.047   5.663   8.402
13952TIP3    H141792   3.986   5.632   8.473
13952TIP3    H241793   4.028   5.593   8.338
13953TIP3   OH241794   4.084   4.861   7.434
13953TIP3    H141795   4.011   4.863   7.367
13953TIP3    H241796   4.055   4.937   7.489
13954TIP3   OH241797   3.955   4.535   7.387
13954TIP3    H141798   3.909   4.570   7.310
13954TIP3    H241799   3.930   4.440   7.380
13955TIP3   OH241800   3.959   4.812   7.930
13955TIP3    H141801   3.962   4.715   7.924
13955TIP3    H241802   3.942   4.825   8.026
13956TIP3   OH241803   4.220   5.231   8.769
13956TIP3    H141804   4.305   5.183   8.780
13956TIP3    H241805   4.250   5.321   8.748
13957TIP3   OH241806   4.418   5.046   8.804
13957TIP3    H141807   4.350   4.990   8.844
13957TIP3    H241808   4.491   4.985   8.791
13958TIP3   OH241809   3.891   4.271   7.376
13958TIP3    H141810   3.960   4.234   7.433
13958TIP3    H241811   3.815   4.212   7.391
13959TIP3   OH241812   3.956   4.527   7.827
13959TIP3    H141813   3.996   4.438   7.843
13959TIP3    H241814   4.012   4.559   7.755
13960TIP3   OH241815   4.116   4.696   8.332
13960TIP3    H141816   4.200   4.724   8.289
13960TIP3    H241817   4.127   4.740   8.418
13961TIP3   OH241818   4.188   4.853   8.560
13961TIP3    H141819   4.109   4.884   8.610
13961TIP3    H241820   4.212   4.935   8.512
13962TIP3   OH241821   4.067   4.278   7.867
13962TIP3    H141822   4.110   4.258   7.952
13962TIP3    H241823   4.005   4.202   7.860
13963TIP3   OH241824   4.144   4.214   7.500
13963TIP3    H141825   4.176   4.139   7.446
13963TIP3    H241826   4.208   4.284   7.479
13964TIP3   OH241827   2.567   4.040   8.252
13964TIP3    H141828   2.478   4.051   8.286
13964TIP3    H241829   2.568   4.103   8.177
13965TIP3   OH241830   3.711   5.756   7.769
13965TIP3    H141831   3.752   5.733   7.683
13965TIP3    H241832   3.784   5.802   7.812
13966TIP3   OH241833   2.982   5.600   8.703
13966TIP3    H141834   2.967   5.678   8.644
13966TIP3    H241835   3.070   5.572   8.673
13967TIP3   OH241836   3.616   6.040   8.634
13967TIP3    H141837   3.673   5.966   8.618
13967TIP3    H241838   3.623   6.048   8.731
13968TIP3   OH241839   2.895   5.830   8.578
13968TIP3    H141840   2.800   5.827   8.599
13968TIP3    H241841   2.891   5.855   8.483
13969TIP3   OH241842   3.323   5.875   8.391
13969TIP3    H141843   3.264   5.868   8.314
13969TIP3    H241844   3.262   5.916   8.458
13970TIP3   OH241845   3.586   5.781   8.412
13970TIP3    H141846   3.496   5.817   8.400
13970TIP3    H241847   3.644   5.851   8.379
13971TIP3   OH241848   3.800   5.984   8.344
13971TIP3    H141849   3.788   6.061   8.285
13971TIP3    H241850   3.828   5.915   8.279
13972TIP3   OH241851   2.596   5.641   8.440
13972TIP3    H141852   2.611   5.601   8.528
13972TIP3    H241853   2.664   5.594   8.388
13973TIP3   OH241854   2.782   5.504   8.305
13973TIP3    H141855   2.793   5.419   8.353
13973TIP3    H241856   2.874   5.539   8.309
13974TIP3   OH241857   3.043   5.597   8.327
13974TIP3    H141858   3.069   5.502   8.317
13974TIP3    H241859   3.093   5.617   8.409
13975TIP3   OH241860   3.637   4.275   8.427
13975TIP3    H141861   3.558   4.225   8.456
13975TIP3    H241862   3.682   4.212   8.369
13976TIP3   OH241863   4.134   4.142   8.325
13976TIP3    H141864   4.170   4.188   8.245
13976TIP3    H241865   4.038   4.152   8.311
13977TIP3   OH241866   4.231   4.229   8.086
13977TIP3    H141867   4.302   4.179   8.040
13977TIP3    H241868   4.263   4.322   8.072
13978TIP3   OH241869   2.606   3.848   8.052
13978TIP3    H141870   2.664   3.894   7.988
13978TIP3    H241871   2.610   3.909   8.129
13979TIP3   OH241872   3.308   4.025   8.298
13979TIP3    H141873   3.370   4.056   8.229
13979TIP3    H241874   3.333   4.086   8.372
13980TIP3   OH241875   3.858   4.134   8.286
13980TIP3    H141876   3.849   4.103   8.195
13980TIP3    H241877   3.830   4.054   8.337
13981TIP3   OH241878   3.885   4.069   7.859
13981TIP3    H141879   3.796   4.108   7.869
13981TIP3    H241880   3.871   3.982   7.902
13982TIP3   OH241881   2.360   5.406   7.853
13982TIP3    H141882   2.274   5.375   7.819
13982TIP3    H241883   2.353   5.500   7.831
13983TIP3   OH241884   2.766   3.992   7.840
13983TIP3    H141885   2.813   3.926   7.785
13983TIP3    H241886   2.841   4.045   7.875
13984TIP3   OH241887   3.272   4.168   7.938
13984TIP3    H141888   3.330   4.119   7.998
13984TIP3    H241889   3.297   4.260   7.961
13985TIP3   OH241890   3.136   5.589   7.441
13985TIP3    H141891   3.223   5.612   7.403
13985TIP3    H241892   3.113   5.514   7.380
13986TIP3   OH241893   3.854   5.711   7.536
13986TIP3    H141894   3.848   5.613   7.524
13986TIP3    H241895   3.809   5.742   7.454
13987TIP3   OH241896   2.440   5.427   7.495
13987TIP3    H141897   2.444   5.444   7.590
13987TIP3    H241898   2.527   5.383   7.478
13988TIP3   OH241899   4.082   5.852   8.702
13988TIP3    H141900   3.996   5.826   8.663
13988TIP3    H241901   4.062   5.945   8.726
13989TIP3   OH241902   5.351   5.233   7.475
13989TIP3    H141903   5.317   5.323   7.462
13989TIP3    H241904   5.272   5.180   7.454
13990TIP3   OH241905   5.349   5.227   7.881
13990TIP3    H141906   5.386   5.210   7.972
13990TIP3    H241907   5.310   5.140   7.864
13991TIP3   OH241908   4.647   5.120   8.229
13991TIP3    H141909   4.673   5.053   8.296
13991TIP3    H241910   4.727   5.175   8.227
13992TIP3   OH241911   5.606   5.523   7.553
13992TIP3    H141912   5.581   5.458   7.621
13992TIP3    H241913   5.625   5.601   7.608
13993TIP3   OH241914   4.620   5.534   7.955
13993TIP3    H141915   4.609   5.436   7.955
13993TIP3    H241916   4.717   5.540   7.953
13994TIP3   OH241917   4.327   4.737   7.739
13994TIP3    H141918   4.275   4.817   7.758
13994TIP3    H241919   4.258   4.682   7.697
13995TIP3   OH241920   4.382   5.023   7.916
13995TIP3    H141921   4.433   4.945   7.950
13995TIP3    H241922   4.444   5.060   7.851
13996TIP3   OH241923   5.245   5.992   7.566
13996TIP3    H141924   5.290   5.918   7.518
13996TIP3    H241925   5.228   5.952   7.652
13997TIP3   OH241926   5.149   5.453   7.917
13997TIP3    H141927   5.189   5.370   7.885
13997TIP3    H241928   5.231   5.500   7.940
13998TIP3   OH241929   6.166   4.776   7.914
13998TIP3    H141930   6.188   4.854   7.969
13998TIP3    H241931   6.147   4.819   7.828
13999TIP3   OH241932   5.613   4.948   7.893
13999TIP3    H141933   5.620   4.874   7.956
13999TIP3    H241934   5.536   4.922   7.840
14000TIP3   OH241935   4.892   4.609   7.908
14000TIP3    H141936   4.878   4.683   7.845
14000TIP3    H241937   4.822   4.548   7.880
14001TIP3   OH241938   5.594   4.705   7.534
14001TIP3    H141939   5.663   4.689   7.602
14001TIP3    H241940   5.648   4.744   7.463
14002TIP3   OH241941   4.528   4.815   8.019
14002TIP3    H141942   4.611   4.798   8.069
14002TIP3    H241943   4.541   4.755   7.943
14003TIP3   OH241944   4.969   5.012   7.812
14003TIP3    H141945   5.064   4.990   7.825
14003TIP3    H241946   4.932   4.927   7.781
14004TIP3   OH241947   6.222   4.979   8.090
14004TIP3    H141948   6.138   5.028   8.078
14004TIP3    H241949   6.257   5.021   8.171
14005TIP3   OH241950   4.892   4.601   8.341
14005TIP3    H141951   4.836   4.635   8.269
14005TIP3    H241952   4.842   4.632   8.419
14006TIP3   OH241953   5.255   5.466   7.340
14006TIP3    H141954   5.201   5.432   7.266
14006TIP3    H241955   5.197   5.540   7.371
14007TIP3   OH241956   4.999   5.371   8.139
14007TIP3    H141957   4.939   5.439   8.177
14007TIP3    H241958   5.045   5.421   8.068
14008TIP3   OH241959   5.796   4.707   7.718
14008TIP3    H141960   5.760   4.679   7.804
14008TIP3    H241961   5.841   4.790   7.743
14009TIP3   OH241962   4.764   4.714   8.127
14009TIP3    H141963   4.822   4.790   8.153
14009TIP3    H241964   4.819   4.676   8.055
14010TIP3   OH241965   4.825   5.570   8.239
14010TIP3    H141966   4.800   5.658   8.203
14010TIP3    H241967   4.746   5.553   8.295
14011TIP3   OH241968   4.220   5.259   7.476
14011TIP3    H141969   4.176   5.284   7.392
14011TIP3    H241970   4.250   5.346   7.510
14012TIP3   OH241971   5.658   5.777   7.712
14012TIP3    H141972   5.570   5.765   7.756
14012TIP3    H241973   5.644   5.864   7.671
14013TIP3   OH241974   5.953   4.666   8.078
14013TIP3    H141975   5.864   4.693   8.050
14013TIP3    H241976   6.009   4.701   8.006
14014TIP3   OH241977   5.242   4.309   8.060
14014TIP3    H141978   5.229   4.215   8.085
14014TIP3    H241979   5.167   4.350   8.108
14015TIP3   OH241980   5.364   5.815   7.386
14015TIP3    H141981   5.418   5.735   7.370
14015TIP3    H241982   5.424   5.884   7.347
14016TIP3   OH241983   5.507   5.576   7.299
14016TIP3    H141984   5.420   5.531   7.304
14016TIP3    H241985   5.545   5.555   7.387
14017TIP3   OH241986   5.870   5.690   8.050
14017TIP3    H141987   5.863   5.605   8.001
14017TIP3    H241988   5.863   5.756   7.979
14018TIP3   OH241989   5.175   5.080   7.317
14018TIP3    H141990   5.093   5.129   7.297
14018TIP3    H241991   5.218   5.075   7.230
14019TIP3   OH241992   5.135   4.866   7.032
14019TIP3    H141993   5.204   4.916   7.080
14019TIP3    H241994   5.191   4.802   6.983
14020TIP3   OH241995   6.083   5.325   7.901
14020TIP3    H141996   6.000   5.377   7.917
14020TIP3    H241997   6.098   5.342   7.807
14021TIP3   OH241998   5.533   5.165   7.288
14021TIP3    H141999   5.472   5.187   7.363
14021TIP3    H242000   5.612   5.135   7.337
14022TIP3   OH242001   4.759   5.158   7.705
14022TIP3    H142002   4.719   5.099   7.638
14022TIP3    H242003   4.835   5.105   7.736
14023TIP3   OH242004   4.892   5.575   7.851
14023TIP3    H142005   4.870   5.532   7.767
14023TIP3    H242006   4.980   5.537   7.870
14024TIP3   OH242007   4.893   5.132   8.058
14024TIP3    H142008   4.930   5.110   7.970
14024TIP3    H242009   4.939   5.216   8.080
14025TIP3   OH242010   5.422   5.766   7.840
14025TIP3    H142011   5.409   5.841   7.901
14025TIP3    H242012   5.409   5.688   7.899
14026TIP3   OH242013   5.031   5.687   8.382
14026TIP3    H142014   4.968   5.748   8.427
14026TIP3    H242015   4.967   5.633   8.331
14027TIP3   OH242016   5.366   5.020   7.116
14027TIP3    H142017   5.426   5.081   7.165
14027TIP3    H242018   5.390   5.041   7.023
14028TIP3   OH242019   4.787   5.243   8.478
14028TIP3    H142020   4.783   5.330   8.521
14028TIP3    H242021   4.693   5.215   8.487
14029TIP3   OH242022   5.112   5.694   7.390
14029TIP3    H142023   5.187   5.754   7.403
14029TIP3    H242024   5.046   5.752   7.348
14030TIP3   OH242025   4.821   5.840   8.468
14030TIP3    H142026   4.785   5.849   8.378
14030TIP3    H242027   4.741   5.836   8.524
14031TIP3   OH242028   5.882   4.259   7.167
14031TIP3    H142029   5.799   4.278   7.216
14031TIP3    H242030   5.894   4.341   7.115
14032TIP3   OH242031   4.625   4.999   7.507
14032TIP3    H142032   4.558   5.049   7.454
14032TIP3    H242033   4.578   4.917   7.522
14033TIP3   OH242034   5.680   5.626   6.717
14033TIP3    H142035   5.688   5.722   6.697
14033TIP3    H242036   5.773   5.597   6.705
14034TIP3   OH242037   4.407   5.395   8.426
14034TIP3    H142038   4.342   5.381   8.353
14034TIP3    H242039   4.443   5.304   8.439
14035TIP3   OH242040   4.259   5.596   8.023
14035TIP3    H142041   4.351   5.567   8.037
14035TIP3    H242042   4.245   5.653   8.100
14036TIP3   OH242043   5.211   5.826   8.231
14036TIP3    H142044   5.214   5.914   8.273
14036TIP3    H242045   5.148   5.779   8.290
14037TIP3   OH242046   4.995   5.946   7.192
14037TIP3    H142047   4.943   5.925   7.112
14037TIP3    H242048   4.957   6.032   7.219
14038TIP3   OH242049   4.429   5.792   7.578
14038TIP3    H142050   4.473   5.783   7.666
14038TIP3    H242051   4.378   5.708   7.575
14039TIP3   OH242052   5.192   5.849   6.832
14039TIP3    H142053   5.249   5.778   6.795
14039TIP3    H242054   5.226   5.857   6.924
14040TIP3   OH242055   5.245   5.895   7.103
14040TIP3    H142056   5.154   5.906   7.139
14040TIP3    H242057   5.289   5.853   7.179
14041TIP3   OH242058   6.033   5.173   8.347
14041TIP3    H142059   5.947   5.213   8.371
14041TIP3    H242060   6.014   5.077   8.353
14042TIP3   OH242061   4.607   5.575   8.406
14042TIP3    H142062   4.653   5.553   8.490
14042TIP3    H242063   4.530   5.514   8.411
14043TIP3   OH242064   5.007   4.391   8.191
14043TIP3    H142065   4.918   4.360   8.165
14043TIP3    H242066   4.982   4.472   8.241
14044TIP3   OH242067   5.538   4.503   8.389
14044TIP3    H142068   5.602   4.482   8.459
14044TIP3    H242069   5.452   4.487   8.433
14045TIP3   OH242070   5.773   4.973   8.303
14045TIP3    H142071   5.729   4.947   8.386
14045TIP3    H242072   5.702   5.023   8.258
14046TIP3   OH242073   5.443   5.064   6.861
14046TIP3    H142074   5.405   5.040   6.775
14046TIP3    H242075   5.525   5.110   6.834
14047TIP3   OH242076   5.155   4.437   7.166
14047TIP3    H142077   5.115   4.435   7.255
14047TIP3    H242078   5.114   4.357   7.128
14048TIP3   OH242079   4.937   4.908   8.205
14048TIP3    H142080   4.894   4.932   8.290
14048TIP3    H242081   4.923   4.991   8.154
14049TIP3   OH242082   4.823   4.791   7.722
14049TIP3    H142083   4.728   4.770   7.738
14049TIP3    H242084   4.834   4.753   7.632
14050TIP3   OH242085   5.309   4.877   7.447
14050TIP3    H142086   5.259   4.950   7.403
14050TIP3    H242087   5.365   4.844   7.374
14051TIP3   OH242088   5.477   5.191   8.585
14051TIP3    H142089   5.473   5.095   8.601
14051TIP3    H242090   5.545   5.199   8.516
14052TIP3   OH242091   5.442   4.890   7.688
14052TIP3    H142092   5.388   4.917   7.610
14052TIP3    H242093   5.494   4.819   7.644
14053TIP3   OH242094   4.756   4.939   8.418
14053TIP3    H142095   4.801   5.002   8.477
14053TIP3    H242096   4.746   4.860   8.474
14054TIP3   OH242097   4.814   4.420   7.133
14054TIP3    H142098   4.787   4.408   7.225
14054TIP3    H242099   4.737   4.467   7.097
14055TIP3   OH242100   4.346   4.461   8.009
14055TIP3    H142101   4.428   4.489   8.054
14055TIP3    H242102   4.374   4.430   7.921
14056TIP3   OH242103   4.346   4.443   7.515
14056TIP3    H142104   4.364   4.487   7.428
14056TIP3    H242105   4.274   4.502   7.545
14057TIP3   OH242106   5.153   4.613   7.783
14057TIP3    H142107   5.075   4.612   7.842
14057TIP3    H242108   5.227   4.614   7.846
14058TIP3   OH242109   4.582   4.665   7.787
14058TIP3    H142110   4.489   4.693   7.767
14058TIP3    H242111   4.577   4.571   7.765
14059TIP3   OH242112   4.849   4.658   7.482
14059TIP3    H142113   4.943   4.679   7.464
14059TIP3    H242114   4.803   4.686   7.399
14060TIP3   OH242115   5.652   4.675   7.974
14060TIP3    H142116   5.628   4.692   8.068
14060TIP3    H242117   5.574   4.624   7.945
14061TIP3   OH242118   4.701   4.697   7.258
14061TIP3    H142119   4.632   4.654   7.204
14061TIP3    H242120   4.755   4.738   7.186
14062TIP3   OH242121   4.749   5.485   8.632
14062TIP3    H142122   4.838   5.511   8.659
14062TIP3    H242123   4.715   5.440   8.711
14063TIP3   OH242124   5.233   4.947   7.874
14063TIP3    H142125   5.307   4.915   7.819
14063TIP3    H242126   5.256   4.914   7.962
14064TIP3   OH242127   4.743   4.376   7.720
14064TIP3    H142128   4.718   4.325   7.802
14064TIP3    H242129   4.841   4.383   7.733
14065TIP3   OH242130   5.208   4.838   8.182
14065TIP3    H142131   5.118   4.877   8.186
14065TIP3    H242132   5.265   4.914   8.201
14066TIP3   OH242133   4.947   5.231   7.267
14066TIP3    H142134   4.874   5.166   7.254
14066TIP3    H242135   4.926   5.265   7.358
14067TIP3   OH242136   5.849   5.469   7.887
14067TIP3    H142137   5.866   5.514   7.802
14067TIP3    H242138   5.761   5.426   7.871
14068TIP3   OH242139   5.404   4.540   7.135
14068TIP3    H142140   5.308   4.519   7.144
14068TIP3    H242141   5.409   4.635   7.157
14069TIP3   OH242142   5.357   5.570   8.258
14069TIP3    H142143   5.366   5.507   8.332
14069TIP3    H242144   5.295   5.635   8.293
14070TIP3   OH242145   5.472   4.792   7.236
14070TIP3    H142146   5.568   4.798   7.249
14070TIP3    H242147   5.452   4.871   7.181
14071TIP3   OH242148   4.641   5.256   7.940
14071TIP3    H142149   4.681   5.226   7.856
14071TIP3    H242150   4.684   5.199   8.005
14072TIP3   OH242151   5.094   5.382   7.094
14072TIP3    H142152   5.044   5.468   7.096
14072TIP3    H242153   5.036   5.326   7.151
14073TIP3   OH242154   4.526   5.171   8.542
14073TIP3    H142155   4.555   5.169   8.635
14073TIP3    H242156   4.444   5.117   8.544
14074TIP3   OH242157   5.228   5.297   8.561
14074TIP3    H142158   5.203   5.231   8.495
14074TIP3    H242159   5.321   5.268   8.580
14075TIP3   OH242160   5.500   5.843   8.140
14075TIP3    H142161   5.411   5.808   8.156
14075TIP3    H242162   5.528   5.864   8.232
14076TIP3   OH242163   5.914   4.881   7.066
14076TIP3    H142164   5.851   4.838   7.003
14076TIP3    H242165   5.913   4.971   7.026
14077TIP3   OH242166   6.125   5.705   8.143
14077TIP3    H142167   6.029   5.713   8.121
14077TIP3    H242168   6.160   5.687   8.053
14078TIP3   OH242169   5.630   5.699   6.984
14078TIP3    H142170   5.566   5.642   7.032
14078TIP3    H242171   5.633   5.659   6.895
14079TIP3   OH242172   5.613   5.335   7.796
14079TIP3    H142173   5.525   5.310   7.832
14079TIP3    H242174   5.646   5.248   7.770
14080TIP3   OH242175   4.740   5.558   7.565
14080TIP3    H142176   4.735   5.640   7.512
14080TIP3    H242177   4.647   5.541   7.582
14081TIP3   OH242178   4.310   4.859   7.279
14081TIP3    H142179   4.351   4.946   7.298
14081TIP3    H242180   4.230   4.864   7.335
14082TIP3   OH242181   4.876   5.324   7.510
14082TIP3    H142182   4.840   5.413   7.528
14082TIP3    H242183   4.840   5.273   7.586
14083TIP3   OH242184   5.012   5.900   8.035
14083TIP3    H142185   5.056   5.971   7.985
14083TIP3    H242186   5.087   5.862   8.085
14084TIP3   OH242187   4.659   5.797   7.420
14084TIP3    H142188   4.573   5.805   7.466
14084TIP3    H242189   4.690   5.890   7.423
14085TIP3   OH242190   5.404   5.535   7.996
14085TIP3    H142191   5.385   5.541   8.093
14085TIP3    H242192   5.467   5.461   7.997
14086TIP3   OH242193   5.369   5.433   6.872
14086TIP3    H142194   5.419   5.396   6.948
14086TIP3    H242195   5.279   5.402   6.893
14087TIP3   OH242196   5.628   6.086   8.064
14087TIP3    H142197   5.569   6.007   8.061
14087TIP3    H242198   5.611   6.129   7.978
14088TIP3   OH242199   5.711   5.902   6.698
14088TIP3    H142200   5.744   5.970   6.638
14088TIP3    H242201   5.631   5.948   6.732
14089TIP3   OH242202   4.716   4.677   8.545
14089TIP3    H142203   4.621   4.698   8.553
14089TIP3    H242204   4.714   4.581   8.559
14090TIP3   OH242205   5.527   5.345   7.080
14090TIP3    H142206   5.511   5.282   7.153
14090TIP3    H242207   5.586   5.408   7.123
14091TIP3   OH242208   4.448   5.764   8.195
14091TIP3    H142209   4.501   5.689   8.228
14091TIP3    H242210   4.476   5.834   8.255
14092TIP3   OH242211   4.740   5.408   6.879
14092TIP3    H142212   4.749   5.315   6.851
14092TIP3    H242213   4.718   5.398   6.973
14093TIP3   OH242214   4.682   5.415   7.150
14093TIP3    H142215   4.752   5.388   7.211
14093TIP3    H242216   4.685   5.513   7.158
14094TIP3   OH242217   4.418   5.108   7.356
14094TIP3    H142218   4.350   5.152   7.412
14094TIP3    H242219   4.429   5.176   7.287
14095TIP3   OH242220   5.584   4.723   8.229
14095TIP3    H142221   5.599   4.796   8.291
14095TIP3    H242222   5.561   4.650   8.290
14096TIP3   OH242223   5.451   4.491   7.415
14096TIP3    H142224   5.437   4.514   7.321
14096TIP3    H242225   5.492   4.573   7.450
14097TIP3   OH242226   4.952   5.613   7.100
14097TIP3    H142227   4.864   5.636   7.135
14097TIP3    H242228   4.963   5.685   7.036
14098TIP3   OH242229   5.130   4.677   7.515
14098TIP3    H142230   5.195   4.747   7.496
14098TIP3    H242231   5.141   4.666   7.612
14099TIP3   OH242232   5.277   4.395   7.612
14099TIP3    H142233   5.274   4.470   7.674
14099TIP3    H242234   5.341   4.430   7.545
14100TIP3   OH242235   4.697   5.687   7.169
14100TIP3    H142236   4.666   5.757   7.107
14100TIP3    H242237   4.679   5.730   7.256
14101TIP3   OH242238   4.790   4.397   7.431
14101TIP3    H142239   4.809   4.493   7.441
14101TIP3    H242240   4.883   4.369   7.415
14102TIP3   OH242241   6.033   4.883   8.312
14102TIP3    H142242   5.936   4.899   8.308
14102TIP3    H242243   6.050   4.854   8.222
14103TIP3   OH242244   5.707   5.080   7.673
14103TIP3    H142245   5.629   5.042   7.717
14103TIP3    H242246   5.775   5.035   7.729
14104TIP3   OH242247   4.412   5.311   7.160
14104TIP3    H142248   4.481   5.380   7.166
14104TIP3    H242249   4.455   5.254   7.092
14105TIP3   OH242250   4.350   4.587   7.289
14105TIP3    H142251   4.349   4.685   7.288
14105TIP3    H242252   4.274   4.566   7.232
14106TIP3   OH242253   5.661   6.045   7.635
14106TIP3    H142254   5.618   6.097   7.563
14106TIP3    H242255   5.755   6.065   7.615
14107TIP3   OH242256   4.744   4.311   8.162
14107TIP3    H142257   4.711   4.271   8.079
14107TIP3    H242258   4.736   4.236   8.224
14108TIP3   OH242259   4.281   5.533   7.544
14108TIP3    H142260   4.218   5.560   7.613
14108TIP3    H242261   4.242   5.577   7.464
14109TIP3   OH242262   4.446   6.063   8.592
14109TIP3    H142263   4.525   6.021   8.629
14109TIP3    H242264   4.384   5.989   8.596
14110TIP3   OH242265   4.901   5.611   6.789
14110TIP3    H142266   4.845   5.539   6.827
14110TIP3    H242267   4.975   5.559   6.754
14111TIP3   OH242268   5.550   5.916   8.405
14111TIP3    H142269   5.544   5.845   8.471
14111TIP3    H242270   5.629   5.964   8.436
14112TIP3   OH242271   5.337   5.654   6.705
14112TIP3    H142272   5.373   5.582   6.759
14112TIP3    H242273   5.390   5.649   6.623
14113TIP3   OH242274   4.549   5.128   7.013
14113TIP3    H142275   4.605   5.096   7.086
14113TIP3    H242276   4.615   5.132   6.941
14114TIP3   OH242277   5.196   5.568   8.585
14114TIP3    H142278   5.137   5.588   8.511
14114TIP3    H242279   5.205   5.470   8.582
14115TIP3   OH242280   5.072   5.331   6.823
14115TIP3    H142281   5.064   5.341   6.920
14115TIP3    H242282   5.068   5.233   6.815
14116TIP3   OH242283   5.672   5.576   8.214
14116TIP3    H142284   5.741   5.624   8.165
14116TIP3    H242285   5.591   5.618   8.184
14117TIP3   OH242286   4.703   5.183   8.773
14117TIP3    H142287   4.794   5.154   8.760
14117TIP3    H242288   4.689   5.162   8.868
14118TIP3   OH242289   4.754   5.036   7.233
14118TIP3    H142290   4.724   4.996   7.316
14118TIP3    H242291   4.790   4.959   7.184
14119TIP3   OH242292   5.010   5.080   8.455
14119TIP3    H142293   4.945   5.154   8.461
14119TIP3    H242294   5.070   5.116   8.386
14120TIP3   OH242295   4.856   4.830   7.075
14120TIP3    H142296   4.829   4.834   6.981
14120TIP3    H242297   4.954   4.833   7.065
14121TIP3   OH242298   5.680   5.155   6.741
14121TIP3    H142299   5.659   5.108   6.657
14121TIP3    H242300   5.645   5.244   6.717
14122TIP3   OH242301   5.147   4.887   8.591
14122TIP3    H142302   5.150   4.808   8.533
14122TIP3    H242303   5.102   4.952   8.533
14123TIP3   OH242304   5.150   4.673   8.400
14123TIP3    H142305   5.180   4.719   8.319
14123TIP3    H242306   5.058   4.650   8.376
14124TIP3   OH242307   5.175   5.191   8.280
14124TIP3    H142308   5.267   5.182   8.245
14124TIP3    H242309   5.139   5.260   8.221
14125TIP3   OH242310   5.810   5.398   8.384
14125TIP3    H142311   5.742   5.449   8.335
14125TIP3    H242312   5.891   5.432   8.342
14126TIP3   OH242313   4.973   5.007   8.797
14126TIP3    H142314   4.930   4.920   8.792
14126TIP3    H242315   5.044   4.996   8.732
14127TIP3   OH242316   5.282   4.436   8.467
14127TIP3    H142317   5.231   4.518   8.447
14127TIP3    H242318   5.212   4.367   8.456
14128TIP3   OH242319   5.414   4.927   8.663
14128TIP3    H142320   5.403   4.936   8.759
14128TIP3    H242321   5.322   4.906   8.636
14129TIP3   OH242322   5.646   4.877   8.527
14129TIP3    H142323   5.556   4.887   8.566
14129TIP3    H242324   5.698   4.860   8.606
14130TIP3   OH242325   4.866   4.751   8.849
14130TIP3    H142326   4.932   4.704   8.796
14130TIP3    H242327   4.906   4.739   8.937
14131TIP3   OH242328   5.391   4.427   8.720
14131TIP3    H142329   5.455   4.357   8.702
14131TIP3    H242330   5.343   4.435   8.636
14132TIP3   OH242331   4.666   5.891   6.983
14132TIP3    H142332   4.760   5.883   6.960
14132TIP3    H242333   4.635   5.940   6.905
14133TIP3   OH242334   4.142   5.272   7.193
14133TIP3    H142335   4.238   5.291   7.180
14133TIP3    H242336   4.135   5.183   7.152
14134TIP3   OH242337   4.055   5.883   7.615
14134TIP3    H142338   3.992   5.820   7.575
14134TIP3    H242339   4.102   5.824   7.678
14135TIP3   OH242340   4.193   5.732   7.795
14135TIP3    H142341   4.190   5.661   7.863
14135TIP3    H242342   4.243   5.797   7.847
14136TIP3   OH242343   5.916   6.128   7.595
14136TIP3    H142344   5.949   6.159   7.681
14136TIP3    H242345   5.986   6.156   7.534
14137TIP3   OH242346   5.970   6.145   7.876
14137TIP3    H142347   5.919   6.061   7.866
14137TIP3    H242348   5.969   6.154   7.972
14138TIP3   OH242349   5.978   5.584   7.669
14138TIP3    H142350   6.059   5.536   7.645
14138TIP3    H242351   5.993   5.673   7.629
14139TIP3   OH242352   5.820   5.918   7.891
14139TIP3    H142353   5.755   5.934   7.962
14139TIP3    H242354   5.768   5.867   7.825
14140TIP3   OH242355   5.879   5.129   6.926
14140TIP3    H142356   5.810   5.111   6.858
14140TIP3    H242357   5.855   5.220   6.946
14141TIP3   OH242358   5.747   4.794   6.872
14141TIP3    H142359   5.703   4.823   6.792
14141TIP3    H242360   5.726   4.698   6.869
14142TIP3   OH242361   5.780   5.084   7.410
14142TIP3    H142362   5.775   4.988   7.395
14142TIP3    H242363   5.754   5.086   7.506
14143TIP3   OH242364   4.380   5.123   8.173
14143TIP3    H142365   4.377   5.098   8.078
14143TIP3    H242366   4.477   5.132   8.186
14144TIP3   OH242367   6.036   5.471   8.250
14144TIP3    H142368   6.117   5.430   8.286
14144TIP3    H242369   6.071   5.555   8.214
14145TIP3   OH242370   6.258   5.316   8.321
14145TIP3    H142371   6.173   5.267   8.336
14145TIP3    H242372   6.317   5.237   8.319
14146TIP3   OH242373   5.691   4.529   6.864
14146TIP3    H142374   5.761   4.490   6.920
14146TIP3    H242375   5.614   4.470   6.879
14147TIP3   OH242376   5.755   4.790   7.310
14147TIP3    H142377   5.791   4.700   7.330
14147TIP3    H242378   5.809   4.812   7.233
14148TIP3   OH242379   5.916   4.947   7.805
14148TIP3    H142380   6.001   4.982   7.772
14148TIP3    H242381   5.915   4.987   7.894
14149TIP3   OH242382   5.977   5.098   8.033
14149TIP3    H142383   5.907   5.124   8.094
14149TIP3    H242384   6.008   5.185   8.000
14150TIP3   OH242385   5.859   4.537   7.353
14150TIP3    H142386   5.903   4.519   7.438
14150TIP3    H242387   5.797   4.461   7.349
14151TIP3   OH242388   4.564   4.522   8.165
14151TIP3    H142389   4.624   4.446   8.180
14151TIP3    H242390   4.626   4.596   8.164
14152TIP3   OH242391   4.364   4.793   8.250
14152TIP3    H142392   4.410   4.789   8.164
14152TIP3    H242393   4.378   4.885   8.274
14153TIP3   OH242394   6.285   4.834   8.409
14153TIP3    H142395   6.191   4.859   8.396
14153TIP3    H242396   6.288   4.750   8.361
14154TIP3   OH242397   5.941   4.465   6.990
14154TIP3    H142398   5.974   4.394   6.930
14154TIP3    H242399   6.007   4.535   6.977
14155TIP3   OH242400   4.357   4.329   7.763
14155TIP3    H142401   4.269   4.291   7.784
14155TIP3    H242402   4.342   4.359   7.671
14156TIP3   OH242403   5.514   6.000   7.257
14156TIP3    H142404   5.558   5.989   7.170
14156TIP3    H242405   5.564   6.073   7.295
14157TIP3   OH242406   4.581   4.416   8.532
14157TIP3    H142407   4.538   4.357   8.596
14157TIP3    H242408   4.504   4.447   8.480
14158TIP3   OH242409   4.599   5.822   8.647
14158TIP3    H142410   4.509   5.795   8.619
14158TIP3    H242411   4.616   5.759   8.718
14159TIP3   OH242412   4.783   5.841   8.184
14159TIP3    H142413   4.736   5.918   8.145
14159TIP3    H242414   4.870   5.854   8.140
14160TIP3   OH242415   5.237   6.086   8.337
14160TIP3    H142416   5.297   6.059   8.408
14160TIP3    H242417   5.299   6.136   8.279
14161TIP3   OH242418   5.421   6.231   8.190
14161TIP3    H142419   5.478   6.170   8.139
14161TIP3    H242420   5.478   6.308   8.197
14162TIP3   OH242421   6.207   4.594   8.274
14162TIP3    H142422   6.116   4.593   8.240
14162TIP3    H242423   6.233   4.500   8.263
14163TIP3   OH242424   4.462   6.098   8.208
14163TIP3    H142425   4.372   6.131   8.186
14163TIP3    H242426   4.469   6.130   8.299
14164TIP3   OH242427   4.699   6.079   8.070
14164TIP3    H142428   4.612   6.089   8.114
14164TIP3    H242429   4.678   6.108   7.979
14165TIP3   OH242430   5.119   6.103   7.864
14165TIP3    H142431   5.046   6.119   7.801
14165TIP3    H242432   5.128   6.192   7.905
14166TIP3   OH242433   5.384   6.043   7.916
14166TIP3    H142434   5.290   6.059   7.894
14166TIP3    H242435   5.428   6.116   7.868
14167TIP3   OH242436   5.585   6.225   7.825
14167TIP3    H142437   5.568   6.300   7.766
14167TIP3    H242438   5.617   6.158   7.761
14168TIP3   OH242439   4.371   5.890   7.956
14168TIP3    H142440   4.396   5.857   8.045
14168TIP3    H242441   4.441   5.846   7.903
14169TIP3   OH242442   4.566   5.762   7.814
14169TIP3    H142443   4.578   5.677   7.864
14169TIP3    H242444   4.658   5.795   7.811
14170TIP3   OH242445   4.836   5.853   7.817
14170TIP3    H142446   4.863   5.759   7.808
14170TIP3    H242447   4.882   5.874   7.901
14171TIP3   OH242448   5.405   4.507   7.897
14171TIP3    H142449   5.365   4.437   7.951
14171TIP3    H242450   5.482   4.462   7.857
14172TIP3   OH242451   5.926   4.388   7.802
14172TIP3    H142452   5.961   4.444   7.729
14172TIP3    H242453   5.832   4.414   7.802
14173TIP3   OH242454   6.025   4.493   7.568
14173TIP3    H142455   6.100   4.442   7.530
14173TIP3    H242456   6.056   4.585   7.556
14174TIP3   OH242457   4.656   4.213   7.915
14174TIP3    H142458   4.563   4.182   7.917
14174TIP3    H242459   4.703   4.126   7.919
14175TIP3   OH242460   5.086   4.266   7.800
14175TIP3    H142461   5.150   4.302   7.736
14175TIP3    H242462   5.129   4.288   7.884
14176TIP3   OH242463   5.640   4.397   7.781
14176TIP3    H142464   5.646   4.355   7.693
14176TIP3    H242465   5.631   4.318   7.839
14177TIP3   OH242466   5.677   4.324   7.346
14177TIP3    H142467   5.590   4.366   7.361
14177TIP3    H242468   5.663   4.238   7.390
14178TIP3   OH242469   4.158   5.665   7.341
14178TIP3    H142470   4.073   5.631   7.309
14178TIP3    H242471   4.149   5.758   7.314
14179TIP3   OH242472   5.064   4.425   7.429
14179TIP3    H142473   5.128   4.378   7.485
14179TIP3    H242474   5.086   4.518   7.454
14180TIP3   OH242475   4.932   5.844   6.928
14180TIP3    H142476   5.018   5.869   6.889
14180TIP3    H242477   4.909   5.770   6.867
14181TIP3   OH242478   5.653   5.969   7.021
14181TIP3    H142479   5.650   5.871   7.008
14181TIP3    H242480   5.606   6.000   6.941
14182TIP3   OH242481   4.236   5.685   6.982
14182TIP3    H142482   4.237   5.703   7.077
14182TIP3    H242483   4.323   5.641   6.968
14183TIP3   OH242484   7.134   5.481   6.975
14183TIP3    H142485   7.105   5.571   6.952
14183TIP3    H242486   7.063   5.429   6.932
14184TIP3   OH242487   7.103   5.492   7.383
14184TIP3    H142488   7.171   5.438   7.426
14184TIP3    H242489   7.095   5.448   7.297
14185TIP3   OH242490   6.424   5.328   7.724
14185TIP3    H142491   6.474   5.278   7.792
14185TIP3    H242492   6.471   5.415   7.726
14186TIP3   OH242493   6.411   5.782   7.444
14186TIP3    H142494   6.389   5.687   7.448
14186TIP3    H242495   6.490   5.781   7.499
14187TIP3   OH242496   6.113   4.990   7.232
14187TIP3    H142497   6.043   5.022   7.290
14187TIP3    H242498   6.064   4.925   7.178
14188TIP3   OH242499   6.929   5.708   7.346
14188TIP3    H142500   6.959   5.616   7.341
14188TIP3    H242501   7.011   5.752   7.370
14189TIP3   OH242502   7.322   5.201   7.422
14189TIP3    H142503   7.360   5.111   7.431
14189TIP3    H242504   7.300   5.199   7.327
14190TIP3   OH242505   7.389   4.965   7.020
14190TIP3    H142506   7.459   4.943   7.086
14190TIP3    H242507   7.445   5.000   6.948
14191TIP3   OH242508   6.313   5.070   7.511
14191TIP3    H142509   6.400   5.072   7.555
14191TIP3    H242510   6.333   5.021   7.430
14192TIP3   OH242511   6.765   5.269   7.292
14192TIP3    H142512   6.858   5.242   7.312
14192TIP3    H242513   6.725   5.183   7.270
14193TIP3   OH242514   6.675   4.842   7.834
14193TIP3    H142515   6.624   4.892   7.768
14193TIP3    H242516   6.627   4.867   7.917
14194TIP3   OH242517   7.026   5.701   6.846
14194TIP3    H142518   6.998   5.684   6.754
14194TIP3    H242519   6.984   5.789   6.861
14195TIP3   OH242520   7.590   4.948   7.204
14195TIP3    H142521   7.542   4.918   7.284
14195TIP3    H242522   7.643   5.020   7.241
14196TIP3   OH242523   6.560   4.977   7.609
14196TIP3    H142524   6.613   5.049   7.651
14196TIP3    H242525   6.607   4.972   7.525
14197TIP3   OH242526   6.018   5.507   6.978
14197TIP3    H142527   5.970   5.524   6.895
14197TIP3    H242528   6.044   5.598   7.004
14198TIP3   OH242529   7.049   4.569   7.543
14198TIP3    H142530   7.043   4.472   7.552
14198TIP3    H242531   7.008   4.598   7.625
14199TIP3   OH242532   7.285   5.884   6.767
14199TIP3    H142533   7.263   5.799   6.725
14199TIP3    H242534   7.346   5.858   6.836
14200TIP3   OH242535   6.972   5.337   6.803
14200TIP3    H142536   6.892   5.389   6.781
14200TIP3    H242537   7.018   5.334   6.717
14201TIP3   OH242538   6.932   5.123   6.518
14201TIP3    H142539   7.000   5.174   6.566
14201TIP3    H242540   6.988   5.059   6.470
14202TIP3   OH242541   7.320   5.417   6.780
14202TIP3    H142542   7.266   5.441   6.859
14202TIP3    H242543   7.404   5.393   6.823
14203TIP3   OH242544   6.555   5.418   7.195
14203TIP3    H142545   6.513   5.359   7.128
14203TIP3    H242546   6.633   5.364   7.222
14204TIP3   OH242547   6.700   5.853   7.316
14204TIP3    H142548   6.647   5.806   7.249
14204TIP3    H242549   6.776   5.791   7.328
14205TIP3   OH242550   6.721   5.387   7.554
14205TIP3    H142551   6.736   5.384   7.458
14205TIP3    H242552   6.687   5.477   7.571
14206TIP3   OH242553   7.159   5.278   6.603
14206TIP3    H142554   7.219   5.337   6.653
14206TIP3    H242555   7.185   5.298   6.510
14207TIP3   OH242556   6.912   5.955   6.860
14207TIP3    H142557   6.971   6.007   6.918
14207TIP3    H242558   6.845   6.019   6.831
14208TIP3   OH242559   7.677   4.515   6.653
14208TIP3    H142560   7.595   4.536   6.702
14208TIP3    H242561   7.690   4.597   6.600
14209TIP3   OH242562   6.421   5.259   6.998
14209TIP3    H142563   6.352   5.303   6.942
14209TIP3    H242564   6.388   5.169   7.002
14210TIP3   OH242565   7.478   5.886   6.203
14210TIP3    H142566   7.486   5.984   6.197
14210TIP3    H242567   7.569   5.859   6.176
14211TIP3   OH242568   6.195   5.642   7.890
14211TIP3    H142569   6.143   5.594   7.825
14211TIP3    H242570   6.269   5.580   7.908
14212TIP3   OH242571   6.056   5.824   7.536
14212TIP3    H142572   6.152   5.832   7.523
14212TIP3    H242573   6.034   5.907   7.581
14213TIP3   OH242574   6.776   6.201   6.683
14213TIP3    H142575   6.734   6.178   6.598
14213TIP3    H242576   6.741   6.289   6.701
14214TIP3   OH242577   6.219   6.049   7.062
14214TIP3    H142578   6.265   6.038   7.148
14214TIP3    H242579   6.160   5.972   7.063
14215TIP3   OH242580   6.983   6.094   6.311
14215TIP3    H142581   7.041   6.025   6.271
14215TIP3    H242582   7.019   6.098   6.402
14216TIP3   OH242583   7.019   6.127   6.585
14216TIP3    H142584   6.936   6.149   6.632
14216TIP3    H242585   7.051   6.053   6.638
14217TIP3   OH242586   7.331   4.749   7.857
14217TIP3    H142587   7.392   4.790   7.921
14217TIP3    H242588   7.247   4.747   7.906
14218TIP3   OH242589   7.238   5.317   6.347
14218TIP3    H142590   7.202   5.296   6.259
14218TIP3    H242591   7.320   5.364   6.323
14219TIP3   OH242592   6.949   4.696   6.651
14219TIP3    H142593   6.915   4.692   6.742
14219TIP3    H242594   6.910   4.613   6.616
14220TIP3   OH242595   6.737   5.161   7.695
14220TIP3    H142596   6.699   5.187   7.781
14220TIP3    H242597   6.731   5.246   7.645
14221TIP3   OH242598   6.632   5.034   7.228
14221TIP3    H142599   6.539   5.010   7.244
14221TIP3    H242600   6.643   5.000   7.137
14222TIP3   OH242601   7.106   5.134   6.934
14222TIP3    H142602   7.056   5.206   6.890
14222TIP3    H242603   7.163   5.102   6.861
14223TIP3   OH242604   7.257   5.162   7.164
14223TIP3    H142605   7.195   5.185   7.091
14223TIP3    H242606   7.295   5.081   7.123
14224TIP3   OH242607   6.571   5.181   7.915
14224TIP3    H142608   6.618   5.235   7.981
14224TIP3    H242609   6.551   5.101   7.969
14225TIP3   OH242610   6.607   4.672   6.614
14225TIP3    H142611   6.597   4.670   6.711
14225TIP3    H242612   6.528   4.723   6.588
14226TIP3   OH242613   6.144   4.722   7.482
14226TIP3    H142614   6.228   4.743   7.527
14226TIP3    H242615   6.172   4.680   7.399
14227TIP3   OH242616   6.120   4.697   7.011
14227TIP3    H142617   6.161   4.732   6.929
14227TIP3    H242618   6.050   4.765   7.023
14228TIP3   OH242619   6.946   4.874   7.267
14228TIP3    H142620   6.897   4.945   7.311
14228TIP3    H242621   7.022   4.860   7.327
14229TIP3   OH242622   6.374   4.925   7.275
14229TIP3    H142623   6.282   4.958   7.257
14229TIP3    H242624   6.371   4.842   7.226
14230TIP3   OH242625   6.644   4.924   6.973
14230TIP3    H142626   6.738   4.939   6.952
14230TIP3    H242627   6.599   4.947   6.888
14231TIP3   OH242628   7.401   4.940   7.425
14231TIP3    H142629   7.426   4.922   7.518
14231TIP3    H242630   7.329   4.875   7.410
14232TIP3   OH242631   6.495   4.962   6.744
14232TIP3    H142632   6.428   4.913   6.692
14232TIP3    H242633   6.549   4.999   6.672
14233TIP3   OH242634   7.014   5.168   7.359
14233TIP3    H142635   7.100   5.161   7.315
14233TIP3    H242636   7.038   5.152   7.453
14234TIP3   OH242637   7.004   5.093   7.660
14234TIP3    H142638   6.913   5.129   7.674
14234TIP3    H242639   7.053   5.132   7.734
14235TIP3   OH242640   6.741   5.488   6.751
14235TIP3    H142641   6.668   5.423   6.740
14235TIP3    H242642   6.722   5.522   6.842
14236TIP3   OH242643   7.200   4.799   6.620
14236TIP3    H142644   7.104   4.779   6.629
14236TIP3    H242645   7.206   4.894   6.643
14237TIP3   OH242646   7.269   5.049   6.721
14237TIP3    H142647   7.365   5.056   6.735
14237TIP3    H242648   7.249   5.129   6.668
14238TIP3   OH242649   6.393   5.481   7.422
14238TIP3    H142650   6.452   5.463   7.346
14238TIP3    H242651   6.453   5.467   7.498
14239TIP3   OH242652   6.891   5.637   6.578
14239TIP3    H142653   6.842   5.723   6.582
14239TIP3    H242654   6.836   5.582   6.637
14240TIP3   OH242655   6.304   5.413   8.056
14240TIP3    H142656   6.284   5.393   8.149
14240TIP3    H242657   6.229   5.371   8.010
14241TIP3   OH242658   7.710   5.139   6.552
14241TIP3    H142659   7.648   5.094   6.490
14241TIP3    H242660   7.703   5.228   6.512
14242TIP3   OH242661   7.357   5.947   6.451
14242TIP3    H142662   7.379   5.883   6.520
14242TIP3    H242663   7.409   5.916   6.375
14243TIP3   OH242664   6.539   5.822   7.064
14243TIP3    H142665   6.535   5.899   7.003
14243TIP3    H242666   6.446   5.796   7.065
14244TIP3   OH242667   6.104   5.117   6.760
14244TIP3    H142668   6.150   5.202   6.778
14244TIP3    H242669   6.027   5.125   6.821
14245TIP3   OH242670   6.667   5.581   6.995
14245TIP3    H142671   6.639   5.672   7.019
14245TIP3    H242672   6.636   5.530   7.072
14246TIP3   OH242673   6.454   6.050   6.907
14246TIP3    H142674   6.368   6.061   6.951
14246TIP3    H242675   6.488   6.142   6.910
14247TIP3   OH242676   7.170   5.679   6.369
14247TIP3    H142677   7.222   5.663   6.450
14247TIP3    H242678   7.081   5.654   6.398
14248TIP3   OH242679   7.497   6.161   6.191
14248TIP3    H142680   7.535   6.205   6.114
14248TIP3    H242681   7.414   6.214   6.202
14249TIP3   OH242682   6.525   4.928   8.051
14249TIP3    H142683   6.432   4.940   8.077
14249TIP3    H242684   6.559   4.876   8.126
14250TIP3   OH242685   7.320   5.628   6.596
14250TIP3    H142686   7.312   5.555   6.661
14250TIP3    H242687   7.416   5.618   6.575
14251TIP3   OH242688   6.254   6.019   7.687
14251TIP3    H142689   6.280   5.930   7.716
14251TIP3    H242690   6.246   6.065   7.772
14252TIP3   OH242691   6.531   5.668   6.367
14252TIP3    H142692   6.546   5.576   6.337
14252TIP3    H242693   6.511   5.655   6.462
14253TIP3   OH242694   6.477   5.671   6.641
14253TIP3    H142695   6.555   5.645   6.691
14253TIP3    H242696   6.481   5.769   6.646
14254TIP3   OH242697   6.212   5.362   6.842
14254TIP3    H142698   6.150   5.411   6.899
14254TIP3    H242699   6.228   5.429   6.772
14255TIP3   OH242700   7.253   4.752   6.897
14255TIP3    H142701   7.238   4.775   6.803
14255TIP3    H242702   7.292   4.836   6.932
14256TIP3   OH242703   6.745   5.865   6.586
14256TIP3    H142704   6.658   5.893   6.620
14256TIP3    H242705   6.761   5.934   6.520
14257TIP3   OH242706   6.926   4.934   6.997
14257TIP3    H142707   6.992   5.005   6.980
14257TIP3    H242708   6.938   4.919   7.094
14258TIP3   OH242709   7.082   4.646   7.086
14258TIP3    H142710   7.077   4.711   7.158
14258TIP3    H242711   7.146   4.689   7.024
14259TIP3   OH242712   6.491   5.944   6.654
14259TIP3    H142713   6.462   6.015   6.592
14259TIP3    H242714   6.475   5.987   6.741
14260TIP3   OH242715   6.589   4.658   6.889
14260TIP3    H142716   6.590   4.747   6.928
14260TIP3    H242717   6.684   4.635   6.899
14261TIP3   OH242718   7.526   5.274   7.179
14261TIP3    H142719   7.435   5.239   7.182
14261TIP3    H242720   7.563   5.241   7.264
14262TIP3   OH242721   6.208   5.568   6.647
14262TIP3    H142722   6.280   5.634   6.654
14262TIP3    H242723   6.249   5.510   6.579
14263TIP3   OH242724   6.145   4.845   6.784
14263TIP3    H142725   6.147   4.942   6.776
14263TIP3    H242726   6.077   4.821   6.719
14264TIP3   OH242727   6.564   4.541   7.641
14264TIP3    H142728   6.468   4.521   7.646
14264TIP3    H242729   6.590   4.491   7.722
14265TIP3   OH242730   6.066   5.776   7.032
14265TIP3    H142731   6.005   5.819   7.094
14265TIP3    H242732   6.041   5.821   6.948
14266TIP3   OH242733   6.698   5.869   6.277
14266TIP3    H142734   6.644   5.795   6.313
14266TIP3    H242735   6.773   5.820   6.239
14267TIP3   OH242736   7.134   5.905   6.187
14267TIP3    H142737   7.187   5.857   6.254
14267TIP3    H242738   7.194   5.903   6.109
14268TIP3   OH242739   6.344   5.382   6.503
14268TIP3    H142740   6.403   5.352   6.574
14268TIP3    H242741   6.409   5.388   6.429
14269TIP3   OH242742   6.854   5.584   6.309
14269TIP3    H142743   6.858   5.596   6.406
14269TIP3    H242744   6.856   5.486   6.303
14270TIP3   OH242745   6.546   5.291   6.716
14270TIP3    H142746   6.525   5.248   6.801
14270TIP3    H242747   6.586   5.218   6.665
14271TIP3   OH242748   6.821   5.345   7.926
14271TIP3    H142749   6.777   5.402   7.991
14271TIP3    H242750   6.832   5.405   7.852
14272TIP3   OH242751   6.654   5.088   6.561
14272TIP3    H142752   6.628   5.092   6.466
14272TIP3    H242753   6.752   5.090   6.552
14273TIP3   OH242754   7.470   5.414   6.228
14273TIP3    H142755   7.450   5.370   6.143
14273TIP3    H242756   7.439   5.505   6.207
14274TIP3   OH242757   2.002   0.230   3.190
14274TIP3    H142758   2.042   0.165   3.131
14274TIP3    H242759   1.978   0.301   3.127
14275TIP3   OH242760   6.940   4.905   7.870
14275TIP3    H142761   6.965   4.958   7.793
14275TIP3    H242762   6.844   4.890   7.857
14276TIP3   OH242763   7.078   4.696   7.972
14276TIP3    H142764   7.029   4.776   7.940
14276TIP3    H242765   7.012   4.627   7.955
14277TIP3   OH242766   6.643   5.025   8.363
14277TIP3    H142767   6.665   4.943   8.315
14277TIP3    H242768   6.708   5.023   8.435
14278TIP3   OH242769   7.180   4.699   8.230
14278TIP3    H142770   7.248   4.637   8.200
14278TIP3    H242771   7.127   4.707   8.148
14279TIP3   OH242772   6.463   6.151   6.469
14279TIP3    H142773   6.557   6.140   6.447
14279TIP3    H242774   6.432   6.197   6.389
14280TIP3   OH242775   5.941   5.520   6.695
14280TIP3    H142776   6.033   5.546   6.676
14280TIP3    H242777   5.934   5.436   6.645
14281TIP3   OH242778   5.854   6.140   7.100
14281TIP3    H142779   5.788   6.081   7.057
14281TIP3    H242780   5.899   6.077   7.159
14282TIP3   OH242781   5.987   5.974   7.274
14282TIP3    H142782   5.971   5.907   7.343
14282TIP3    H242783   6.036   6.040   7.326
14283TIP3   OH242784   7.588   5.587   6.564
14283TIP3    H142785   7.648   5.645   6.511
14283TIP3    H242786   7.646   5.563   6.640
14284TIP3   OH242787   7.735   5.472   6.770
14284TIP3    H142788   7.664   5.421   6.814
14284TIP3    H242789   7.807   5.465   6.834
14285TIP3   OH242790   7.667   5.372   6.412
14285TIP3    H142791   7.598   5.377   6.342
14285TIP3    H242792   7.637   5.447   6.468
14286TIP3   OH242793   7.543   5.047   6.361
14286TIP3    H142794   7.500   5.084   6.284
14286TIP3    H242795   7.520   4.952   6.352
14287TIP3   OH242796   7.555   5.313   6.903
14287TIP3    H142797   7.555   5.218   6.881
14287TIP3    H242798   7.551   5.310   7.002
14288TIP3   OH242799   6.183   5.404   7.629
14288TIP3    H142800   6.230   5.387   7.546
14288TIP3    H242801   6.262   5.392   7.687
14289TIP3   OH242802   7.488   4.781   6.345
14289TIP3    H142803   7.560   4.748   6.403
14289TIP3    H242804   7.413   4.723   6.366
14290TIP3   OH242805   7.550   5.045   6.797
14290TIP3    H142806   7.587   4.955   6.814
14290TIP3    H242807   7.606   5.072   6.722
14291TIP3   OH242808   6.381   5.072   8.307
14291TIP3    H142809   6.478   5.069   8.323
14291TIP3    H242810   6.353   4.995   8.362
14292TIP3   OH242811   7.651   4.794   6.839
14292TIP3    H142812   7.701   4.776   6.922
14292TIP3    H242813   7.591   4.716   6.837
14293TIP3   OH242814   6.379   4.759   7.627
14293TIP3    H142815   6.406   4.728   7.714
14293TIP3    H242816   6.414   4.850   7.628
14294TIP3   OH242817   6.158   5.047   7.737
14294TIP3    H142818   6.206   5.056   7.651
14294TIP3    H242819   6.194   5.122   7.786
14295TIP3   OH242820   7.734   4.722   6.477
14295TIP3    H142821   7.772   4.653   6.419
14295TIP3    H242822   7.801   4.794   6.469
14296TIP3   OH242823   6.147   4.566   7.246
14296TIP3    H142824   6.053   4.547   7.266
14296TIP3    H242825   6.139   4.615   7.161
14297TIP3   OH242826   6.360   4.623   8.036
14297TIP3    H142827   6.320   4.623   8.125
14297TIP3    H242828   6.292   4.670   7.985
14298TIP3   OH242829   6.151   6.124   7.445
14298TIP3    H142830   6.193   6.109   7.532
14298TIP3    H242831   6.224   6.091   7.387
14299TIP3   OH242832   6.347   6.008   7.299
14299TIP3    H142833   6.372   5.924   7.345
14299TIP3    H242834   6.435   6.045   7.278
14300TIP3   OH242835   6.598   6.105   7.262
14300TIP3    H142836   6.637   6.017   7.246
14300TIP3    H242837   6.655   6.137   7.333
14301TIP3   OH242838   7.192   4.753   7.374
14301TIP3    H142839   7.148   4.681   7.423
14301TIP3    H242840   7.269   4.706   7.334
14302TIP3   OH242841   7.726   4.645   7.282
14302TIP3    H142842   7.760   4.703   7.210
14302TIP3    H242843   7.634   4.674   7.290
14303TIP3   OH242844   7.824   4.752   7.050
14303TIP3    H142845   7.895   4.694   7.013
14303TIP3    H242846   7.870   4.839   7.048
14304TIP3   OH242847   6.459   4.474   7.379
14304TIP3    H142848   6.362   4.459   7.374
14304TIP3    H242849   6.488   4.380   7.383
14305TIP3   OH242850   6.247   4.347   7.057
14305TIP3    H142851   6.274   4.399   6.979
14305TIP3    H242852   6.214   4.415   7.117
14306TIP3   OH242853   7.432   4.648   7.268
14306TIP3    H142854   7.450   4.605   7.183
14306TIP3    H242855   7.426   4.571   7.328
14307TIP3   OH242856   7.472   4.579   6.831
14307TIP3    H142857   7.387   4.624   6.848
14307TIP3    H242858   7.457   4.494   6.877
14308TIP3   OH242859   5.954   5.924   6.833
14308TIP3    H142860   5.869   5.890   6.800
14308TIP3    H242861   5.948   6.016   6.802
14309TIP3   OH242862   6.358   4.503   6.817
14309TIP3    H142863   6.404   4.439   6.758
14309TIP3    H242864   6.433   4.557   6.849
14310TIP3   OH242865   6.867   4.681   6.914
14310TIP3    H142866   6.933   4.637   6.972
14310TIP3    H242867   6.885   4.774   6.938
14311TIP3   OH242868   6.728   6.102   6.415
14311TIP3    H142869   6.816   6.123   6.376
14311TIP3    H242870   6.704   6.027   6.355
14312TIP3   OH242871   7.441   6.204   6.491
14312TIP3    H142872   7.406   6.113   6.490
14312TIP3    H242873   7.467   6.212   6.398
14313TIP3   OH242874   6.649   4.742   8.273
14313TIP3    H142875   6.610   4.681   8.338
14313TIP3    H242876   6.743   4.740   8.304
14314TIP3   OH242877   6.897   4.730   8.388
14314TIP3    H142878   6.989   4.732   8.359
14314TIP3    H242879   6.905   4.720   8.485
14315TIP3   OH242880   6.031   5.937   6.469
14315TIP3    H142881   6.036   5.965   6.562
14315TIP3    H242882   6.120   5.896   6.455
14316TIP3   OH242883   7.902   5.248   6.718
14316TIP3    H142884   7.855   5.332   6.702
14316TIP3    H242885   7.843   5.187   6.670
14317TIP3   OH242886   7.749   5.732   6.402
14317TIP3    H142887   7.734   5.763   6.311
14317TIP3    H242888   7.730   5.816   6.452
14318TIP3   OH242889   8.812   4.928   6.072
14318TIP3    H142890   8.781   4.985   6.145
14318TIP3    H242891   8.747   4.855   6.077
14319TIP3   OH242892   8.407   4.933   6.101
14319TIP3    H142893   8.390   4.926   6.197
14319TIP3    H242894   8.328   4.983   6.073
14320TIP3   OH242895   7.977   4.963   6.976
14320TIP3    H142896   8.028   5.037   6.935
14320TIP3    H242897   7.964   4.909   6.895
14321TIP3   OH242898   7.909   4.946   6.493
14321TIP3    H142899   7.958   4.982   6.415
14321TIP3    H242900   7.849   5.021   6.510
14322TIP3   OH242901   8.128   5.121   6.827
14322TIP3    H142902   8.071   5.165   6.761
14322TIP3    H242903   8.191   5.070   6.771
14323TIP3   OH242904   8.483   5.151   6.426
14323TIP3    H142905   8.533   5.233   6.437
14323TIP3    H242906   8.418   5.179   6.358
14324TIP3   OH242907   8.296   5.212   6.240
14324TIP3    H142908   8.219   5.171   6.197
14324TIP3    H242909   8.349   5.237   6.162
14325TIP3   OH242910   8.316   4.950   6.720
14325TIP3    H142911   8.293   4.870   6.772
14325TIP3    H242912   8.384   4.916   6.660
14326TIP3   OH242913   7.884   5.353   6.243
14326TIP3    H142914   7.924   5.443   6.248
14326TIP3    H242915   7.810   5.364   6.307
14327TIP3   OH242916   8.323   5.874   5.826
14327TIP3    H142917   8.293   5.796   5.776
14327TIP3    H242918   8.413   5.846   5.848
14328TIP3   OH242919   7.959   5.608   6.278
14328TIP3    H142920   7.886   5.633   6.338
14328TIP3    H242921   8.015   5.686   6.290
14329TIP3   OH242922   8.373   4.900   6.373
14329TIP3    H142923   8.386   4.991   6.406
14329TIP3    H242924   8.466   4.869   6.379
14330TIP3   OH242925   7.997   5.867   6.093
14330TIP3    H142926   8.022   5.856   6.188
14330TIP3    H242927   8.051   5.797   6.050
14331TIP3   OH242928   7.953   5.092   6.266
14331TIP3    H142929   7.947   5.190   6.265
14331TIP3    H242930   7.874   5.068   6.217
14332TIP3   OH242931   8.159   5.661   5.994
14332TIP3    H142932   8.203   5.602   6.059
14332TIP3    H242933   8.218   5.648   5.916
14333TIP3   OH242934   8.320   5.513   6.169
14333TIP3    H142935   8.348   5.470   6.252
14333TIP3    H242936   8.364   5.452   6.105
14334TIP3   OH242937   8.452   5.320   6.029
14334TIP3    H142938   8.420   5.316   5.936
14334TIP3    H242939   8.532   5.372   6.018
14335TIP3   OH242940   7.731   5.791   6.131
14335TIP3    H142941   7.824   5.818   6.116
14335TIP3    H242942   7.731   5.700   6.095
14336TIP3   OH242943   7.927   4.829   6.739
14336TIP3    H142944   7.832   4.808   6.746
14336TIP3    H242945   7.930   4.877   6.653
14337TIP3   OH242946   8.250   4.741   6.889
14337TIP3    H142947   8.158   4.710   6.894
14337TIP3    H242948   8.297   4.655   6.898
14338TIP3   OH242949   8.039   4.604   6.541
14338TIP3    H142950   8.066   4.657   6.465
14338TIP3    H242951   8.012   4.672   6.605
14339TIP3   OH242952   8.145   4.755   6.302
14339TIP3    H142953   8.195   4.694   6.245
14339TIP3    H242954   8.218   4.811   6.337
14340TIP3   OH242955   8.648   4.911   6.435
14340TIP3    H142956   8.680   4.834   6.488
14340TIP3    H242957   8.614   4.973   6.503
14341TIP3   OH242958   7.784   6.148   5.957
14341TIP3    H142959   7.808   6.224   6.013
14341TIP3    H242960   7.873   6.120   5.927
14342TIP3   OH242961   2.123   6.141   8.493
14342TIP3    H142962   2.138   6.133   8.589
14342TIP3    H242963   2.203   6.100   8.458
14343TIP3   OH242964   1.632   5.997   8.185
14343TIP3    H142965   1.668   5.994   8.276
14343TIP3    H242966   1.704   6.044   8.140
14344TIP3   OH242967   1.851   6.022   8.378
14344TIP3    H142968   1.841   5.947   8.437
14344TIP3    H242969   1.934   6.059   8.411
14345TIP3   OH242970   1.192   6.269   7.910
14345TIP3    H142971   1.117   6.330   7.906
14345TIP3    H242972   1.259   6.311   7.851
14346TIP3   OH242973   1.180   6.154   7.659
14346TIP3    H142974   1.219   6.168   7.748
14346TIP3    H242975   1.252   6.104   7.615
14347TIP3   OH242976   1.592   6.424   7.941
14347TIP3    H142977   1.575   6.488   8.013
14347TIP3    H242978   1.674   6.384   7.976
14348TIP3   OH242979   1.408   6.329   7.767
14348TIP3    H142980   1.485   6.368   7.814
14348TIP3    H242981   1.432   6.348   7.672
14349TIP3   OH242982   1.925   5.561   7.828
14349TIP3    H142983   1.843   5.582   7.879
14349TIP3    H242984   1.938   5.644   7.778
14350TIP3   OH242985   1.742   6.920   7.342
14350TIP3    H142986   1.755   7.016   7.334
14350TIP3    H242987   1.835   6.888   7.350
14351TIP3   OH242988   1.483   6.361   7.510
14351TIP3    H142989   1.453   6.335   7.421
14351TIP3    H242990   1.568   6.406   7.490
14352TIP3   OH242991   1.184   5.758   7.799
14352TIP3    H142992   1.171   5.754   7.897
14352TIP3    H242993   1.158   5.665   7.778
14353TIP3   OH242994   1.353   6.180   8.108
14353TIP3    H142995   1.299   6.199   8.028
14353TIP3    H242996   1.434   6.143   8.068
14354TIP3   OH242997   1.441   5.852   7.780
14354TIP3    H142998   1.346   5.833   7.795
14354TIP3    H242999   1.454   5.941   7.818
14355TIP3   OH243000   1.522   6.091   7.894
14355TIP3    H143001   1.617   6.093   7.917
14355TIP3    H243002   1.511   6.170   7.839
14356TIP3   OH243003   1.957   6.184   7.733
14356TIP3    H143004   1.895   6.140   7.670
14356TIP3    H243005   1.957   6.273   7.691
14357TIP3   OH243006   1.406   6.728   7.520
14357TIP3    H143007   1.470   6.680   7.578
14357TIP3    H243008   1.327   6.711   7.575
14358TIP3   OH243009   1.813   7.230   7.324
14358TIP3    H143010   1.798   7.286   7.244
14358TIP3    H243011   1.723   7.229   7.361
14359TIP3   OH243012   1.553   6.594   7.711
14359TIP3    H143013   1.561   6.541   7.793
14359TIP3    H243014   1.640   6.636   7.710
14360TIP3   OH243015   1.512   5.785   8.065
14360TIP3    H143016   1.490   5.818   7.976
14360TIP3    H243017   1.551   5.865   8.108
14361TIP3   OH243018   1.180   5.982   8.194
14361TIP3    H143019   1.259   6.035   8.170
14361TIP3    H243020   1.212   5.929   8.268
14362TIP3   OH243021   1.331   5.699   8.264
14362TIP3    H143022   1.358   5.725   8.356
14362TIP3    H243023   1.406   5.736   8.213
14363TIP3   OH243024   1.362   6.962   7.345
14363TIP3    H143025   1.410   6.910   7.412
14363TIP3    H243026   1.421   6.955   7.268
14364TIP3   OH243027   0.999   6.596   7.561
14364TIP3    H143028   1.074   6.629   7.617
14364TIP3    H243029   1.046   6.518   7.523
14365TIP3   OH243030   0.931   6.172   7.782
14365TIP3    H143031   0.900   6.159   7.690
14365TIP3    H243032   1.025   6.153   7.767
14366TIP3   OH243033   1.721   6.458   7.403
14366TIP3    H143034   1.702   6.412   7.319
14366TIP3    H243035   1.688   6.548   7.379
14367TIP3   OH243036   1.865   6.644   7.735
14367TIP3    H143037   1.936   6.701   7.697
14367TIP3    H243038   1.915   6.595   7.806
14368TIP3   OH243039   1.979   6.501   7.934
14368TIP3    H143040   1.926   6.463   8.007
14368TIP3    H243041   2.054   6.540   7.985
14369TIP3   OH243042   1.923   6.419   7.582
14369TIP3    H143043   1.852   6.418   7.514
14369TIP3    H243044   1.893   6.494   7.636
14370TIP3   OH243045   1.788   6.096   7.540
14370TIP3    H143046   1.752   6.126   7.455
14370TIP3    H243047   1.768   5.999   7.535
14371TIP3   OH243048   1.803   6.344   8.103
14371TIP3    H143049   1.819   6.251   8.075
14371TIP3    H243050   1.762   6.332   8.190
14372TIP3   OH243051   1.736   5.830   7.526
14372TIP3    H143052   1.811   5.796   7.578
14372TIP3    H243053   1.665   5.767   7.546
14373TIP3   OH243054   1.803   6.096   7.970
14373TIP3    H143055   1.836   6.005   7.988
14373TIP3    H243056   1.860   6.120   7.895
14374TIP3   OH243057   1.901   5.842   8.010
14374TIP3    H143058   1.946   5.823   8.094
14374TIP3    H243059   1.837   5.767   8.007
14375TIP3   OH243060   1.982   5.768   7.650
14375TIP3    H143061   2.021   5.697   7.595
14375TIP3    H243062   2.050   5.838   7.646
14376TIP3   OH243063   1.994   5.797   8.499
14376TIP3    H143064   2.018   5.794   8.404
14376TIP3    H243065   1.920   5.731   8.501
14377TIP3   OH243066   2.067   5.789   8.226
14377TIP3    H143067   2.140   5.739   8.185
14377TIP3    H243068   2.100   5.881   8.212
14378TIP3   OH243069   1.779   5.622   8.466
14378TIP3    H143070   1.683   5.645   8.464
14378TIP3    H243071   1.786   5.554   8.395
14379TIP3   OH243072   1.724   5.626   8.005
14379TIP3    H143073   1.641   5.674   8.027
14379TIP3    H243074   1.705   5.540   8.049
14380TIP3   OH243075   1.150   5.739   8.065
14380TIP3    H143076   1.206   5.708   8.139
14380TIP3    H243077   1.117   5.822   8.103
14381TIP3   OH243078   3.187   6.784   7.635
14381TIP3    H143079   3.156   6.874   7.615
14381TIP3    H243080   3.114   6.732   7.597
14382TIP3   OH243081   3.189   6.773   8.010
14382TIP3    H143082   3.216   6.758   8.102
14382TIP3    H243083   3.148   6.688   7.987
14383TIP3   OH243084   3.434   7.083   7.698
14383TIP3    H143085   3.417   7.021   7.770
14383TIP3    H243086   3.470   7.160   7.746
14384TIP3   OH243087   2.168   6.286   7.888
14384TIP3    H143088   2.123   6.370   7.908
14384TIP3    H243089   2.094   6.236   7.848
14385TIP3   OH243090   2.224   6.571   8.029
14385TIP3    H143091   2.273   6.514   8.091
14385TIP3    H243092   2.294   6.611   7.978
14386TIP3   OH243093   3.084   7.532   7.723
14386TIP3    H143094   3.125   7.471   7.657
14386TIP3    H243095   3.113   7.489   7.805
14387TIP3   OH243096   2.994   6.975   8.044
14387TIP3    H143097   3.042   6.901   8.004
14387TIP3    H243098   3.070   7.028   8.073
14388TIP3   OH243099   3.995   6.327   8.066
14388TIP3    H143100   4.025   6.409   8.111
14388TIP3    H243101   4.025   6.344   7.975
14389TIP3   OH243102   3.393   6.512   8.103
14389TIP3    H143103   3.435   6.427   8.127
14389TIP3    H243104   3.366   6.495   8.011
14390TIP3   OH243105   2.740   6.170   8.060
14390TIP3    H143106   2.718   6.242   7.997
14390TIP3    H243107   2.692   6.095   8.017
14391TIP3   OH243108   3.433   6.269   7.688
14391TIP3    H143109   3.501   6.252   7.757
14391TIP3    H243110   3.488   6.298   7.613
14392TIP3   OH243111   2.389   6.395   8.162
14392TIP3    H143112   2.466   6.357   8.210
14392TIP3    H243113   2.390   6.337   8.082
14393TIP3   OH243114   2.803   6.567   7.975
14393TIP3    H143115   2.899   6.545   7.980
14393TIP3    H243116   2.765   6.484   7.939
14394TIP3   OH243117   4.066   6.530   8.248
14394TIP3    H143118   3.987   6.584   8.227
14394TIP3    H243119   4.111   6.584   8.317
14395TIP3   OH243120   2.745   6.148   8.495
14395TIP3    H143121   2.677   6.185   8.435
14395TIP3    H243122   2.696   6.129   8.575
14396TIP3   OH243123   3.066   7.001   7.509
14396TIP3    H143124   3.041   6.991   7.417
14396TIP3    H243125   3.025   7.086   7.532
14397TIP3   OH243126   3.629   6.265   7.883
14397TIP3    H143127   3.692   6.192   7.901
14397TIP3    H243128   3.685   6.344   7.898
14398TIP3   OH243129   2.607   6.264   8.280
14398TIP3    H143130   2.672   6.336   8.299
14398TIP3    H243131   2.653   6.221   8.204
14399TIP3   OH243132   2.054   6.809   7.618
14399TIP3    H143133   2.021   6.823   7.527
14399TIP3    H243134   2.084   6.897   7.644
14400TIP3   OH243135   3.517   7.317   7.844
14400TIP3    H143136   3.430   7.303   7.888
14400TIP3    H243137   3.504   7.407   7.806
14401TIP3   OH243138   3.779   6.244   8.229
14401TIP3    H143139   3.699   6.265   8.179
14401TIP3    H243140   3.850   6.270   8.165
14402TIP3   OH243141   3.088   5.865   8.213
14402TIP3    H143142   3.075   5.770   8.233
14402TIP3    H243143   3.009   5.904   8.258
14403TIP3   OH243144   3.196   7.374   7.526
14403TIP3    H143145   3.247   7.291   7.508
14403TIP3    H243146   3.262   7.439   7.492
14404TIP3   OH243147   3.341   7.156   7.448
14404TIP3    H143148   3.329   7.074   7.398
14404TIP3    H243149   3.378   7.122   7.533
14405TIP3   OH243150   3.723   7.250   8.169
14405TIP3    H143151   3.716   7.160   8.131
14405TIP3    H243152   3.742   7.303   8.088
14406TIP3   OH243153   3.018   6.639   7.469
14406TIP3    H143154   2.939   6.690   7.445
14406TIP3    H243155   3.065   6.632   7.383
14407TIP3   OH243156   2.977   6.424   7.183
14407TIP3    H143157   3.046   6.475   7.228
14407TIP3    H243158   3.033   6.359   7.134
14408TIP3   OH243159   3.928   6.877   8.056
14408TIP3    H143160   3.843   6.926   8.064
14408TIP3    H243161   3.953   6.902   7.964
14409TIP3   OH243162   3.366   6.721   7.437
14409TIP3    H143163   3.312   6.745   7.516
14409TIP3    H243164   3.450   6.695   7.481
14410TIP3   OH243165   3.598   6.737   8.324
14410TIP3    H143166   3.609   6.811   8.389
14410TIP3    H243167   3.522   6.769   8.274
14411TIP3   OH243168   2.603   6.712   7.845
14411TIP3    H143169   2.558   6.652   7.781
14411TIP3    H243170   2.674   6.656   7.881
14412TIP3   OH243171   2.726   7.110   7.981
14412TIP3    H143172   2.765   7.023   7.964
14412TIP3    H243173   2.796   7.145   8.039
14413TIP3   OH243174   2.770   6.698   8.218
14413TIP3    H143175   2.771   6.663   8.126
14413TIP3    H243176   2.864   6.725   8.230
14414TIP3   OH243177   3.278   7.288   7.963
14414TIP3    H143178   3.274   7.352   8.036
14414TIP3    H243179   3.252   7.205   8.007
14415TIP3   OH243180   3.202   6.579   7.266
14415TIP3    H143181   3.264   6.638   7.316
14415TIP3    H243182   3.229   6.600   7.173
14416TIP3   OH243183   2.944   7.257   7.545
14416TIP3    H143184   3.031   7.302   7.553
14416TIP3    H243185   2.893   7.322   7.496
14417TIP3   OH243186   3.723   5.816   7.316
14417TIP3    H143187   3.640   5.837   7.364
14417TIP3    H243188   3.736   5.898   7.264
14418TIP3   OH243189   2.462   6.556   7.664
14418TIP3    H143190   2.395   6.600   7.607
14418TIP3    H243191   2.427   6.467   7.670
14419TIP3   OH243192   3.522   7.184   6.866
14419TIP3    H143193   3.531   7.280   6.848
14419TIP3    H243194   3.615   7.154   6.852
14420TIP3   OH243195   2.845   7.501   7.333
14420TIP3    H143196   2.800   7.470   7.252
14420TIP3    H243197   2.784   7.568   7.366
14421TIP3   OH243198   3.031   7.402   6.983
14421TIP3    H143199   3.088   7.331   6.944
14421TIP3    H243200   3.071   7.412   7.072
14422TIP3   OH243201   3.096   7.446   7.250
14422TIP3    H143202   3.007   7.461   7.289
14422TIP3    H243203   3.144   7.409   7.326
14423TIP3   OH243204   3.871   6.717   8.528
14423TIP3    H143205   3.787   6.751   8.494
14423TIP3    H243206   3.866   6.622   8.505
14424TIP3   OH243207   2.851   5.947   8.333
14424TIP3    H143208   2.761   5.920   8.305
14424TIP3    H243209   2.827   6.029   8.382
14425TIP3   OH243210   3.284   6.623   7.013
14425TIP3    H143211   3.246   6.600   6.926
14425TIP3    H243212   3.368   6.664   6.986
14426TIP3   OH243213   2.994   5.996   7.313
14426TIP3    H143214   2.958   5.993   7.404
14426TIP3    H243215   2.954   5.915   7.277
14427TIP3   OH243216   2.786   6.461   8.355
14427TIP3    H143217   2.765   6.485   8.447
14427TIP3    H243218   2.774   6.547   8.308
14428TIP3   OH243219   2.663   6.353   7.874
14428TIP3    H143220   2.571   6.324   7.891
14428TIP3    H243221   2.676   6.313   7.784
14429TIP3   OH243222   3.155   6.438   7.605
14429TIP3    H143223   3.104   6.509   7.560
14429TIP3    H243224   3.211   6.404   7.532
14430TIP3   OH243225   3.310   6.465   7.843
14430TIP3    H143226   3.250   6.495   7.771
14430TIP3    H243227   3.346   6.386   7.797
14431TIP3   OH243228   2.652   5.974   7.279
14431TIP3    H143229   2.639   5.971   7.376
14431TIP3    H243230   2.573   6.024   7.251
14432TIP3   OH243231   2.192   6.017   8.149
14432TIP3    H143232   2.270   6.047   8.200
14432TIP3    H243233   2.230   5.983   8.066
14433TIP3   OH243234   2.159   5.994   7.670
14433TIP3    H143235   2.204   6.032   7.591
14433TIP3    H243236   2.098   6.068   7.690
14434TIP3   OH243237   3.293   6.707   8.262
14434TIP3    H143238   3.338   6.645   8.200
14434TIP3    H243239   3.292   6.651   8.342
14435TIP3   OH243240   2.999   6.175   7.936
14435TIP3    H143241   2.916   6.171   7.987
14435TIP3    H243242   3.067   6.162   8.004
14436TIP3   OH243243   2.428   6.230   7.943
14436TIP3    H143244   2.333   6.236   7.915
14436TIP3    H243245   2.450   6.138   7.920
14437TIP3   OH243246   2.692   6.228   7.633
14437TIP3    H143247   2.786   6.239   7.609
14437TIP3    H243248   2.644   6.249   7.549
14438TIP3   OH243249   3.460   6.240   8.165
14438TIP3    H143250   3.367   6.209   8.168
14438TIP3    H243251   3.492   6.188   8.089
14439TIP3   OH243252   2.540   6.264   7.409
14439TIP3    H143253   2.472   6.214   7.360
14439TIP3    H243254   2.593   6.299   7.334
14440TIP3   OH243255   3.074   6.505   8.029
14440TIP3    H143256   3.142   6.462   7.975
14440TIP3    H243257   3.083   6.459   8.114
14441TIP3   OH243258   2.596   5.986   7.915
14441TIP3    H143259   2.559   5.909   7.964
14441TIP3    H243260   2.640   5.943   7.841
14442TIP3   OH243261   3.062   6.402   8.313
14442TIP3    H143262   2.971   6.433   8.324
14442TIP3    H243263   3.114   6.464   8.369
14443TIP3   OH243264   2.784   6.790   7.414
14443TIP3    H143265   2.713   6.722   7.403
14443TIP3    H243266   2.761   6.826   7.504
14444TIP3   OH243267   3.690   7.012   8.037
14444TIP3    H143268   3.712   7.063   7.956
14444TIP3    H243269   3.601   6.976   8.016
14445TIP3   OH243270   3.246   6.097   7.291
14445TIP3    H143271   3.149   6.078   7.294
14445TIP3    H243272   3.251   6.193   7.308
14446TIP3   OH243273   3.313   6.352   7.388
14446TIP3    H143274   3.410   6.357   7.399
14446TIP3    H243275   3.293   6.429   7.332
14447TIP3   OH243276   2.504   6.825   8.076
14447TIP3    H143277   2.531   6.787   7.990
14447TIP3    H243278   2.458   6.751   8.120
14448TIP3   OH243279   2.936   6.940   7.243
14448TIP3    H143280   2.886   7.024   7.248
14448TIP3    H243281   2.882   6.883   7.302
14449TIP3   OH243282   3.754   6.443   7.219
14449TIP3    H143283   3.693   6.398   7.157
14449TIP3    H243284   3.751   6.532   7.178
14450TIP3   OH243285   3.975   7.248   8.277
14450TIP3    H143286   3.883   7.260   8.244
14450TIP3    H243287   4.022   7.236   8.191
14451TIP3   OH243288   3.460   7.259   7.129
14451TIP3    H143289   3.432   7.186   7.186
14451TIP3    H243290   3.473   7.215   7.042
14452TIP3   OH243291   3.448   6.888   7.960
14452TIP3    H143292   3.354   6.861   7.967
14452TIP3    H243293   3.485   6.809   7.916
14453TIP3   OH243294   2.548   7.169   7.749
14453TIP3    H143295   2.580   7.198   7.662
14453TIP3    H243296   2.481   7.102   7.725
14454TIP3   OH243297   2.149   6.419   7.424
14454TIP3    H143298   2.194   6.503   7.446
14454TIP3    H243299   2.071   6.423   7.483
14455TIP3   OH243300   2.704   6.888   7.656
14455TIP3    H143301   2.717   6.971   7.706
14455TIP3    H243302   2.670   6.828   7.726
14456TIP3   OH243303   3.245   7.075   8.132
14456TIP3    H143304   3.255   7.133   8.211
14456TIP3    H243305   3.330   7.028   8.132
14457TIP3   OH243306   3.217   6.990   7.031
14457TIP3    H143307   3.270   6.965   7.111
14457TIP3    H243308   3.129   6.958   7.057
14458TIP3   OH243309   3.554   7.458   6.845
14458TIP3    H143310   3.590   7.529   6.790
14458TIP3    H243311   3.475   7.504   6.879
14459TIP3   OH243312   3.376   6.927   7.252
14459TIP3    H143313   3.366   6.855   7.317
14459TIP3    H243314   3.473   6.920   7.234
14460TIP3   OH243315   2.575   6.968   7.030
14460TIP3    H143316   2.589   6.877   7.000
14460TIP3    H243317   2.554   6.955   7.125
14461TIP3   OH243318   2.522   6.979   7.306
14461TIP3    H143319   2.604   6.948   7.348
14461TIP3    H243320   2.528   7.076   7.317
14462TIP3   OH243321   2.261   6.662   7.504
14462TIP3    H143322   2.193   6.706   7.559
14462TIP3    H243323   2.277   6.730   7.437
14463TIP3   OH243324   3.289   6.051   7.567
14463TIP3    H143325   3.275   6.070   7.472
14463TIP3    H243326   3.329   6.135   7.598
14464TIP3   OH243327   2.787   7.166   7.253
14464TIP3    H143328   2.703   7.201   7.288
14464TIP3    H243329   2.805   7.230   7.182
14465TIP3   OH243330   2.977   6.234   7.665
14465TIP3    H143331   3.041   6.306   7.646
14465TIP3    H243332   2.984   6.228   7.763
14466TIP3   OH243333   3.246   6.560   8.493
14466TIP3    H143334   3.242   6.650   8.532
14466TIP3    H243335   3.324   6.523   8.538
14467TIP3   OH243336   3.119   5.956   7.766
14467TIP3    H143337   3.106   6.038   7.818
14467TIP3    H243338   3.183   5.989   7.697
14468TIP3   OH243339   2.539   7.258   7.330
14468TIP3    H143340   2.504   7.310   7.254
14468TIP3    H243341   2.548   7.331   7.395
14469TIP3   OH243342   2.633   5.959   7.556
14469TIP3    H143343   2.631   6.049   7.594
14469TIP3    H243344   2.729   5.941   7.561
14470TIP3   OH243345   3.870   6.448   8.451
14470TIP3    H143346   3.785   6.429   8.409
14470TIP3    H243347   3.931   6.432   8.376
14471TIP3   OH243348   3.538   6.645   7.841
14471TIP3    H143349   3.463   6.584   7.852
14471TIP3    H243350   3.610   6.598   7.889
14472TIP3   OH243351   2.260   6.871   7.310
14472TIP3    H143352   2.335   6.934   7.315
14472TIP3    H243353   2.296   6.811   7.242
14473TIP3   OH243354   2.195   6.148   7.447
14473TIP3    H143355   2.195   6.245   7.441
14473TIP3    H243356   2.122   6.124   7.389
14474TIP3   OH243357   3.515   7.581   7.771
14474TIP3    H143358   3.461   7.643   7.718
14474TIP3    H243359   3.602   7.624   7.762
14475TIP3   OH243360   2.580   5.883   8.310
14475TIP3    H143361   2.551   5.847   8.223
14475TIP3    H243362   2.572   5.801   8.366
14476TIP3   OH243363   2.744   7.169   6.942
14476TIP3    H143364   2.690   7.095   6.978
14476TIP3    H243365   2.818   7.121   6.901
14477TIP3   OH243366   3.176   7.208   6.853
14477TIP3    H143367   3.220   7.144   6.912
14477TIP3    H243368   3.233   7.206   6.773
14478TIP3   OH243369   2.388   6.684   7.165
14478TIP3    H143370   2.445   6.649   7.235
14478TIP3    H243371   2.453   6.688   7.091
14479TIP3   OH243372   2.903   6.886   6.973
14479TIP3    H143373   2.905   6.897   7.070
14479TIP3    H243374   2.905   6.788   6.966
14480TIP3   OH243375   3.507   7.092   8.301
14480TIP3    H143376   3.582   7.146   8.272
14480TIP3    H243377   3.451   7.158   8.346
14481TIP3   OH243378   2.594   6.590   7.382
14481TIP3    H143379   2.568   6.544   7.463
14481TIP3    H243380   2.633   6.517   7.329
14482TIP3   OH243381   2.699   6.389   7.223
14482TIP3    H143382   2.673   6.393   7.128
14482TIP3    H243383   2.797   6.391   7.215
14483TIP3   OH243384   3.516   6.714   6.892
14483TIP3    H143385   3.496   6.669   6.807
14483TIP3    H243386   3.483   6.805   6.869
14484TIP3   OH243387   2.939   6.438   8.698
14484TIP3    H143388   2.966   6.344   8.688
14484TIP3    H243389   3.003   6.481   8.640
14485TIP3   OH243390   3.009   6.217   8.529
14485TIP3    H143391   3.028   6.262   8.445
14485TIP3    H243392   2.914   6.196   8.519
14486TIP3   OH243393   3.013   6.764   8.352
14486TIP3    H143394   3.107   6.757   8.328
14486TIP3    H243395   3.009   6.850   8.395
14487TIP3   OH243396   3.644   6.935   8.498
14487TIP3    H143397   3.598   7.010   8.457
14487TIP3    H243398   3.736   6.967   8.487
14488TIP3   OH243399   3.154   5.985   8.573
14488TIP3    H143400   3.106   6.070   8.572
14488TIP3    H243401   3.083   5.923   8.596
14489TIP3   OH243402   3.478   6.350   8.669
14489TIP3    H143403   3.407   6.358   8.739
14489TIP3    H243404   3.552   6.385   8.722
14490TIP3   OH243405   2.508   7.451   7.134
14490TIP3    H143406   2.603   7.441   7.112
14490TIP3    H243407   2.478   7.497   7.053
14491TIP3   OH243408   1.996   6.820   7.350
14491TIP3    H143409   2.089   6.843   7.328
14491TIP3    H243410   1.985   6.734   7.303
14492TIP3   OH243411   3.744   7.730   7.752
14492TIP3    H143412   3.811   7.766   7.815
14492TIP3    H243413   3.799   7.722   7.673
14493TIP3   OH243414   3.653   6.902   7.221
14493TIP3    H143415   3.720   6.967   7.190
14493TIP3    H243416   3.699   6.863   7.299
14494TIP3   OH243417   3.783   6.769   7.425
14494TIP3    H143418   3.716   6.728   7.484
14494TIP3    H243419   3.849   6.805   7.488
14495TIP3   OH243420   3.835   7.161   7.853
14495TIP3    H143421   3.887   7.093   7.805
14495TIP3    H243422   3.826   7.231   7.786
14496TIP3   OH243423   3.729   7.443   7.971
14496TIP3    H143424   3.696   7.535   7.968
14496TIP3    H243425   3.661   7.396   7.918
14497TIP3   OH243426   3.719   6.678   7.072
14497TIP3    H143427   3.647   6.679   7.004
14497TIP3    H243428   3.691   6.754   7.126
14498TIP3   OH243429   3.588   6.351   7.026
14498TIP3    H143430   3.547   6.385   6.946
14498TIP3    H243431   3.566   6.255   7.019
14499TIP3   OH243432   3.594   6.628   7.569
14499TIP3    H143433   3.601   6.532   7.561
14499TIP3    H243434   3.579   6.641   7.666
14500TIP3   OH243435   3.882   7.010   8.382
14500TIP3    H143436   3.961   6.971   8.423
14500TIP3    H243437   3.914   7.098   8.356
14501TIP3   OH243438   4.094   6.865   8.478
14501TIP3    H143439   4.013   6.820   8.511
14501TIP3    H243440   4.152   6.787   8.470
14502TIP3   OH243441   3.532   6.085   7.012
14502TIP3    H143442   3.604   6.049   7.067
14502TIP3    H243443   3.457   6.026   7.029
14503TIP3   OH243444   3.594   6.345   7.465
14503TIP3    H143445   3.633   6.255   7.477
14503TIP3    H243446   3.649   6.378   7.392
14504TIP3   OH243447   3.752   6.515   7.962
14504TIP3    H143448   3.837   6.540   7.919
14504TIP3    H243449   3.768   6.555   8.050
14505TIP3   OH243450   3.827   6.657   8.192
14505TIP3    H143451   3.746   6.688   8.239
14505TIP3    H243452   3.858   6.741   8.152
14506TIP3   OH243453   3.698   6.093   7.505
14506TIP3    H143454   3.748   6.072   7.586
14506TIP3    H243455   3.637   6.016   7.500
14507TIP3   OH243456   2.393   6.089   8.331
14507TIP3    H143457   2.448   6.007   8.338
14507TIP3    H243458   2.463   6.155   8.314
14508TIP3   OH243459   2.230   6.384   8.388
14508TIP3    H143460   2.203   6.294   8.362
14508TIP3    H243461   2.287   6.409   8.313
14509TIP3   OH243462   4.127   6.392   8.564
14509TIP3    H143463   4.032   6.414   8.553
14509TIP3    H243464   4.133   6.309   8.513
14510TIP3   OH243465   3.779   6.023   7.140
14510TIP3    H143466   3.817   5.954   7.081
14510TIP3    H243467   3.845   6.095   7.132
14511TIP3   OH243468   2.185   5.861   7.903
14511TIP3    H143469   2.091   5.851   7.926
14511TIP3    H243470   2.181   5.915   7.822
14512TIP3   OH243471   3.359   7.556   7.408
14512TIP3    H143472   3.397   7.538   7.319
14512TIP3    H243473   3.416   7.627   7.438
14513TIP3   OH243474   4.042   6.146   8.427
14513TIP3    H143475   3.951   6.121   8.402
14513TIP3    H243476   4.086   6.058   8.418
14514TIP3   OH243477   3.241   6.070   8.068
14514TIP3    H143478   3.200   5.992   8.112
14514TIP3    H243479   3.312   6.028   8.015
14515TIP3   OH243480   3.763   5.979   7.967
14515TIP3    H143481   3.803   6.003   7.880
14515TIP3    H243482   3.669   5.966   7.945
14516TIP3   OH243483   3.863   6.048   7.723
14516TIP3    H143484   3.934   5.992   7.685
14516TIP3    H243485   3.901   6.137   7.704
14517TIP3   OH243486   2.495   5.778   8.067
14517TIP3    H143487   2.403   5.743   8.068
14517TIP3    H243488   2.545   5.693   8.064
14518TIP3   OH243489   2.284   5.649   7.719
14518TIP3    H143490   2.314   5.703   7.644
14518TIP3    H243491   2.258   5.716   7.784
14519TIP3   OH243492   2.941   5.811   7.949
14519TIP3    H143493   3.001   5.856   7.886
14519TIP3    H243494   2.975   5.843   8.034
14520TIP3   OH243495   3.482   5.957   7.935
14520TIP3    H143496   3.482   5.914   7.848
14520TIP3    H243497   3.472   5.878   7.994
14521TIP3   OH243498   3.518   5.880   7.497
14521TIP3    H143499   3.430   5.920   7.508
14521TIP3    H243500   3.504   5.794   7.541
14522TIP3   OH243501   2.402   5.805   7.479
14522TIP3    H143502   2.449   5.741   7.421
14522TIP3    H243503   2.477   5.857   7.513
14523TIP3   OH243504   2.909   5.984   7.577
14523TIP3    H143505   2.967   5.933   7.635
14523TIP3    H243506   2.934   6.075   7.603
14524TIP3   OH243507   2.773   7.402   7.078
14524TIP3    H143508   2.861   7.425   7.040
14524TIP3    H243509   2.750   7.328   7.017
14525TIP3   OH243510   3.492   7.526   7.169
14525TIP3    H143511   3.484   7.428   7.157
14525TIP3    H243512   3.447   7.558   7.088
14526TIP3   OH243513   2.083   7.235   7.123
14526TIP3    H143514   2.077   7.255   7.218
14526TIP3    H243515   2.172   7.194   7.115
14527TIP3   OH243516   4.983   7.041   7.122
14527TIP3    H143517   4.953   7.132   7.100
14527TIP3    H243518   4.908   6.990   7.086
14528TIP3   OH243519   4.964   7.031   7.509
14528TIP3    H143520   5.004   7.006   7.595
14528TIP3    H243521   4.923   6.947   7.483
14529TIP3   OH243522   4.278   6.935   7.872
14529TIP3    H143523   4.309   6.864   7.933
14529TIP3    H243524   4.357   6.991   7.868
14530TIP3   OH243525   5.233   7.332   7.192
14530TIP3    H143526   5.216   7.263   7.260
14530TIP3    H243527   5.221   7.411   7.245
14531TIP3   OH243528   4.249   7.347   7.595
14531TIP3    H143529   4.240   7.249   7.591
14531TIP3    H243530   4.345   7.354   7.609
14532TIP3   OH243531   3.960   6.547   7.376
14532TIP3    H143532   3.911   6.630   7.393
14532TIP3    H243533   3.890   6.496   7.331
14533TIP3   OH243534   4.018   6.836   7.556
14533TIP3    H143535   4.068   6.758   7.589
14533TIP3    H243536   4.079   6.873   7.491
14534TIP3   OH243537   4.874   7.804   7.212
14534TIP3    H143538   4.900   7.734   7.149
14534TIP3    H243539   4.944   7.798   7.278
14535TIP3   OH243540   4.774   7.268   7.546
14535TIP3    H143541   4.812   7.189   7.505
14535TIP3    H243542   4.857   7.316   7.567
14536TIP3   OH243543   5.210   6.772   7.576
14536TIP3    H143544   5.239   6.681   7.598
14536TIP3    H243545   5.165   6.756   7.491
14537TIP3   OH243546   4.538   6.428   7.547
14537TIP3    H143547   4.514   6.501   7.486
14537TIP3    H243548   4.487   6.354   7.506
14538TIP3   OH243549   5.221   6.524   7.168
14538TIP3    H143550   5.293   6.509   7.234
14538TIP3    H243551   5.274   6.559   7.094
14539TIP3   OH243552   4.165   6.629   7.659
14539TIP3    H143553   4.249   6.610   7.706
14539TIP3    H243554   4.179   6.574   7.578
14540TIP3   OH243555   4.605   6.828   7.452
14540TIP3    H143556   4.699   6.802   7.465
14540TIP3    H243557   4.566   6.744   7.419
14541TIP3   OH243558   4.530   6.412   7.985
14541TIP3    H143559   4.470   6.449   7.917
14541TIP3    H243560   4.476   6.429   8.065
14542TIP3   OH243561   4.871   7.261   6.994
14542TIP3    H143562   4.835   7.249   6.905
14542TIP3    H243563   4.826   7.344   7.021
14543TIP3   OH243564   4.636   7.185   7.777
14543TIP3    H143565   4.572   7.250   7.816
14543TIP3    H243566   4.674   7.238   7.704
14544TIP3   OH243567   5.428   6.512   7.340
14544TIP3    H143568   5.410   6.474   7.428
14544TIP3    H243569   5.522   6.531   7.341
14545TIP3   OH243570   4.401   6.525   7.767
14545TIP3    H143571   4.461   6.599   7.791
14545TIP3    H243572   4.452   6.485   7.693
14546TIP3   OH243573   4.446   7.366   7.858
14546TIP3    H143574   4.457   7.463   7.858
14546TIP3    H243575   4.376   7.358   7.926
14547TIP3   OH243576   3.854   7.073   7.113
14547TIP3    H143577   3.815   7.098   7.027
14547TIP3    H243578   3.886   7.159   7.146
14548TIP3   OH243579   4.882   6.128   7.703
14548TIP3    H143580   4.866   6.033   7.720
14548TIP3    H243581   4.804   6.167   7.748
14549TIP3   OH243582   4.991   7.630   7.025
14549TIP3    H143583   5.041   7.548   7.001
14549TIP3    H243584   5.061   7.695   6.998
14550TIP3   OH243585   5.139   7.414   6.944
14550TIP3    H143586   5.104   7.337   6.897
14550TIP3    H243587   5.177   7.373   7.025
14551TIP3   OH243588   4.814   6.894   6.956
14551TIP3    H143589   4.733   6.946   6.936
14551TIP3    H243590   4.858   6.892   6.870
14552TIP3   OH243591   4.773   6.680   6.669
14552TIP3    H143592   4.840   6.732   6.716
14552TIP3    H243593   4.830   6.617   6.620
14553TIP3   OH243594   5.162   6.976   6.925
14553TIP3    H143595   5.107   7.001   7.003
14553TIP3    H243596   5.246   6.952   6.969
14554TIP3   OH243597   4.392   6.972   7.345
14554TIP3    H143598   4.352   6.914   7.277
14554TIP3    H243599   4.470   6.919   7.373
14555TIP3   OH243600   4.527   7.402   7.491
14555TIP3    H143601   4.499   7.365   7.406
14555TIP3    H243602   4.612   7.355   7.506
14556TIP3   OH243603   4.528   6.945   7.696
14556TIP3    H143604   4.562   6.922   7.607
14556TIP3    H243605   4.572   7.030   7.716
14557TIP3   OH243606   5.001   6.833   6.753
14557TIP3    H143607   5.060   6.895   6.802
14557TIP3    H243608   5.027   6.855   6.659
14558TIP3   OH243609   4.422   7.051   8.123
14558TIP3    H143610   4.422   7.142   8.159
14558TIP3    H243611   4.328   7.027   8.136
14559TIP3   OH243612   4.746   7.509   7.031
14559TIP3    H143613   4.830   7.560   7.035
14559TIP3    H243614   4.687   7.572   6.987
14560TIP3   OH243615   5.518   6.072   6.804
14560TIP3    H143616   5.435   6.095   6.851
14560TIP3    H243617   5.533   6.153   6.751
14561TIP3   OH243618   4.260   6.816   7.148
14561TIP3    H143619   4.193   6.862   7.093
14561TIP3    H243620   4.222   6.729   7.157
14562TIP3   OH243621   5.316   7.440   6.356
14562TIP3    H143622   5.322   7.536   6.335
14562TIP3    H243623   5.408   7.411   6.339
14563TIP3   OH243624   4.064   7.191   8.023
14563TIP3    H143625   3.990   7.170   7.963
14563TIP3    H243626   4.098   7.103   8.047
14564TIP3   OH243627   3.892   7.393   7.683
14564TIP3    H143628   3.988   7.384   7.672
14564TIP3    H243629   3.884   7.450   7.761
14565TIP3   OH243630   4.627   7.752   6.833
14565TIP3    H143631   4.586   7.737   6.746
14565TIP3    H243632   4.601   7.844   6.854
14566TIP3   OH243633   4.062   7.605   7.214
14566TIP3    H143634   4.108   7.596   7.300
14566TIP3    H243635   4.015   7.519   7.210
14567TIP3   OH243636   4.827   7.661   6.471
14567TIP3    H143637   4.885   7.591   6.433
14567TIP3    H243638   4.864   7.671   6.561
14568TIP3   OH243639   4.884   7.710   6.740
14568TIP3    H143640   4.797   7.722   6.785
14568TIP3    H243641   4.940   7.692   6.817
14569TIP3   OH243642   4.246   7.392   8.043
14569TIP3    H143643   4.288   7.371   8.129
14569TIP3    H243644   4.177   7.322   8.039
14570TIP3   OH243645   4.645   6.207   7.829
14570TIP3    H143646   4.556   6.176   7.801
14570TIP3    H243647   4.618   6.287   7.879
14571TIP3   OH243648   5.176   6.323   8.028
14571TIP3    H143649   5.239   6.286   8.093
14571TIP3    H243650   5.089   6.305   8.071
14572TIP3   OH243651   5.079   6.874   6.497
14572TIP3    H143652   5.043   6.853   6.408
14572TIP3    H243653   5.160   6.923   6.473
14573TIP3   OH243654   4.791   6.251   6.800
14573TIP3    H143655   4.755   6.249   6.891
14573TIP3    H243656   4.750   6.171   6.765
14574TIP3   OH243657   4.577   6.721   7.844
14574TIP3    H143658   4.533   6.744   7.928
14574TIP3    H243659   4.561   6.803   7.792
14575TIP3   OH243660   4.461   6.609   7.361
14575TIP3    H143661   4.368   6.583   7.379
14575TIP3    H243662   4.473   6.568   7.272
14576TIP3   OH243663   4.950   6.694   7.091
14576TIP3    H143664   4.899   6.766   7.046
14576TIP3    H243665   5.006   6.661   7.017
14577TIP3   OH243666   5.101   6.722   7.327
14577TIP3    H143667   5.039   6.751   7.257
14577TIP3    H243668   5.138   6.643   7.282
14578TIP3   OH243669   4.394   6.749   8.054
14578TIP3    H143670   4.434   6.813   8.115
14578TIP3    H243671   4.386   6.669   8.110
14579TIP3   OH243672   4.449   6.231   6.766
14579TIP3    H143673   4.436   6.228   6.863
14579TIP3    H243674   4.370   6.281   6.738
14580TIP3   OH243675   3.987   6.271   7.641
14580TIP3    H143676   4.064   6.304   7.692
14580TIP3    H243677   4.026   6.243   7.557
14581TIP3   OH243678   3.955   6.253   7.156
14581TIP3    H143679   3.999   6.290   7.076
14581TIP3    H243680   3.893   6.326   7.176
14582TIP3   OH243681   5.093   6.959   7.745
14582TIP3    H143682   5.143   6.893   7.690
14582TIP3    H243683   5.067   6.902   7.821
14583TIP3   OH243684   4.794   6.426   7.422
14583TIP3    H143685   4.710   6.426   7.472
14583TIP3    H243686   4.859   6.427   7.494
14584TIP3   OH243687   4.222   6.488   7.429
14584TIP3    H143688   4.128   6.495   7.401
14584TIP3    H243689   4.245   6.396   7.406
14585TIP3   OH243690   4.489   6.482   7.119
14585TIP3    H143691   4.582   6.497   7.095
14585TIP3    H243692   4.439   6.504   7.037
14586TIP3   OH243693   5.267   6.504   7.615
14586TIP3    H143694   5.245   6.515   7.711
14586TIP3    H243695   5.196   6.442   7.588
14587TIP3   OH243696   4.338   6.517   6.896
14587TIP3    H143697   4.268   6.470   6.847
14587TIP3    H243698   4.390   6.554   6.822
14588TIP3   OH243699   4.386   7.299   8.271
14588TIP3    H143700   4.475   7.321   8.303
14588TIP3    H243701   4.351   7.245   8.344
14589TIP3   OH243702   4.869   6.758   7.521
14589TIP3    H143703   4.940   6.714   7.472
14589TIP3    H243704   4.871   6.712   7.607
14590TIP3   OH243705   4.390   6.244   7.403
14590TIP3    H143706   4.354   6.167   7.452
14590TIP3    H243707   4.431   6.202   7.326
14591TIP3   OH243708   4.843   6.656   7.798
14591TIP3    H143709   4.753   6.690   7.817
14591TIP3    H243710   4.899   6.714   7.854
14592TIP3   OH243711   4.584   7.044   6.904
14592TIP3    H143712   4.510   6.980   6.892
14592TIP3    H243713   4.564   7.079   6.995
14593TIP3   OH243714   5.043   6.353   6.776
14593TIP3    H143715   4.946   6.336   6.780
14593TIP3    H243716   5.048   6.449   6.794
14594TIP3   OH243717   5.109   6.607   6.873
14594TIP3    H143718   5.205   6.616   6.884
14594TIP3    H243719   5.087   6.686   6.820
14595TIP3   OH243720   4.274   7.069   7.578
14595TIP3    H143721   4.315   7.041   7.493
14595TIP3    H243722   4.320   7.012   7.642
14596TIP3   OH243723   4.731   7.195   6.729
14596TIP3    H143724   4.682   7.280   6.732
14596TIP3    H243725   4.676   7.140   6.789
14597TIP3   OH243726   4.160   6.981   8.189
14597TIP3    H143727   4.159   6.979   8.286
14597TIP3    H243728   4.080   6.929   8.167
14598TIP3   OH243729   5.552   6.700   6.705
14598TIP3    H143730   5.491   6.655   6.642
14598TIP3    H243731   5.548   6.790   6.664
14599TIP3   OH243732   5.261   7.526   6.617
14599TIP3    H143733   5.226   7.458   6.676
14599TIP3    H243734   5.270   7.479   6.532
14600TIP3   OH243735   5.189   7.180   7.424
14600TIP3    H143736   5.117   7.113   7.425
14600TIP3    H243737   5.270   7.127   7.435
14601TIP3   OH243738   4.381   7.376   7.212
14601TIP3    H143739   4.383   7.455   7.156
14601TIP3    H243740   4.286   7.355   7.211
14602TIP3   OH243741   3.945   6.676   6.913
14602TIP3    H143742   3.989   6.761   6.933
14602TIP3    H243743   3.866   6.681   6.972
14603TIP3   OH243744   4.510   7.137   7.148
14603TIP3    H143745   4.480   7.228   7.168
14603TIP3    H243746   4.473   7.087   7.224
14604TIP3   OH243747   4.296   7.612   7.058
14604TIP3    H143748   4.210   7.622   7.102
14604TIP3    H243749   4.329   7.705   7.060
14605TIP3   OH243750   5.037   7.327   7.632
14605TIP3    H143751   5.044   7.261   7.705
14605TIP3    H243752   5.095   7.286   7.563
14606TIP3   OH243753   5.012   7.241   6.517
14606TIP3    H143754   5.064   7.217   6.597
14606TIP3    H243755   4.922   7.218   6.545
14607TIP3   OH243756   5.345   7.716   6.331
14607TIP3    H143757   5.373   7.786   6.270
14607TIP3    H243758   5.264   7.758   6.368
14608TIP3   OH243759   4.371   6.489   8.202
14608TIP3    H143760   4.274   6.486   8.213
14608TIP3    H243761   4.400   6.427   8.271
14609TIP3   OH243762   5.171   7.177   6.733
14609TIP3    H143763   5.163   7.109   6.803
14609TIP3    H243764   5.268   7.175   6.718
14610TIP3   OH243765   4.113   7.593   7.857
14610TIP3    H143766   4.127   7.498   7.850
14610TIP3    H243767   4.180   7.612   7.924
14611TIP3   OH243768   4.375   7.223   6.517
14611TIP3    H143769   4.387   7.131   6.489
14611TIP3    H243770   4.354   7.213   6.611
14612TIP3   OH243771   4.318   7.229   6.790
14612TIP3    H143772   4.395   7.204   6.842
14612TIP3    H243773   4.321   7.327   6.795
14613TIP3   OH243774   4.054   6.921   6.993
14613TIP3    H143775   3.987   6.966   7.048
14613TIP3    H243776   4.068   6.989   6.924
14614TIP3   OH243777   5.217   6.553   7.880
14614TIP3    H143778   5.298   6.581   7.927
14614TIP3    H243779   5.191   6.474   7.932
14615TIP3   OH243780   5.089   6.304   7.052
14615TIP3    H143781   5.072   6.325   6.958
14615TIP3    H243782   5.126   6.389   7.085
14616TIP3   OH243783   4.586   7.423   6.737
14616TIP3    H143784   4.499   7.451   6.772
14616TIP3    H243785   4.606   7.497   6.678
14617TIP3   OH243786   4.775   6.489   7.152
14617TIP3    H143787   4.837   6.562   7.133
14617TIP3    H243788   4.780   6.484   7.250
14618TIP3   OH243789   5.025   6.796   7.956
14618TIP3    H143790   5.006   6.818   8.049
14618TIP3    H243791   5.098   6.733   7.969
14619TIP3   OH243792   4.917   6.213   7.254
14619TIP3    H143793   4.899   6.295   7.305
14619TIP3    H243794   4.979   6.247   7.186
14620TIP3   OH243795   4.331   7.501   6.806
14620TIP3    H143796   4.303   7.572   6.743
14620TIP3    H243797   4.317   7.545   6.892
14621TIP3   OH243798   4.430   6.215   7.043
14621TIP3    H143799   4.427   6.306   7.079
14621TIP3    H243800   4.526   6.199   7.049
14622TIP3   OH243801   5.344   6.878   7.322
14622TIP3    H143802   5.254   6.839   7.327
14622TIP3    H243803   5.374   6.870   7.413
14623TIP3   OH243804   4.049   7.126   6.797
14623TIP3    H143805   4.120   7.193   6.804
14623TIP3    H243806   4.091   7.068   6.729
14624TIP3   OH243807   3.990   6.405   6.932
14624TIP3    H143808   3.991   6.502   6.929
14624TIP3    H243809   3.913   6.384   6.877
14625TIP3   OH243810   4.381   6.127   7.801
14625TIP3    H143811   4.349   6.091   7.715
14625TIP3    H243812   4.370   6.049   7.860
14626TIP3   OH243813   3.917   7.348   7.181
14626TIP3    H143814   3.848   7.375   7.243
14626TIP3    H243815   3.885   7.390   7.097
14627TIP3   OH243816   4.538   7.427   6.426
14627TIP3    H143817   4.486   7.353   6.464
14627TIP3    H243818   4.614   7.379   6.389
14628TIP3   OH243819   4.972   7.468   6.339
14628TIP3    H143820   5.023   7.406   6.394
14628TIP3    H243821   5.024   7.468   6.255
14629TIP3   OH243822   4.184   6.941   6.652
14629TIP3    H143823   4.243   6.911   6.724
14629TIP3    H243824   4.250   6.946   6.578
14630TIP3   OH243825   4.700   7.143   6.459
14630TIP3    H143826   4.700   7.155   6.556
14630TIP3    H243827   4.699   7.045   6.453
14631TIP3   OH243828   4.369   7.052   8.448
14631TIP3    H143829   4.424   6.979   8.415
14631TIP3    H243830   4.328   7.011   8.526
14632TIP3   OH243831   4.389   6.849   6.869
14632TIP3    H143832   4.363   6.807   6.952
14632TIP3    H243833   4.427   6.774   6.818
14633TIP3   OH243834   4.652   6.898   8.090
14633TIP3    H143835   4.584   6.968   8.097
14633TIP3    H243836   4.716   6.942   8.028
14634TIP3   OH243837   4.495   6.644   6.711
14634TIP3    H143838   4.468   6.650   6.617
14634TIP3    H243839   4.592   6.648   6.702
14635TIP3   OH243840   5.315   6.969   6.378
14635TIP3    H143841   5.294   6.926   6.293
14635TIP3    H243842   5.283   7.060   6.357
14636TIP3   OH243843   4.773   6.697   8.228
14636TIP3    H143844   4.775   6.620   8.168
14636TIP3    H243845   4.729   6.765   8.171
14637TIP3   OH243846   4.788   6.488   8.031
14637TIP3    H143847   4.814   6.529   7.946
14637TIP3    H243848   4.694   6.464   8.013
14638TIP3   OH243849   4.808   7.016   7.902
14638TIP3    H143850   4.888   7.023   7.849
14638TIP3    H243851   4.749   7.084   7.862
14639TIP3   OH243852   4.641   6.824   8.442
14639TIP3    H143853   4.586   6.747   8.465
14639TIP3    H243854   4.692   6.787   8.367
14640TIP3   OH243855   4.922   6.256   8.115
14640TIP3    H143856   4.871   6.335   8.087
14640TIP3    H243857   4.855   6.185   8.100
14641TIP3   OH243858   5.045   6.758   8.237
14641TIP3    H143859   5.071   6.769   8.330
14641TIP3    H243860   4.952   6.732   8.247
14642TIP3   OH243861   4.498   6.592   8.506
14642TIP3    H143862   4.500   6.503   8.464
14642TIP3    H243863   4.538   6.571   8.591
14643TIP3   OH243864   5.003   6.250   8.387
14643TIP3    H143865   5.076   6.186   8.373
14643TIP3    H243866   4.970   6.259   8.295
14644TIP3   OH243867   4.303   7.703   6.619
14644TIP3    H143868   4.398   7.696   6.599
14644TIP3    H243869   4.275   7.755   6.540
14645TIP3   OH243870   3.780   7.085   6.833
14645TIP3    H143871   3.875   7.106   6.818
14645TIP3    H243872   3.774   6.997   6.790
14646TIP3   OH243873   3.693   7.698   7.252
14646TIP3    H143874   3.628   7.637   7.210
14646TIP3    H243875   3.738   7.638   7.314
14647TIP3   OH243876   3.827   7.544   7.438
14647TIP3    H143877   3.819   7.471   7.501
14647TIP3    H243878   3.888   7.603   7.486
14648TIP3   OH243879   5.450   7.157   6.708
14648TIP3    H143880   5.514   7.223   6.676
14648TIP3    H243881   5.498   7.121   6.786
14649TIP3   OH243882   5.581   7.027   6.914
14649TIP3    H143883   5.511   6.984   6.968
14649TIP3    H243884   5.638   7.067   6.982
14650TIP3   OH243885   5.516   6.934   6.559
14650TIP3    H143886   5.444   6.935   6.491
14650TIP3    H243887   5.487   7.011   6.612
14651TIP3   OH243888   5.388   6.605   6.513
14651TIP3    H143889   5.342   6.645   6.437
14651TIP3    H243890   5.364   6.511   6.501
14652TIP3   OH243891   5.393   6.882   7.052
14652TIP3    H143892   5.396   6.785   7.040
14652TIP3    H243893   5.383   6.889   7.150
14653TIP3   OH243894   4.015   6.956   7.805
14653TIP3    H143895   4.013   6.921   7.713
14653TIP3    H243896   4.113   6.957   7.821
14654TIP3   OH243897   5.329   6.340   6.497
14654TIP3    H143898   5.398   6.305   6.556
14654TIP3    H243899   5.252   6.283   6.515
14655TIP3   OH243900   5.390   6.602   6.951
14655TIP3    H143901   5.430   6.514   6.965
14655TIP3    H243902   5.446   6.634   6.878
14656TIP3   OH243903   4.227   6.628   8.459
14656TIP3    H143904   4.324   6.628   8.470
14656TIP3    H243905   4.202   6.549   8.511
14657TIP3   OH243906   5.497   6.350   6.990
14657TIP3    H143907   5.543   6.330   7.074
14657TIP3    H243908   5.434   6.275   6.986
14658TIP3   OH243909   4.196   6.335   7.815
14658TIP3    H143910   4.258   6.260   7.821
14658TIP3    H243911   4.258   6.409   7.804
14659TIP3   OH243912   3.996   6.607   7.882
14659TIP3    H143913   4.048   6.604   7.798
14659TIP3    H243914   4.025   6.692   7.918
14660TIP3   OH243915   5.577   6.279   6.629
14660TIP3    H143916   5.613   6.212   6.568
14660TIP3    H243917   5.639   6.353   6.618
14661TIP3   OH243918   3.983   6.116   7.388
14661TIP3    H143919   3.889   6.107   7.410
14661TIP3    H243920   3.979   6.172   7.307
14662TIP3   OH243921   5.179   7.784   6.906
14662TIP3    H143922   5.214   7.798   6.815
14662TIP3    H243923   5.140   7.873   6.928
14663TIP3   OH243924   4.207   6.201   8.201
14663TIP3    H143925   4.151   6.186   8.280
14663TIP3    H243926   4.139   6.229   8.137
14664TIP3   OH243927   4.446   7.638   7.811
14664TIP3    H143928   4.383   7.711   7.796
14664TIP3    H243929   4.458   7.607   7.720
14665TIP3   OH243930   5.856   6.399   7.838
14665TIP3    H143931   5.777   6.398   7.895
14665TIP3    H243932   5.887   6.307   7.849
14666TIP3   OH243933   4.337   7.833   7.653
14666TIP3    H143934   4.305   7.881   7.732
14666TIP3    H243935   4.323   7.902   7.585
14667TIP3   OH243936   4.004   7.694   7.597
14667TIP3    H143937   4.041   7.683   7.687
14667TIP3    H243938   4.078   7.656   7.544
14668TIP3   OH243939   4.198   7.573   7.449
14668TIP3    H143940   4.218   7.488   7.494
14668TIP3    H243941   4.288   7.607   7.430
14669TIP3   OH243942   4.459   7.671   7.430
14669TIP3    H143943   4.503   7.585   7.444
14669TIP3    H243944   4.456   7.709   7.519
14670TIP3   OH243945   5.049   6.325   7.550
14670TIP3    H143946   5.001   6.254   7.597
14670TIP3    H243947   5.113   6.274   7.497
14671TIP3   OH243948   5.563   6.219   7.451
14671TIP3    H143949   5.600   6.261   7.370
14671TIP3    H243950   5.467   6.226   7.436
14672TIP3   OH243951   5.661   6.302   7.211
14672TIP3    H143952   5.733   6.248   7.171
14672TIP3    H243953   5.696   6.392   7.189
14673TIP3   OH243954   4.291   6.031   7.554
14673TIP3    H143955   4.198   5.999   7.557
14673TIP3    H243956   4.339   5.946   7.550
14674TIP3   OH243957   4.085   5.905   7.206
14674TIP3    H143958   4.112   5.960   7.130
14674TIP3    H243959   4.055   5.972   7.270
14675TIP3   OH243960   4.740   6.063   7.435
14675TIP3    H143961   4.797   6.114   7.375
14675TIP3    H243962   4.760   6.104   7.520
14676TIP3   OH243963   5.287   6.210   7.414
14676TIP3    H143964   5.273   6.172   7.327
14676TIP3    H243965   5.274   6.132   7.473
14677TIP3   OH243966   5.314   6.139   6.984
14677TIP3    H143967   5.228   6.183   6.998
14677TIP3    H243968   5.296   6.052   7.026
14678TIP3   OH243969   3.794   7.480   6.980
14678TIP3    H143970   3.709   7.447   6.947
14678TIP3    H243971   3.787   7.573   6.952
14679TIP3   OH243972   4.198   6.061   6.967
14679TIP3    H143973   4.245   5.998   6.908
14679TIP3    H243974   4.273   6.115   7.001
14680TIP3   OH243975   4.707   6.239   7.064
14680TIP3    H143976   4.765   6.191   7.124
14680TIP3    H243977   4.729   6.332   7.089
14681TIP3   OH243978   4.569   7.660   6.566
14681TIP3    H143979   4.657   7.684   6.529
14681TIP3    H243980   4.547   7.585   6.506
14682TIP3   OH243981   5.294   7.797   6.657
14682TIP3    H143982   5.290   7.699   6.645
14682TIP3    H243983   5.251   7.826   6.573
14683TIP3   OH243984   4.492   6.319   8.445
14683TIP3    H143985   4.455   6.246   8.499
14683TIP3    H243986   4.587   6.309   8.468
14684TIP3   OH243987   4.751   6.292   8.535
14684TIP3    H143988   4.833   6.292   8.482
14684TIP3    H243989   4.780   6.243   8.613
14685TIP3   OH243990   3.872   7.496   6.618
14685TIP3    H143991   3.879   7.520   6.712
14685TIP3    H243992   3.959   7.453   6.602
14686TIP3   OH243993   5.750   6.805   6.868
14686TIP3    H143994   5.699   6.887   6.884
14686TIP3    H243995   5.683   6.754   6.819
14687TIP3   OH243996   5.813   7.098   7.049
14687TIP3    H143997   5.869   7.033   7.095
14687TIP3    H243998   5.854   7.102   6.962
14688TIP3   OH243999   6.297   6.707   7.066
14688TIP3    H144000   6.285   6.766   6.989
14688TIP3    H244001   6.266   6.623   7.026
14689TIP3   OH244002   5.971   6.893   7.146
14689TIP3    H144003   6.060   6.860   7.166
14689TIP3    H244004   5.951   6.834   7.070
14690TIP3   OH244005   5.647   7.321   6.597
14690TIP3    H144006   5.604   7.347   6.514
14690TIP3    H244007   5.675   7.410   6.631
14691TIP3   OH244008   6.578   6.934   6.158
14691TIP3    H144009   6.648   6.980   6.207
14691TIP3    H244010   6.631   6.869   6.108
14692TIP3   OH244011   7.285   6.323   6.241
14692TIP3    H144012   7.212   6.328   6.305
14692TIP3    H244013   7.292   6.417   6.216
14693TIP3   OH244014   6.057   7.069   6.619
14693TIP3    H144015   5.986   7.118   6.572
14693TIP3    H244016   6.014   6.985   6.636
14694TIP3   OH244017   6.878   7.142   5.938
14694TIP3    H144018   6.832   7.108   5.859
14694TIP3    H244019   6.971   7.123   5.915
14695TIP3   OH244020   6.587   6.508   6.282
14695TIP3    H144021   6.551   6.504   6.373
14695TIP3    H244022   6.547   6.426   6.245
14696TIP3   OH244023   6.246   6.850   6.835
14696TIP3    H144024   6.154   6.830   6.861
14696TIP3    H244025   6.251   6.806   6.747
14697TIP3   OH244026   6.247   6.489   6.252
14697TIP3    H144027   6.228   6.483   6.348
14697TIP3    H244028   6.167   6.534   6.221
14698TIP3   OH244029   5.777   6.527   7.124
14698TIP3    H144030   5.855   6.569   7.167
14698TIP3    H244031   5.811   6.499   7.038
14699TIP3   OH244032   5.752   6.510   6.643
14699TIP3    H144033   5.795   6.548   6.563
14699TIP3    H244034   5.689   6.583   6.662
14700TIP3   OH244035   6.011   6.742   6.912
14700TIP3    H144036   5.916   6.746   6.885
14700TIP3    H244037   6.035   6.649   6.897
14701TIP3   OH244038   6.290   6.733   6.594
14701TIP3    H144039   6.377   6.762   6.563
14701TIP3    H244040   6.231   6.755   6.517
14702TIP3   OH244041   6.131   6.778   6.383
14702TIP3    H144042   6.062   6.727   6.336
14702TIP3    H244043   6.183   6.811   6.307
14703TIP3   OH244044   6.191   6.505   6.894
14703TIP3    H144045   6.153   6.428   6.943
14703TIP3    H244046   6.229   6.462   6.817
14704TIP3   OH244047   6.394   7.293   6.451
14704TIP3    H144048   6.338   7.226   6.406
14704TIP3    H244049   6.325   7.350   6.489
14705TIP3   OH244050   6.832   6.629   6.273
14705TIP3    H144051   6.738   6.601   6.264
14705TIP3    H244052   6.837   6.711   6.222
14706TIP3   OH244053   5.742   6.933   6.402
14706TIP3    H144054   5.781   7.021   6.420
14706TIP3    H244055   5.662   6.937   6.459
14707TIP3   OH244056   6.175   7.469   5.987
14707TIP3    H144057   6.182   7.381   5.946
14707TIP3    H244058   6.133   7.446   6.072
14708TIP3   OH244059   6.149   7.485   6.260
14708TIP3    H144060   6.228   7.434   6.286
14708TIP3    H244061   6.189   7.568   6.226
14709TIP3   OH244062   5.849   7.180   6.478
14709TIP3    H144063   5.781   7.222   6.535
14709TIP3    H244064   5.856   7.250   6.410
14710TIP3   OH244065   6.854   6.607   6.545
14710TIP3    H144066   6.857   6.618   6.447
14710TIP3    H244067   6.948   6.623   6.568
14711TIP3   OH244068   6.587   6.749   6.629
14711TIP3    H144069   6.677   6.741   6.595
14711TIP3    H244070   6.600   6.737   6.725
14712TIP3   OH244071   6.720   6.487   6.748
14712TIP3    H144072   6.778   6.522   6.818
14712TIP3    H244073   6.766   6.523   6.669
14713TIP3   OH244074   6.225   6.467   6.529
14713TIP3    H144075   6.225   6.559   6.563
14713TIP3    H244076   6.321   6.449   6.533
14714TIP3   OH244077   5.840   7.382   6.287
14714TIP3    H144078   5.884   7.468   6.289
14714TIP3    H244079   5.892   7.335   6.217
14715TIP3   OH244080   5.785   6.662   6.421
14715TIP3    H144081   5.786   6.759   6.416
14715TIP3    H244082   5.710   6.639   6.364
14716TIP3   OH244083   6.138   6.380   7.305
14716TIP3    H144084   6.134   6.352   7.211
14716TIP3    H244085   6.160   6.296   7.349
14717TIP3   OH244086   5.697   7.582   6.652
14717TIP3    H144087   5.636   7.628   6.711
14717TIP3    H244088   5.689   7.636   6.571
14718TIP3   OH244089   6.333   7.681   5.917
14718TIP3    H144090   6.279   7.604   5.943
14718TIP3    H244091   6.411   7.637   5.879
14719TIP3   OH244092   5.983   7.208   6.132
14719TIP3    H144093   6.032   7.164   6.203
14719TIP3    H244094   6.049   7.202   6.059
14720TIP3   OH244095   6.486   7.392   5.957
14720TIP3    H144096   6.452   7.398   6.046
14720TIP3    H244097   6.497   7.295   5.946
14721TIP3   OH244098   6.207   7.107   6.368
14721TIP3    H144099   6.153   7.068   6.440
14721TIP3    H244100   6.229   7.028   6.314
14722TIP3   OH244101   6.291   6.903   6.197
14722TIP3    H144102   6.263   6.906   6.103
14722TIP3    H244103   6.389   6.905   6.186
14723TIP3   OH244104   5.572   7.339   6.318
14723TIP3    H144105   5.667   7.358   6.306
14723TIP3    H244106   5.565   7.251   6.274
14724TIP3   OH244107   7.083   6.860   6.047
14724TIP3    H144108   7.127   6.928   5.989
14724TIP3    H244109   7.115   6.777   6.008
14725TIP3   OH244110   7.140   6.586   5.973
14725TIP3    H144111   7.215   6.572   6.035
14725TIP3    H244112   7.066   6.543   6.019
14726TIP3   OH244113   5.997   6.610   7.264
14726TIP3    H144114   6.044   6.525   7.276
14726TIP3    H244115   6.039   6.666   7.331
14727TIP3   OH244116   5.797   6.898   7.404
14727TIP3    H144117   5.844   6.871   7.324
14727TIP3    H244118   5.773   6.990   7.382
14728TIP3   OH244119   7.401   6.549   6.078
14728TIP3    H144120   7.426   6.463   6.037
14728TIP3    H244121   7.481   6.602   6.068
14729TIP3   OH244122   5.778   6.373   6.874
14729TIP3    H144123   5.683   6.364   6.895
14729TIP3    H244124   5.774   6.428   6.793
14730TIP3   OH244125   6.091   6.292   7.040
14730TIP3    H144126   5.998   6.260   7.040
14730TIP3    H244127   6.138   6.206   7.033
14731TIP3   OH244128   5.886   6.161   6.695
14731TIP3    H144129   5.909   6.216   6.617
14731TIP3    H244130   5.852   6.228   6.756
14732TIP3   OH244131   6.532   6.316   6.921
14732TIP3    H144132   6.590   6.375   6.870
14732TIP3    H244133   6.523   6.361   7.006
14733TIP3   OH244134   7.089   6.359   6.450
14733TIP3    H144135   7.010   6.415   6.448
14733TIP3    H244136   7.058   6.279   6.498
14734TIP3   OH244137   5.605   7.730   6.435
14734TIP3    H144138   5.514   7.702   6.412
14734TIP3    H244139   5.591   7.826   6.443
14735TIP3   OH244140   5.993   6.315   6.456
14735TIP3    H144141   6.039   6.254   6.395
14735TIP3    H244142   6.068   6.369   6.489
14736TIP3   OH244143   6.503   6.499   6.549
14736TIP3    H144144   6.561   6.457   6.614
14736TIP3    H244145   6.517   6.593   6.571
14737TIP3   OH244146   5.675   7.753   6.109
14737TIP3    H144147   5.658   7.758   6.205
14737TIP3    H244148   5.763   7.709   6.105
14738TIP3   OH244149   2.636   8.239   6.790
14738TIP3    H144150   2.691   8.308   6.830
14738TIP3    H244151   2.701   8.192   6.733
14739TIP3   OH244152   3.364   7.628   6.945
14739TIP3    H144153   3.285   7.648   7.000
14739TIP3    H244154   3.375   7.712   6.897
14740TIP3   OH244155   2.898   8.419   6.630
14740TIP3    H144156   2.892   8.378   6.543
14740TIP3    H244157   2.978   8.474   6.623
14741TIP3   OH244158   2.613   7.828   6.945
14741TIP3    H144159   2.613   7.813   7.041
14741TIP3    H244160   2.578   7.742   6.913
14742TIP3   OH244161   2.298   7.775   6.895
14742TIP3    H144162   2.272   7.800   6.988
14742TIP3    H244163   2.213   7.782   6.848
14743TIP3   OH244164   2.881   7.892   6.923
14743TIP3    H144165   2.784   7.893   6.919
14743TIP3    H244166   2.906   7.985   6.896
14744TIP3   OH244167   2.983   8.141   6.869
14744TIP3    H144168   3.057   8.140   6.934
14744TIP3    H244169   2.954   8.233   6.873
14745TIP3   OH244170   3.399   8.255   6.826
14745TIP3    H144171   3.329   8.206   6.776
14745TIP3    H244172   3.392   8.341   6.780
14746TIP3   OH244173   2.981   7.873   7.177
14746TIP3    H144174   2.945   7.873   7.085
14746TIP3    H244175   2.972   7.967   7.199
14747TIP3   OH244176   3.148   8.541   6.526
14747TIP3    H144177   3.127   8.490   6.445
14747TIP3    H244178   3.157   8.630   6.490
14748TIP3   OH244179   3.355   8.509   6.700
14748TIP3    H144180   3.278   8.493   6.640
14748TIP3    H244181   3.364   8.605   6.688
14749TIP3   OH244182   3.218   8.168   6.642
14749TIP3    H144183   3.169   8.186   6.560
14749TIP3    H244184   3.198   8.073   6.653
14750TIP3   OH244185   3.171   7.900   6.649
14750TIP3    H144186   3.247   7.869   6.703
14750TIP3    H244187   3.100   7.838   6.671
14751TIP3   OH244188   3.240   8.136   7.054
14751TIP3    H144189   3.281   8.054   7.093
14751TIP3    H244190   3.318   8.179   7.017
14752TIP3   OH244191   3.356   7.896   7.132
14752TIP3    H144192   3.390   7.891   7.223
14752TIP3    H244193   3.291   7.822   7.132
14753TIP3   OH244194   3.416   7.839   6.773
14753TIP3    H144195   3.455   7.769   6.718
14753TIP3    H244196   3.485   7.909   6.770
14754TIP3   OH244197   3.419   7.791   7.603
14754TIP3    H144198   3.456   7.821   7.516
14754TIP3    H244199   3.324   7.775   7.578
14755TIP3   OH244200   3.511   7.873   7.362
14755TIP3    H144201   3.581   7.821   7.317
14755TIP3    H244202   3.540   7.965   7.341
14756TIP3   OH244203   3.155   7.752   7.572
14756TIP3    H144204   3.102   7.749   7.492
14756TIP3    H244205   3.118   7.679   7.625
14757TIP3   OH244206   3.174   7.685   7.132
14757TIP3    H144207   3.097   7.744   7.153
14757TIP3    H244208   3.147   7.602   7.176
14758TIP3   OH244209   2.047   7.607   7.101
14758TIP3    H144210   2.077   7.533   7.044
14758TIP3    H244211   2.124   7.615   7.160
14759TIP3   OH244212   3.592   8.326   7.009
14759TIP3    H144213   3.575   8.421   6.997
14759TIP3    H244214   3.525   8.287   6.949
14760TIP3   OH244215   4.172   8.242   7.179
14760TIP3    H144216   4.148   8.312   7.115
14760TIP3    H244217   4.126   8.165   7.137
14761TIP3   OH244218   4.863   8.294   6.806
14761TIP3    H144219   4.928   8.292   6.878
14761TIP3    H244220   4.879   8.382   6.769
14762TIP3   OH244221   4.255   8.625   7.107
14762TIP3    H144222   4.341   8.595   7.075
14762TIP3    H244223   4.196   8.554   7.071
14763TIP3   OH244224   4.042   8.350   7.395
14763TIP3    H144225   4.092   8.432   7.389
14763TIP3    H244226   4.086   8.298   7.325
14764TIP3   OH244227   4.493   7.934   7.311
14764TIP3    H144228   4.499   7.842   7.343
14764TIP3    H244229   4.427   7.972   7.373
14765TIP3   OH244230   4.450   8.697   6.586
14765TIP3    H144231   4.372   8.752   6.567
14765TIP3    H244232   4.503   8.706   6.505
14766TIP3   OH244233   4.408   8.490   6.306
14766TIP3    H144234   4.469   8.537   6.365
14766TIP3    H244235   4.470   8.430   6.259
14767TIP3   OH244236   4.048   8.773   6.933
14767TIP3    H144237   4.040   8.685   6.892
14767TIP3    H244238   4.114   8.758   7.003
14768TIP3   OH244239   4.643   8.666   6.391
14768TIP3    H144240   4.713   8.727   6.418
14768TIP3    H244241   4.658   8.667   6.293
14769TIP3   OH244242   5.153   7.889   6.437
14769TIP3    H144243   5.072   7.909   6.488
14769TIP3    H244244   5.161   7.969   6.381
14770TIP3   OH244245   3.919   8.589   6.760
14770TIP3    H144246   3.854   8.659   6.744
14770TIP3    H244247   3.863   8.511   6.770
14771TIP3   OH244248   4.285   8.029   7.468
14771TIP3    H144249   4.191   8.006   7.449
14771TIP3    H244250   4.275   8.118   7.505
14772TIP3   OH244251   4.716   8.672   6.135
14772TIP3    H144252   4.687   8.648   6.045
14772TIP3    H244253   4.756   8.759   6.119
14773TIP3   OH244254   4.423   8.067   6.436
14773TIP3    H144255   4.391   8.065   6.528
14773TIP3    H244256   4.386   7.983   6.403
14774TIP3   OH244257   4.099   8.429   6.993
14774TIP3    H144258   4.007   8.392   7.003
14774TIP3    H244259   4.119   8.392   6.904
14775TIP3   OH244260   4.579   8.501   6.723
14775TIP3    H144261   4.531   8.576   6.681
14775TIP3    H244262   4.629   8.466   6.646
14776TIP3   OH244263   4.083   8.043   6.403
14776TIP3    H144264   4.073   8.042   6.500
14776TIP3    H244265   4.005   8.097   6.377
14777TIP3   OH244266   3.635   8.103   7.269
14777TIP3    H144267   3.720   8.113   7.317
14777TIP3    H244268   3.660   8.058   7.186
14778TIP3   OH244269   3.595   8.056   6.791
14778TIP3    H144270   3.646   8.092   6.714
14778TIP3    H244271   3.531   8.130   6.801
14779TIP3   OH244272   4.428   8.263   7.062
14779TIP3    H144273   4.346   8.248   7.112
14779TIP3    H244274   4.494   8.220   7.121
14780TIP3   OH244275   3.867   8.303   7.036
14780TIP3    H144276   3.769   8.303   7.037
14780TIP3    H244277   3.888   8.208   7.029
14781TIP3   OH244278   4.127   8.297   6.755
14781TIP3    H144279   4.221   8.309   6.730
14781TIP3    H244280   4.078   8.320   6.673
14782TIP3   OH244281   3.974   8.328   6.531
14782TIP3    H144282   3.906   8.282   6.478
14782TIP3    H244283   4.028   8.368   6.460
14783TIP3   OH244284   4.031   8.054   7.037
14783TIP3    H144285   3.997   7.976   7.086
14783TIP3    H244286   4.074   8.012   6.961
14784TIP3   OH244287   4.218   8.841   6.548
14784TIP3    H144288   4.143   8.781   6.525
14784TIP3    H244289   4.188   8.879   6.631
14785TIP3   OH244290   4.675   8.164   6.405
14785TIP3    H144291   4.579   8.143   6.413
14785TIP3    H244292   4.678   8.260   6.427
14786TIP3   OH244293   4.713   8.418   6.495
14786TIP3    H144294   4.810   8.414   6.514
14786TIP3    H244295   4.706   8.502   6.446
14787TIP3   OH244296   4.324   9.014   6.364
14787TIP3    H144297   4.292   9.091   6.416
14787TIP3    H244298   4.297   8.942   6.425
14788TIP3   OH244299   5.203   8.459   6.296
14788TIP3    H144300   5.117   8.435   6.253
14788TIP3    H244301   5.211   8.549   6.257
14789TIP3   OH244302   3.588   8.487   6.545
14789TIP3    H144303   3.632   8.573   6.565
14789TIP3    H244304   3.511   8.492   6.605
14790TIP3   OH244305   4.702   8.976   6.159
14790TIP3    H144306   4.752   9.054   6.189
14790TIP3    H244307   4.612   9.015   6.148
14791TIP3   OH244308   3.991   8.986   6.204
14791TIP3    H144309   4.034   8.902   6.176
14791TIP3    H244310   4.042   9.011   6.281
14792TIP3   OH244311   3.694   8.729   6.630
14792TIP3    H144312   3.712   8.785   6.709
14792TIP3    H244313   3.697   8.797   6.559
14793TIP3   OH244314   4.713   8.105   6.680
14793TIP3    H144315   4.704   8.133   6.587
14793TIP3    H244316   4.765   8.180   6.719
14794TIP3   OH244317   4.409   8.302   6.790
14794TIP3    H144318   4.474   8.372   6.766
14794TIP3    H244319   4.416   8.303   6.888
14795TIP3   OH244320   4.554   8.028   6.889
14795TIP3    H144321   4.538   8.116   6.929
14795TIP3    H244322   4.616   8.053   6.816
14796TIP3   OH244323   4.067   8.030   6.680
14796TIP3    H144324   4.064   8.121   6.716
14796TIP3    H244325   4.163   8.013   6.687
14797TIP3   OH244326   3.700   8.958   6.446
14797TIP3    H144327   3.729   9.049   6.423
14797TIP3    H244328   3.748   8.906   6.378
14798TIP3   OH244329   3.629   8.215   6.570
14798TIP3    H144330   3.635   8.312   6.562
14798TIP3    H244331   3.552   8.195   6.514
14799TIP3   OH244332   4.025   7.933   7.438
14799TIP3    H144333   3.996   7.898   7.351
14799TIP3    H244334   4.013   7.855   7.496
14800TIP3   OH244335   3.813   8.749   6.297
14800TIP3    H144336   3.869   8.714   6.370
14800TIP3    H244337   3.883   8.758   6.228
14801TIP3   OH244338   4.261   8.926   6.107
14801TIP3    H144339   4.287   8.940   6.199
14801TIP3    H244340   4.299   8.837   6.089
14802TIP3   OH244341   4.017   8.658   6.504
14802TIP3    H144342   3.992   8.616   6.588
14802TIP3    H244343   4.058   8.584   6.455
14803TIP3   OH244344   4.132   8.457   6.351
14803TIP3    H144345   4.106   8.459   6.256
14803TIP3    H244346   4.230   8.462   6.341
14804TIP3   OH244347   4.961   8.797   6.018
14804TIP3    H144348   4.930   8.746   5.940
14804TIP3    H244349   4.943   8.888   5.984
14805TIP3   OH244350   3.444   8.864   6.514
14805TIP3    H144351   3.514   8.915   6.469
14805TIP3    H244352   3.423   8.796   6.447
14806TIP3   OH244353   5.177   8.689   6.162
14806TIP3    H144354   5.095   8.702   6.110
14806TIP3    H244355   5.223   8.773   6.139
14807TIP3   OH244356   4.990   8.421   6.130
14807TIP3    H144357   4.944   8.446   6.049
14807TIP3    H244358   4.973   8.324   6.130
14808TIP3   OH244359   4.950   8.154   6.128
14808TIP3    H144360   5.028   8.120   6.177
14808TIP3    H244361   4.880   8.089   6.147
14809TIP3   OH244362   4.971   8.403   6.566
14809TIP3    H144363   5.010   8.322   6.605
14809TIP3    H244364   5.037   8.472   6.591
14810TIP3   OH244365   5.118   8.177   6.654
14810TIP3    H144366   5.134   8.178   6.752
14810TIP3    H244367   5.061   8.097   6.648
14811TIP3   OH244368   3.856   8.147   7.432
14811TIP3    H144369   3.919   8.073   7.439
14811TIP3    H244370   3.916   8.222   7.411
14812TIP3   OH244371   5.193   8.088   6.242
14812TIP3    H144372   5.228   8.013   6.189
14812TIP3    H244373   5.263   8.155   6.230
14813TIP3   OH244374   3.621   7.934   7.032
14813TIP3    H144375   3.527   7.918   7.052
14813TIP3    H244376   3.615   7.985   6.949
14814TIP3   OH244377   4.636   8.121   7.177
14814TIP3    H144378   4.596   8.043   7.221
14814TIP3    H244379   4.695   8.079   7.111
14815TIP3   OH244380   3.928   7.844   7.193
14815TIP3    H144381   3.835   7.813   7.194
14815TIP3    H244382   3.976   7.758   7.187
14816TIP3   OH244383   3.722   7.720   6.843
14816TIP3    H144384   3.750   7.774   6.767
14816TIP3    H244385   3.694   7.787   6.907
14817TIP3   OH244386   4.371   7.879   7.070
14817TIP3    H144387   4.433   7.923   7.009
14817TIP3    H244388   4.409   7.905   7.157
14818TIP3   OH244389   4.934   7.940   6.970
14818TIP3    H144390   4.918   8.037   6.984
14818TIP3    H244391   4.922   7.906   7.060
14819TIP3   OH244392   4.949   7.954   6.619
14819TIP3    H144393   4.861   7.993   6.633
14819TIP3    H244394   4.937   7.869   6.667
14820TIP3   OH244395   3.836   7.875   6.604
14820TIP3    H144396   3.883   7.813   6.545
14820TIP3    H244397   3.910   7.929   6.638
14821TIP3   OH244398   4.343   8.053   6.701
14821TIP3    H144399   4.404   8.004   6.757
14821TIP3    H244400   4.366   8.145   6.727
14822TIP3   OH244401   5.866   8.312   5.905
14822TIP3    H144402   5.832   8.289   5.992
14822TIP3    H244403   5.786   8.352   5.863
14823TIP3   OH244404   5.403   8.280   6.262
14823TIP3    H144405   5.451   8.313   6.185
14823TIP3    H244406   5.340   8.355   6.275
14824TIP3   OH244407   5.386   8.438   6.022
14824TIP3    H144408   5.430   8.521   6.051
14824TIP3    H244409   5.293   8.453   6.041
14825TIP3   OH244410   5.363   8.126   6.481
14825TIP3    H144411   5.279   8.155   6.520
14825TIP3    H244412   5.374   8.193   6.409
14826TIP3   OH244413   5.503   7.970   6.296
14826TIP3    H144414   5.512   8.035   6.224
14826TIP3    H244415   5.447   8.017   6.360
14827TIP3   OH244416   5.626   8.138   6.085
14827TIP3    H144417   5.666   8.069   6.028
14827TIP3    H244418   5.698   8.158   6.146
   8.50000   8.01388   6.94022   0.00000   0.00000  -2.83333   0.00000  -2.83333  -4.00694
